<event>
 7    1  0.7674040E-012  0.5930198E+02  0.7816164E-02  0.1266605E+00
        -11   -1    0    0    0    0  0.00000000000E+00  0.00000000000E+00  0.45593999997E+02  0.45594000000E+02  0.51100000000E-03 0.  1.
         11   -1    0    0    0    0 -0.00000000000E+00 -0.00000000000E+00 -0.45593999997E+02  0.45594000000E+02  0.51100000000E-03 0. -1.
    9900012    2    1    2    0    0 -0.18608711521E+02  0.15129789600E+02  0.21012460108E+02  0.59301981785E+02  0.50000068861E+02 0.  0.
         12    1    1    2    0    0  0.18608711521E+02 -0.15129789600E+02 -0.21012460108E+02  0.31886018215E+02  0.00000000000E+00 0. -1.
         11    1    3    3    0    0  0.50325554367E+01  0.22082491522E+02  0.15346968320E+01  0.22700624235E+02  0.51100000000E-03 0. -1.
        -11    1    3    3    0    0 -0.16023149189E+02 -0.44741421060E+01  0.22548937299E+02  0.28021667172E+02  0.51100000000E-03 0.  1.
         12    1    3    3    0    0 -0.76181177689E+01 -0.24785598162E+01 -0.30711740236E+01  0.85796903783E+01  0.00000000000E+00 0. -1.
</event>
<event>
 7    1  0.7674040E-012  0.5930192E+02  0.7816164E-02  0.1266605E+00
        -11   -1    0    0    0    0  0.00000000000E+00  0.00000000000E+00  0.45593999997E+02  0.45594000000E+02  0.51100000000E-03 0.  1.
         11   -1    0    0    0    0 -0.00000000000E+00 -0.00000000000E+00 -0.45593999997E+02  0.45594000000E+02  0.51100000000E-03 0. -1.
    9900012    2    1    2    0    0 -0.23749330502E+01  0.12972190553E+02  0.29031082497E+02  0.59301924894E+02  0.49999965104E+02 0.  0.
         12    1    1    2    0    0  0.23749330502E+01 -0.12972190553E+02 -0.29031082497E+02  0.31886075106E+02  0.00000000000E+00 0. -1.
         11    1    3    3    0    0 -0.23620362851E+02  0.18453698190E+01  0.24178609536E+02  0.33851618725E+02  0.51100000000E-03 0. -1.
        -11    1    3    3    0    0  0.80744894637E+01  0.81177365232E+01  0.27756553326E+01  0.11781311011E+02  0.51100000000E-03 0.  1.
         12    1    3    3    0    0  0.13170940337E+02  0.30090842107E+01  0.20768176285E+01  0.13668995157E+02  0.00000000000E+00 0. -1.
</event>
<event>
 7    1  0.7674040E-012  0.5930189E+02  0.7816164E-02  0.1266605E+00
        -11   -1    0    0    0    0  0.00000000000E+00  0.00000000000E+00  0.45593999997E+02  0.45594000000E+02  0.51100000000E-03 0.  1.
         11   -1    0    0    0    0 -0.00000000000E+00 -0.00000000000E+00 -0.45593999997E+02  0.45594000000E+02  0.51100000000E-03 0. -1.
    9900012    2    1    2    0    0 -0.28927852322E+01  0.73469736006E+01  0.30893000336E+02  0.59301894919E+02  0.49999910437E+02 0.  0.
         12    1    1    2    0    0  0.28927852322E+01 -0.73469736006E+01 -0.30893000336E+02  0.31886105081E+02  0.00000000000E+00 0. -1.
         11    1    3    3    0    0  0.10319910379E+02 -0.17275287387E+02  0.12980113245E+02  0.23946178080E+02  0.51100000000E-03 0. -1.
        -11    1    3    3    0    0 -0.12871780290E+02  0.15872294951E+02  0.16942614594E+02  0.26545520609E+02  0.51100000000E-03 0.  1.
         12    1    3    3    0    0 -0.34091532065E+00  0.87499660361E+01  0.97027249778E+00  0.88101962299E+01  0.00000000000E+00 0. -1.
</event>
<event>
 7    1  0.7674040E-012  0.5930214E+02  0.7816164E-02  0.1266604E+00
        -11   -1    0    0    0    0  0.00000000000E+00  0.00000000000E+00  0.45593999997E+02  0.45594000000E+02  0.51100000000E-03 0.  1.
         11   -1    0    0    0    0 -0.00000000000E+00 -0.00000000000E+00 -0.45593999997E+02  0.45594000000E+02  0.51100000000E-03 0. -1.
    9900012    2    1    2    0    0 -0.13479889271E+02 -0.29026448641E+01  0.28750223395E+02  0.59302139383E+02  0.50000356281E+02 0.  0.
         12    1    1    2    0    0  0.13479889271E+02  0.29026448641E+01 -0.28750223395E+02  0.31885860617E+02  0.00000000000E+00 0. -1.
         11    1    3    3    0    0 -0.16673001036E+02 -0.15032495728E+02  0.21550234597E+02  0.31118764481E+02  0.51100000000E-03 0. -1.
        -11    1    3    3    0    0 -0.28800881211E+01  0.62868767357E+01  0.15114983748E+02  0.16621746618E+02  0.51100000000E-03 0.  1.
         12    1    3    3    0    0  0.60731998861E+01  0.58429741285E+01 -0.79149949498E+01  0.11561628284E+02  0.00000000000E+00 0. -1.
</event>
<event>
 7    1  0.7674040E-012  0.5930195E+02  0.7816164E-02  0.1266605E+00
        -11   -1    0    0    0    0  0.00000000000E+00  0.00000000000E+00  0.45593999997E+02  0.45594000000E+02  0.51100000000E-03 0. -1.
         11   -1    0    0    0    0 -0.00000000000E+00 -0.00000000000E+00 -0.45593999997E+02  0.45594000000E+02  0.51100000000E-03 0.  1.
    9900012    2    1    2    0    0  0.23112905333E+02  0.17886944211E+01 -0.21893253709E+02  0.59301946957E+02  0.50000005343E+02 0.  0.
         12    1    1    2    0    0 -0.23112905333E+02 -0.17886944211E+01  0.21893253709E+02  0.31886053043E+02  0.00000000000E+00 0. -1.
         11    1    3    3    0    0 -0.11199048156E+02  0.52915019249E+01 -0.26866017394E+01  0.12674245595E+02  0.51100000000E-03 0. -1.
        -11    1    3    3    0    0  0.19257634145E+02  0.81923531031E+01 -0.21327537297E+01  0.21036153663E+02  0.51100000000E-03 0.  1.
         12    1    3    3    0    0  0.15054319344E+02 -0.11695160607E+02 -0.17073898240E+02  0.25591547700E+02  0.00000000000E+00 0. -1.
</event>
<event>
 7    1  0.7674040E-012  0.5930195E+02  0.7816164E-02  0.1266605E+00
        -11   -1    0    0    0    0  0.00000000000E+00  0.00000000000E+00  0.45593999997E+02  0.45594000000E+02  0.51100000000E-03 0. -1.
         11   -1    0    0    0    0 -0.00000000000E+00 -0.00000000000E+00 -0.45593999997E+02  0.45594000000E+02  0.51100000000E-03 0.  1.
    9900012    2    1    2    0    0 -0.46498646295E+01 -0.15228547991E+02 -0.27625903567E+02  0.59301945636E+02  0.50000002933E+02 0.  0.
         12    1    1    2    0    0  0.46498646295E+01  0.15228547991E+02  0.27625903567E+02  0.31886054364E+02  0.00000000000E+00 0. -1.
         11    1    3    3    0    0 -0.24501539847E+02  0.12995003735E+01 -0.99016163931E+01  0.26458574480E+02  0.51100000000E-03 0.  1.
        -11    1    3    3    0    0  0.16270022805E+02 -0.13535752616E+02 -0.18502522534E+02  0.28111805017E+02  0.51100000000E-03 0. -1.
        -12    1    3    3    0    0  0.35816524125E+01 -0.29922957484E+01  0.77823535953E+00  0.47315661387E+01  0.00000000000E+00 0.  1.
</event>
<event>
 7    1  0.7674040E-012  0.5930195E+02  0.7816164E-02  0.1266605E+00
        -11   -1    0    0    0    0  0.00000000000E+00  0.00000000000E+00  0.45593999997E+02  0.45594000000E+02  0.51100000000E-03 0.  1.
         11   -1    0    0    0    0 -0.00000000000E+00 -0.00000000000E+00 -0.45593999997E+02  0.45594000000E+02  0.51100000000E-03 0. -1.
    9900012    2    1    2    0    0  0.25393397495E+01  0.15079824699E+02  0.27979830302E+02  0.59301948770E+02  0.50000008649E+02 0.  0.
         12    1    1    2    0    0 -0.25393397495E+01 -0.15079824699E+02 -0.27979830302E+02  0.31886051230E+02  0.00000000000E+00 0. -1.
         11    1    3    3    0    0 -0.96010480466E+01 -0.14197010051E+02  0.49317212813E+01  0.17834155237E+02  0.51100000000E-03 0. -1.
        -11    1    3    3    0    0 -0.24594292481E+01  0.89981508928E+01  0.80729535232E+01  0.12336453727E+02  0.51100000000E-03 0.  1.
         12    1    3    3    0    0  0.14599817044E+02  0.20278683857E+02  0.14975155497E+02  0.29131339806E+02  0.00000000000E+00 0. -1.
</event>
<event>
 7    1  0.7674040E-012  0.5930196E+02  0.7816164E-02  0.1266605E+00
        -11   -1    0    0    0    0  0.00000000000E+00  0.00000000000E+00  0.45593999997E+02  0.45594000000E+02  0.51100000000E-03 0.  1.
         11   -1    0    0    0    0 -0.00000000000E+00 -0.00000000000E+00 -0.45593999997E+02  0.45594000000E+02  0.51100000000E-03 0. -1.
    9900012    2    1    2    0    0 -0.26437189536E+02  0.16448280223E+02  0.68737684747E+01  0.59301959075E+02  0.50000027442E+02 0.  0.
         12    1    1    2    0    0  0.26437189536E+02 -0.16448280223E+02 -0.68737684747E+01  0.31886040925E+02  0.00000000000E+00 0. -1.
         11    1    3    3    0    0  0.74115535117E+01 -0.16583290514E+01 -0.31383008176E+01  0.82176707760E+01  0.51100000000E-03 0. -1.
        -11    1    3    3    0    0 -0.35082549275E+02  0.36338103391E+01  0.95990021908E+01  0.36553121406E+02  0.51100000000E-03 0.  1.
         12    1    3    3    0    0  0.12338062272E+01  0.14472798935E+02  0.41306710157E+00  0.14531166892E+02  0.00000000000E+00 0. -1.
</event>
<event>
 7    1  0.7674040E-012  0.5930195E+02  0.7816164E-02  0.1266605E+00
        -11   -1    0    0    0    0  0.00000000000E+00  0.00000000000E+00  0.45593999997E+02  0.45594000000E+02  0.51100000000E-03 0.  1.
         11   -1    0    0    0    0 -0.00000000000E+00 -0.00000000000E+00 -0.45593999997E+02  0.45594000000E+02  0.51100000000E-03 0. -1.
    9900012    2    1    2    0    0 -0.29672806819E+02 -0.99460044295E+01  0.61091710100E+01  0.59301946010E+02  0.50000003615E+02 0.  0.
         12    1    1    2    0    0  0.29672806819E+02  0.99460044295E+01 -0.61091710100E+01  0.31886053990E+02  0.00000000000E+00 0. -1.
         11    1    3    3    0    0 -0.10951600512E+02 -0.17182774521E+02 -0.18449578632E+00  0.20376931393E+02  0.51100000000E-03 0. -1.
        -11    1    3    3    0    0 -0.69958723640E+01  0.67151262108E+01  0.19181681203E+02  0.21493534939E+02  0.51100000000E-03 0.  1.
         12    1    3    3    0    0 -0.11725333943E+02  0.52164388110E+00 -0.12888014406E+02  0.17431479678E+02  0.00000000000E+00 0. -1.
</event>
<event>
 7    1  0.7674040E-012  0.5930196E+02  0.7816164E-02  0.1266605E+00
        -11   -1    0    0    0    0  0.00000000000E+00  0.00000000000E+00  0.45593999997E+02  0.45594000000E+02  0.51100000000E-03 0. -1.
         11   -1    0    0    0    0 -0.00000000000E+00 -0.00000000000E+00 -0.45593999997E+02  0.45594000000E+02  0.51100000000E-03 0.  1.
    9900012    2    1    2    0    0  0.18740185579E+02 -0.24483351654E+02 -0.81296046138E+01  0.59301960187E+02  0.50000029471E+02 0.  0.
         12    1    1    2    0    0 -0.18740185579E+02  0.24483351654E+02  0.81296046138E+01  0.31886039813E+02  0.00000000000E+00 0. -1.
         11    1    3    3    0    0  0.36877123770E+01  0.46356265874E+01 -0.16611667431E+02  0.17636205701E+02  0.51100000000E-03 0. -1.
        -11    1    3    3    0    0  0.47202308085E+01 -0.99580557438E+01  0.15298478571E+02  0.18854360237E+02  0.51100000000E-03 0.  1.
         12    1    3    3    0    0  0.10332242394E+02 -0.19160922498E+02 -0.68164157542E+01  0.22811394249E+02  0.00000000000E+00 0. -1.
</event>
<event>
 7    1  0.7674040E-012  0.5930199E+02  0.7816164E-02  0.1266605E+00
        -11   -1    0    0    0    0  0.00000000000E+00  0.00000000000E+00  0.45593999997E+02  0.45594000000E+02  0.51100000000E-03 0. -1.
         11   -1    0    0    0    0 -0.00000000000E+00 -0.00000000000E+00 -0.45593999997E+02  0.45594000000E+02  0.51100000000E-03 0.  1.
    9900012    2    1    2    0    0 -0.31618097107E+01  0.16926232357E+02 -0.26836972870E+02  0.59301992171E+02  0.50000087802E+02 0.  0.
         12    1    1    2    0    0  0.31618097107E+01 -0.16926232357E+02  0.26836972870E+02  0.31886007829E+02  0.00000000000E+00 0. -1.
         11    1    3    3    0    0 -0.10659290338E+01  0.32269279642E+00 -0.17087585640E+02  0.17123840650E+02  0.51100000000E-03 0. -1.
        -11    1    3    3    0    0 -0.19477742157E+02  0.12593349629E+02 -0.57704283090E+01  0.23901312465E+02  0.51100000000E-03 0.  1.
        -12    1    3    3    0    0  0.17381861480E+02  0.40101899313E+01 -0.39789589209E+01  0.18276839056E+02  0.00000000000E+00 0.  1.
</event>
<event>
 7    1  0.7674040E-012  0.5930194E+02  0.7816164E-02  0.1266605E+00
        -11   -1    0    0    0    0  0.00000000000E+00  0.00000000000E+00  0.45593999997E+02  0.45594000000E+02  0.51100000000E-03 0.  1.
         11   -1    0    0    0    0 -0.00000000000E+00 -0.00000000000E+00 -0.45593999997E+02  0.45594000000E+02  0.51100000000E-03 0. -1.
    9900012    2    1    2    0    0 -0.21207839547E+02 -0.23344351931E+02  0.46893094116E+01  0.59301939596E+02  0.49999991917E+02 0.  0.
         12    1    1    2    0    0  0.21207839547E+02  0.23344351931E+02 -0.46893094116E+01  0.31886060404E+02  0.00000000000E+00 0. -1.
         11    1    3    3    0    0 -0.20639561079E+02 -0.51770443944E+01  0.12984610303E+02  0.24927763140E+02  0.51100000000E-03 0. -1.
        -11    1    3    3    0    0  0.12656304521E+02 -0.33165728776E+01 -0.58741555841E+01  0.14341806157E+02  0.51100000000E-03 0.  1.
        -12    1    3    3    0    0 -0.13224582989E+02 -0.14850734659E+02 -0.24211453073E+01  0.20032370298E+02  0.00000000000E+00 0.  1.
</event>
<event>
 7    1  0.7674040E-012  0.5930190E+02  0.7816164E-02  0.1266605E+00
        -11   -1    0    0    0    0  0.00000000000E+00  0.00000000000E+00  0.45593999997E+02  0.45594000000E+02  0.51100000000E-03 0.  1.
         11   -1    0    0    0    0 -0.00000000000E+00 -0.00000000000E+00 -0.45593999997E+02  0.45594000000E+02  0.51100000000E-03 0. -1.
    9900012    2    1    2    0    0 -0.26674202029E+02 -0.94639145196E+01  0.14684842148E+02  0.59301900821E+02  0.49999921202E+02 0.  0.
         12    1    1    2    0    0  0.26674202029E+02  0.94639145196E+01 -0.14684842148E+02  0.31886099179E+02  0.00000000000E+00 0. -1.
         11    1    3    3    0    0  0.14020710212E+01 -0.18283246534E+02  0.40495432028E+01  0.18778756811E+02  0.51100000000E-03 0. -1.
        -11    1    3    3    0    0 -0.23400842239E+02  0.82901511072E+01  0.18771822820E+02  0.31124063924E+02  0.51100000000E-03 0.  1.
        -12    1    3    3    0    0 -0.46754308110E+01  0.52918090693E+00 -0.81365238751E+01  0.93990800864E+01  0.00000000000E+00 0.  1.
</event>
<event>
 7    1  0.7674040E-012  0.5930192E+02  0.7816164E-02  0.1266605E+00
        -11   -1    0    0    0    0  0.00000000000E+00  0.00000000000E+00  0.45593999997E+02  0.45594000000E+02  0.51100000000E-03 0.  1.
         11   -1    0    0    0    0 -0.00000000000E+00 -0.00000000000E+00 -0.45593999997E+02  0.45594000000E+02  0.51100000000E-03 0. -1.
    9900012    2    1    2    0    0  0.25201159934E+02 -0.73509257515E+01  0.18099381748E+02  0.59301918536E+02  0.49999953510E+02 0.  0.
         12    1    1    2    0    0 -0.25201159934E+02  0.73509257515E+01 -0.18099381748E+02  0.31886081464E+02  0.00000000000E+00 0. -1.
         11    1    3    3    0    0  0.44783600077E+01 -0.62611392490E+01 -0.13790533623E+02  0.15793555360E+02  0.51100000000E-03 0. -1.
        -11    1    3    3    0    0  0.14113435822E+02  0.51508910206E+01  0.61917633730E+01  0.16249882552E+02  0.51100000000E-03 0.  1.
         12    1    3    3    0    0  0.66093641044E+01 -0.62406775231E+01  0.25698151998E+02  0.27258480624E+02  0.00000000000E+00 0. -1.
</event>
<event>
 7    1  0.7674040E-012  0.5930195E+02  0.7816164E-02  0.1266605E+00
        -11   -1    0    0    0    0  0.00000000000E+00  0.00000000000E+00  0.45593999997E+02  0.45594000000E+02  0.51100000000E-03 0.  1.
         11   -1    0    0    0    0 -0.00000000000E+00 -0.00000000000E+00 -0.45593999997E+02  0.45594000000E+02  0.51100000000E-03 0. -1.
    9900012    2    1    2    0    0  0.10509154209E+02 -0.18432376341E+02  0.23801793466E+02  0.59301949884E+02  0.50000010681E+02 0.  0.
         12    1    1    2    0    0 -0.10509154209E+02  0.18432376341E+02 -0.23801793466E+02  0.31886050116E+02  0.00000000000E+00 0. -1.
         11    1    3    3    0    0  0.54959354611E-01 -0.56356783592E+01 -0.67274002531E+01  0.87762067846E+01  0.51100000000E-03 0. -1.
        -11    1    3    3    0    0  0.12810641476E+02 -0.22872322261E+02  0.30446807400E+02  0.40177901161E+02  0.51100000000E-03 0.  1.
        -12    1    3    3    0    0 -0.23564466213E+01  0.10075624278E+02  0.82386319025E-01  0.10347841939E+02  0.00000000000E+00 0.  1.
</event>
<event>
 7    1  0.7674040E-012  0.5930190E+02  0.7816164E-02  0.1266605E+00
        -11   -1    0    0    0    0  0.00000000000E+00  0.00000000000E+00  0.45593999997E+02  0.45594000000E+02  0.51100000000E-03 0. -1.
         11   -1    0    0    0    0 -0.00000000000E+00 -0.00000000000E+00 -0.45593999997E+02  0.45594000000E+02  0.51100000000E-03 0.  1.
    9900012    2    1    2    0    0  0.63257933403E+01 -0.24362166945E+02 -0.19575297778E+02  0.59301903927E+02  0.49999926866E+02 0.  0.
         12    1    1    2    0    0 -0.63257933403E+01  0.24362166945E+02  0.19575297778E+02  0.31886096073E+02  0.00000000000E+00 0. -1.
         11    1    3    3    0    0  0.15419283849E+02 -0.12844832576E+02  0.64214609271E+01  0.21070813914E+02  0.51100000000E-03 0. -1.
        -11    1    3    3    0    0 -0.90471375650E+01  0.57720729719E+01 -0.94435304057E+01  0.14295026803E+02  0.51100000000E-03 0.  1.
         12    1    3    3    0    0 -0.46352943874E-01 -0.17289407342E+02 -0.16553228300E+02  0.23936063210E+02  0.00000000000E+00 0. -1.
</event>
<event>
 7    1  0.7674040E-012  0.5930196E+02  0.7816164E-02  0.1266605E+00
        -11   -1    0    0    0    0  0.00000000000E+00  0.00000000000E+00  0.45593999997E+02  0.45594000000E+02  0.51100000000E-03 0. -1.
         11   -1    0    0    0    0 -0.00000000000E+00 -0.00000000000E+00 -0.45593999997E+02  0.45594000000E+02  0.51100000000E-03 0.  1.
    9900012    2    1    2    0    0 -0.13543603569E+02  0.15346924666E+02  0.24449182108E+02  0.59301956029E+02  0.50000021888E+02 0.  0.
         12    1    1    2    0    0  0.13543603569E+02 -0.15346924666E+02 -0.24449182108E+02  0.31886043971E+02  0.00000000000E+00 0. -1.
         11    1    3    3    0    0  0.96404322847E+01  0.10495469381E+02  0.26127464344E+02  0.29761337428E+02  0.51100000000E-03 0. -1.
        -11    1    3    3    0    0 -0.22682094930E+02  0.57900696959E+01  0.40127676045E+01  0.23750887175E+02  0.51100000000E-03 0.  1.
         12    1    3    3    0    0 -0.50194092385E+00 -0.93861441046E+00 -0.56910498407E+01  0.57897314265E+01  0.00000000000E+00 0. -1.
</event>
<event>
 7    1  0.7674040E-012  0.5930194E+02  0.7816164E-02  0.1266605E+00
        -11   -1    0    0    0    0  0.00000000000E+00  0.00000000000E+00  0.45593999997E+02  0.45594000000E+02  0.51100000000E-03 0. -1.
         11   -1    0    0    0    0 -0.00000000000E+00 -0.00000000000E+00 -0.45593999997E+02  0.45594000000E+02  0.51100000000E-03 0.  1.
    9900012    2    1    2    0    0  0.28303867004E+02  0.12543751635E+01 -0.14630060237E+02  0.59301937105E+02  0.49999987374E+02 0.  0.
         12    1    1    2    0    0 -0.28303867004E+02 -0.12543751635E+01  0.14630060237E+02  0.31886062895E+02  0.00000000000E+00 0. -1.
         11    1    3    3    0    0  0.61147377159E+01 -0.23238354859E+00 -0.28432408227E+02  0.29083429256E+02  0.51100000000E-03 0. -1.
        -11    1    3    3    0    0  0.10058532962E+02  0.80630068126E+01  0.84733916164E+01  0.15426747225E+02  0.51100000000E-03 0.  1.
        -12    1    3    3    0    0  0.12130596327E+02 -0.65762481005E+01  0.53289563735E+01  0.14791760624E+02  0.00000000000E+00 0.  1.
</event>
<event>
 7    1  0.7674040E-012  0.5930194E+02  0.7816164E-02  0.1266605E+00
        -11   -1    0    0    0    0  0.00000000000E+00  0.00000000000E+00  0.45593999997E+02  0.45594000000E+02  0.51100000000E-03 0.  1.
         11   -1    0    0    0    0 -0.00000000000E+00 -0.00000000000E+00 -0.45593999997E+02  0.45594000000E+02  0.51100000000E-03 0. -1.
    9900012    2    1    2    0    0 -0.23220514749E+02 -0.15124181916E+01  0.21800021061E+02  0.59301942981E+02  0.49999998090E+02 0.  0.
         12    1    1    2    0    0  0.23220514749E+02  0.15124181916E+01 -0.21800021061E+02  0.31886057019E+02  0.00000000000E+00 0. -1.
         11    1    3    3    0    0 -0.74596390411E+00 -0.87607056667E+01 -0.12883690615E+02  0.15597945699E+02  0.51100000000E-03 0. -1.
        -11    1    3    3    0    0 -0.17630794807E+02  0.19623815718E+01  0.30817045644E+02  0.35558208187E+02  0.51100000000E-03 0.  1.
         12    1    3    3    0    0 -0.48437560373E+01  0.52859059033E+01  0.38666660317E+01  0.81457890943E+01  0.00000000000E+00 0. -1.
</event>
<event>
 7    1  0.7674040E-012  0.5930195E+02  0.7816164E-02  0.1266605E+00
        -11   -1    0    0    0    0  0.00000000000E+00  0.00000000000E+00  0.45593999997E+02  0.45594000000E+02  0.51100000000E-03 0.  1.
         11   -1    0    0    0    0 -0.00000000000E+00 -0.00000000000E+00 -0.45593999997E+02  0.45594000000E+02  0.51100000000E-03 0. -1.
    9900012    2    1    2    0    0 -0.30585058101E+02  0.89504001889E+01 -0.10791801878E+01  0.59301951758E+02  0.50000014099E+02 0.  0.
         12    1    1    2    0    0  0.30585058101E+02 -0.89504001889E+01  0.10791801878E+01  0.31886048242E+02  0.00000000000E+00 0. -1.
         11    1    3    3    0    0 -0.12312121737E+02 -0.98074164429E+01  0.64244253455E+01  0.17001382304E+02  0.51100000000E-03 0. -1.
        -11    1    3    3    0    0  0.19744564033E+01  0.11078118416E+02 -0.15554017797E+02  0.19197673182E+02  0.51100000000E-03 0.  1.
        -12    1    3    3    0    0 -0.20247392767E+02  0.76796982161E+01  0.80504122636E+01  0.23102896273E+02  0.00000000000E+00 0.  1.
</event>
<event>
 7    1  0.7674040E-012  0.5930196E+02  0.7816164E-02  0.1266605E+00
        -11   -1    0    0    0    0  0.00000000000E+00  0.00000000000E+00  0.45593999997E+02  0.45594000000E+02  0.51100000000E-03 0. -1.
         11   -1    0    0    0    0 -0.00000000000E+00 -0.00000000000E+00 -0.45593999997E+02  0.45594000000E+02  0.51100000000E-03 0.  1.
    9900012    2    1    2    0    0 -0.24441845975E+02  0.48130383369E+01 -0.19903531564E+02  0.59301956949E+02  0.50000023566E+02 0.  0.
         12    1    1    2    0    0  0.24441845975E+02 -0.48130383369E+01  0.19903531564E+02  0.31886043051E+02  0.00000000000E+00 0. -1.
         11    1    3    3    0    0  0.13381469327E+02  0.74191132681E+00 -0.12926687136E+02  0.18620241522E+02  0.51100000000E-03 0. -1.
        -11    1    3    3    0    0 -0.22121360832E+02  0.70799708156E+01 -0.82380942580E+01  0.24644406851E+02  0.51100000000E-03 0.  1.
         12    1    3    3    0    0 -0.15701954470E+02 -0.30088438055E+01  0.12612498301E+01  0.16037308576E+02  0.00000000000E+00 0. -1.
</event>
<event>
 7    1  0.7674040E-012  0.5930201E+02  0.7816164E-02  0.1266605E+00
        -11   -1    0    0    0    0  0.00000000000E+00  0.00000000000E+00  0.45593999997E+02  0.45594000000E+02  0.51100000000E-03 0.  1.
         11   -1    0    0    0    0 -0.00000000000E+00 -0.00000000000E+00 -0.45593999997E+02  0.45594000000E+02  0.51100000000E-03 0. -1.
    9900012    2    1    2    0    0  0.21907062797E+02 -0.21514489402E+01  0.23068776827E+02  0.59302006253E+02  0.50000113484E+02 0.  0.
         12    1    1    2    0    0 -0.21907062797E+02  0.21514489402E+01 -0.23068776827E+02  0.31885993747E+02  0.00000000000E+00 0. -1.
         11    1    3    3    0    0 -0.53609679309E+00  0.51064046297E+01  0.15359190428E+02  0.16194675016E+02  0.51100000000E-03 0. -1.
        -11    1    3    3    0    0  0.25089865653E+02 -0.84308210401E+01 -0.75908288062E+01  0.27535445959E+02  0.51100000000E-03 0.  1.
        -12    1    3    3    0    0 -0.26467060636E+01  0.11729674702E+01  0.15300415205E+02  0.15571885278E+02  0.00000000000E+00 0.  1.
</event>
<event>
 7    1  0.7674040E-012  0.5930193E+02  0.7816164E-02  0.1266605E+00
        -11   -1    0    0    0    0  0.00000000000E+00  0.00000000000E+00  0.45593999997E+02  0.45594000000E+02  0.51100000000E-03 0. -1.
         11   -1    0    0    0    0 -0.00000000000E+00 -0.00000000000E+00 -0.45593999997E+02  0.45594000000E+02  0.51100000000E-03 0.  1.
    9900012    2    1    2    0    0 -0.11824536731E+02  0.27778063292E+02 -0.10260666519E+02  0.59301925506E+02  0.49999966222E+02 0.  0.
         12    1    1    2    0    0  0.11824536731E+02 -0.27778063292E+02  0.10260666519E+02  0.31886074494E+02  0.00000000000E+00 0. -1.
         11    1    3    3    0    0  0.10477518956E+02  0.13341970808E+02  0.37379293856E+01  0.17371203322E+02  0.51100000000E-03 0. -1.
        -11    1    3    3    0    0 -0.20892704778E+02 -0.31427685408E+01 -0.35250571813E+01  0.21419807082E+02  0.51100000000E-03 0.  1.
        -12    1    3    3    0    0 -0.14093509091E+01  0.17578861026E+02 -0.10473538723E+02  0.20510915102E+02  0.00000000000E+00 0.  1.
</event>
<event>
 7    1  0.7674040E-012  0.5930195E+02  0.7816164E-02  0.1266605E+00
        -11   -1    0    0    0    0  0.00000000000E+00  0.00000000000E+00  0.45593999997E+02  0.45594000000E+02  0.51100000000E-03 0.  1.
         11   -1    0    0    0    0 -0.00000000000E+00 -0.00000000000E+00 -0.45593999997E+02  0.45594000000E+02  0.51100000000E-03 0. -1.
    9900012    2    1    2    0    0  0.45551085117E+01  0.19019795828E+02  0.25183701243E+02  0.59301945757E+02  0.50000003154E+02 0.  0.
         12    1    1    2    0    0 -0.45551085117E+01 -0.19019795828E+02 -0.25183701243E+02  0.31886054243E+02  0.00000000000E+00 0. -1.
         11    1    3    3    0    0  0.12759326725E+02  0.20558411237E+01  0.27475174091E+01  0.13212711810E+02  0.51100000000E-03 0. -1.
        -11    1    3    3    0    0 -0.44178958317E+01  0.13798092881E+02  0.32111063482E+02  0.35228192814E+02  0.51100000000E-03 0.  1.
        -12    1    3    3    0    0 -0.37863223818E+01  0.31658618233E+01 -0.96748796487E+01  0.10861041132E+02  0.00000000000E+00 0.  1.
</event>
<event>
 7    1  0.7674040E-012  0.5930193E+02  0.7816164E-02  0.1266605E+00
        -11   -1    0    0    0    0  0.00000000000E+00  0.00000000000E+00  0.45593999997E+02  0.45594000000E+02  0.51100000000E-03 0.  1.
         11   -1    0    0    0    0 -0.00000000000E+00 -0.00000000000E+00 -0.45593999997E+02  0.45594000000E+02  0.51100000000E-03 0. -1.
    9900012    2    1    2    0    0 -0.25085965566E+02  0.18130280957E+02  0.76621719486E+01  0.59301927257E+02  0.49999969415E+02 0.  0.
         12    1    1    2    0    0  0.25085965566E+02 -0.18130280957E+02 -0.76621719486E+01  0.31886072743E+02  0.00000000000E+00 0. -1.
         11    1    3    3    0    0 -0.29260691643E+02  0.99362972678E+01 -0.81027710236E+01  0.31946407894E+02  0.51100000000E-03 0. -1.
        -11    1    3    3    0    0 -0.18106601256E+01  0.12331025109E+02  0.15743371305E+02  0.20079502251E+02  0.51100000000E-03 0.  1.
         12    1    3    3    0    0  0.59853862017E+01 -0.41370414196E+01  0.21571667136E-01  0.72760171129E+01  0.00000000000E+00 0. -1.
</event>
<event>
 7    1  0.7674040E-012  0.5930180E+02  0.7816164E-02  0.1266605E+00
        -11   -1    0    0    0    0  0.00000000000E+00  0.00000000000E+00  0.45593999997E+02  0.45594000000E+02  0.51100000000E-03 0.  1.
         11   -1    0    0    0    0 -0.00000000000E+00 -0.00000000000E+00 -0.45593999997E+02  0.45594000000E+02  0.51100000000E-03 0. -1.
    9900012    2    1    2    0    0  0.15305852638E+02 -0.22862230157E+02  0.16117672409E+02  0.59301795199E+02  0.49999728572E+02 0.  0.
         12    1    1    2    0    0 -0.15305852638E+02  0.22862230157E+02 -0.16117672409E+02  0.31886204801E+02  0.00000000000E+00 0. -1.
         11    1    3    3    0    0 -0.85330103082E+00  0.35934883539E+01  0.24874296031E+02  0.25147005478E+02  0.51100000000E-03 0.  1.
        -11    1    3    3    0    0  0.16733319522E+02 -0.25259235090E+02 -0.57110073257E+01  0.30832589001E+02  0.51100000000E-03 0. -1.
        -12    1    3    3    0    0 -0.57416585284E+00 -0.11964834203E+01 -0.30456162966E+01  0.33222007205E+01  0.00000000000E+00 0.  1.
</event>
<event>
 7    1  0.7674040E-012  0.5930195E+02  0.7816164E-02  0.1266605E+00
        -11   -1    0    0    0    0  0.00000000000E+00  0.00000000000E+00  0.45593999997E+02  0.45594000000E+02  0.51100000000E-03 0.  1.
         11   -1    0    0    0    0 -0.00000000000E+00 -0.00000000000E+00 -0.45593999997E+02  0.45594000000E+02  0.51100000000E-03 0. -1.
    9900012    2    1    2    0    0 -0.23391811609E+02  0.90148709181E+01  0.19704704604E+02  0.59301950831E+02  0.50000012408E+02 0.  0.
         12    1    1    2    0    0  0.23391811609E+02 -0.90148709181E+01 -0.19704704604E+02  0.31886049169E+02  0.00000000000E+00 0. -1.
         11    1    3    3    0    0 -0.12263277446E+02  0.47116026172E+01 -0.15078077191E+02  0.19998389559E+02  0.51100000000E-03 0. -1.
        -11    1    3    3    0    0 -0.10222216579E+02  0.76419201966E+01  0.17394916267E+02  0.21574887446E+02  0.51100000000E-03 0.  1.
         12    1    3    3    0    0 -0.90631758489E+00 -0.33386518957E+01  0.17387865528E+02  0.17728673827E+02  0.00000000000E+00 0. -1.
</event>
<event>
 7    1  0.7674040E-012  0.5930206E+02  0.7816164E-02  0.1266604E+00
        -11   -1    0    0    0    0  0.00000000000E+00  0.00000000000E+00  0.45593999997E+02  0.45594000000E+02  0.51100000000E-03 0.  1.
         11   -1    0    0    0    0 -0.00000000000E+00 -0.00000000000E+00 -0.45593999997E+02  0.45594000000E+02  0.51100000000E-03 0. -1.
    9900012    2    1    2    0    0 -0.20222170786E+02  0.78835892602E+01  0.23358641202E+02  0.59302058118E+02  0.50000208072E+02 0.  0.
         12    1    1    2    0    0  0.20222170786E+02 -0.78835892602E+01 -0.23358641202E+02  0.31885941882E+02  0.00000000000E+00 0. -1.
         11    1    3    3    0    0 -0.79833752930E+01 -0.12821172487E+02 -0.62756387099E+01  0.16355439049E+02  0.51100000000E-03 0. -1.
        -11    1    3    3    0    0 -0.15101109406E+02  0.75956948459E+01  0.21134895143E+02  0.27063293931E+02  0.51100000000E-03 0.  1.
         12    1    3    3    0    0  0.28623139130E+01  0.13109066901E+02  0.84993847698E+01  0.15883325137E+02  0.00000000000E+00 0. -1.
</event>
<event>
 7    1  0.7674040E-012  0.5930194E+02  0.7816164E-02  0.1266605E+00
        -11   -1    0    0    0    0  0.00000000000E+00  0.00000000000E+00  0.45593999997E+02  0.45594000000E+02  0.51100000000E-03 0.  1.
         11   -1    0    0    0    0 -0.00000000000E+00 -0.00000000000E+00 -0.45593999997E+02  0.45594000000E+02  0.51100000000E-03 0. -1.
    9900012    2    1    2    0    0  0.16624435361E+02 -0.26976648278E+02 -0.35509665132E+01  0.59301940874E+02  0.49999994249E+02 0.  0.
         12    1    1    2    0    0 -0.16624435361E+02  0.26976648278E+02  0.35509665132E+01  0.31886059126E+02  0.00000000000E+00 0. -1.
         11    1    3    3    0    0 -0.41142559667E+01 -0.85660604358E+01  0.29483632306E+01  0.99497406775E+01  0.51100000000E-03 0. -1.
        -11    1    3    3    0    0  0.19079848129E+02  0.43043328575E+01 -0.15405115384E+02  0.24897499196E+02  0.51100000000E-03 0.  1.
        -12    1    3    3    0    0  0.16588431988E+01 -0.22714920700E+02  0.89057856400E+01  0.24454701000E+02  0.00000000000E+00 0.  1.
</event>
<event>
 7    1  0.7674040E-012  0.5930194E+02  0.7816164E-02  0.1266605E+00
        -11   -1    0    0    0    0  0.00000000000E+00  0.00000000000E+00  0.45593999997E+02  0.45594000000E+02  0.51100000000E-03 0.  1.
         11   -1    0    0    0    0 -0.00000000000E+00 -0.00000000000E+00 -0.45593999997E+02  0.45594000000E+02  0.51100000000E-03 0. -1.
    9900012    2    1    2    0    0  0.19732983645E+01 -0.33579311489E+01  0.31647295678E+02  0.59301938284E+02  0.49999989525E+02 0.  0.
         12    1    1    2    0    0 -0.19732983645E+01  0.33579311489E+01 -0.31647295678E+02  0.31886061716E+02  0.00000000000E+00 0. -1.
         11    1    3    3    0    0 -0.70323907369E+01  0.90622781353E+01  0.14212811287E+02  0.18264265915E+02  0.51100000000E-03 0. -1.
        -11    1    3    3    0    0 -0.22450442075E+01 -0.16402238708E+02 -0.35177467148E+01  0.16924780659E+02  0.51100000000E-03 0.  1.
        -12    1    3    3    0    0  0.11250733309E+02  0.39820294239E+01  0.20952231106E+02  0.24112891711E+02  0.00000000000E+00 0.  1.
</event>
<event>
 7    1  0.7674040E-012  0.5930199E+02  0.7816164E-02  0.1266605E+00
        -11   -1    0    0    0    0  0.00000000000E+00  0.00000000000E+00  0.45593999997E+02  0.45594000000E+02  0.51100000000E-03 0.  1.
         11   -1    0    0    0    0 -0.00000000000E+00 -0.00000000000E+00 -0.45593999997E+02  0.45594000000E+02  0.51100000000E-03 0. -1.
    9900012    2    1    2    0    0  0.30251450380E+02  0.80964118583E+01  0.60013021252E+01  0.59301987984E+02  0.50000080166E+02 0.  0.
         12    1    1    2    0    0 -0.30251450380E+02 -0.80964118583E+01 -0.60013021252E+01  0.31886012016E+02  0.00000000000E+00 0. -1.
         11    1    3    3    0    0  0.51122496955E+01  0.13936612835E+01 -0.97731301926E+01  0.11117169727E+02  0.51100000000E-03 0. -1.
        -11    1    3    3    0    0  0.78238802838E+01  0.21342540937E+02  0.96699132096E+01  0.24702720055E+02  0.51100000000E-03 0.  1.
        -12    1    3    3    0    0  0.17315320401E+02 -0.14639790362E+02  0.61045191081E+01  0.23482098202E+02  0.00000000000E+00 0.  1.
</event>
<event>
 7    1  0.7674040E-012  0.5930195E+02  0.7816164E-02  0.1266605E+00
        -11   -1    0    0    0    0  0.00000000000E+00  0.00000000000E+00  0.45593999997E+02  0.45594000000E+02  0.51100000000E-03 0.  1.
         11   -1    0    0    0    0 -0.00000000000E+00 -0.00000000000E+00 -0.45593999997E+02  0.45594000000E+02  0.51100000000E-03 0. -1.
    9900012    2    1    2    0    0 -0.12066001062E+02  0.28817091354E+02  0.63802221465E+01  0.59301947087E+02  0.50000005580E+02 0.  0.
         12    1    1    2    0    0  0.12066001062E+02 -0.28817091354E+02 -0.63802221465E+01  0.31886052913E+02  0.00000000000E+00 0. -1.
         11    1    3    3    0    0 -0.37168561845E+01 -0.26174078117E+01  0.14335376198E+02  0.15038911348E+02  0.51100000000E-03 0. -1.
        -11    1    3    3    0    0  0.65922385767E+01  0.22496254314E+02  0.30889013627E+01  0.23644880620E+02  0.51100000000E-03 0.  1.
         12    1    3    3    0    0 -0.14941383454E+02  0.89382448512E+01 -0.11044055414E+02  0.20618155120E+02  0.00000000000E+00 0. -1.
</event>
<event>
 7    1  0.7674040E-012  0.5930195E+02  0.7816164E-02  0.1266605E+00
        -11   -1    0    0    0    0  0.00000000000E+00  0.00000000000E+00  0.45593999997E+02  0.45594000000E+02  0.51100000000E-03 0. -1.
         11   -1    0    0    0    0 -0.00000000000E+00 -0.00000000000E+00 -0.45593999997E+02  0.45594000000E+02  0.51100000000E-03 0.  1.
    9900012    2    1    2    0    0  0.28950882185E+02 -0.78215395195E+01 -0.10834666841E+02  0.59301951870E+02  0.50000014303E+02 0.  0.
         12    1    1    2    0    0 -0.28950882185E+02  0.78215395195E+01  0.10834666841E+02  0.31886048130E+02  0.00000000000E+00 0. -1.
         11    1    3    3    0    0 -0.14515083787E+01 -0.54240564836E+01  0.11557467357E+02  0.12849214656E+02  0.51100000000E-03 0. -1.
        -11    1    3    3    0    0  0.29192837161E+02  0.77180302590E+01 -0.14141633056E+02  0.33343297952E+02  0.51100000000E-03 0.  1.
         12    1    3    3    0    0  0.12095534035E+01 -0.10115513295E+02 -0.82505011426E+01  0.13109439262E+02  0.00000000000E+00 0. -1.
</event>
<event>
 7    1  0.7674040E-012  0.5930194E+02  0.7816164E-02  0.1266605E+00
        -11   -1    0    0    0    0  0.00000000000E+00  0.00000000000E+00  0.45593999997E+02  0.45594000000E+02  0.51100000000E-03 0.  1.
         11   -1    0    0    0    0 -0.00000000000E+00 -0.00000000000E+00 -0.45593999997E+02  0.45594000000E+02  0.51100000000E-03 0. -1.
    9900012    2    1    2    0    0  0.10099499861E+02  0.17241393205E+02  0.24848641626E+02  0.59301944620E+02  0.50000001079E+02 0.  0.
         12    1    1    2    0    0 -0.10099499861E+02 -0.17241393205E+02 -0.24848641626E+02  0.31886055380E+02  0.00000000000E+00 0. -1.
         11    1    3    3    0    0  0.28798418653E+02  0.92361883590E+01  0.13460061969E+02  0.33103313442E+02  0.51100000000E-03 0.  1.
        -11    1    3    3    0    0 -0.16411487947E+02  0.14456399046E+01  0.94207614198E+01  0.18978344431E+02  0.51100000000E-03 0. -1.
        -12    1    3    3    0    0 -0.22874308458E+01  0.65595649411E+01  0.19678182369E+01  0.72202867467E+01  0.00000000000E+00 0.  1.
</event>
<event>
 7    1  0.7674040E-012  0.5930195E+02  0.7816164E-02  0.1266605E+00
        -11   -1    0    0    0    0  0.00000000000E+00  0.00000000000E+00  0.45593999997E+02  0.45594000000E+02  0.51100000000E-03 0. -1.
         11   -1    0    0    0    0 -0.00000000000E+00 -0.00000000000E+00 -0.45593999997E+02  0.45594000000E+02  0.51100000000E-03 0.  1.
    9900012    2    1    2    0    0 -0.21694002632E+02 -0.10629980975E+02 -0.20810913253E+02  0.59301947310E+02  0.50000005986E+02 0.  0.
         12    1    1    2    0    0  0.21694002632E+02  0.10629980975E+02  0.20810913253E+02  0.31886052690E+02  0.00000000000E+00 0. -1.
         11    1    3    3    0    0  0.11672901601E+02 -0.91815005320E+01  0.46151785486E+01  0.15551734858E+02  0.51100000000E-03 0. -1.
        -11    1    3    3    0    0 -0.17178409727E+02 -0.10509266794E+01 -0.54875395602E+01  0.18064199354E+02  0.51100000000E-03 0.  1.
         12    1    3    3    0    0 -0.16188494505E+02 -0.39755376387E+00 -0.19938552242E+02  0.25686013097E+02  0.00000000000E+00 0. -1.
</event>
<event>
 7    1  0.7674040E-012  0.5930193E+02  0.7816164E-02  0.1266605E+00
        -11   -1    0    0    0    0  0.00000000000E+00  0.00000000000E+00  0.45593999997E+02  0.45594000000E+02  0.51100000000E-03 0. -1.
         11   -1    0    0    0    0 -0.00000000000E+00 -0.00000000000E+00 -0.45593999997E+02  0.45594000000E+02  0.51100000000E-03 0.  1.
    9900012    2    1    2    0    0  0.11336055055E+02 -0.10729092275E+02 -0.27804711266E+02  0.59301928843E+02  0.49999972307E+02 0.  0.
         12    1    1    2    0    0 -0.11336055055E+02  0.10729092275E+02  0.27804711266E+02  0.31886071157E+02  0.00000000000E+00 0. -1.
         11    1    3    3    0    0 -0.15682966991E+02 -0.64960019237E+01 -0.19622252617E+02  0.25945833821E+02  0.51100000000E-03 0. -1.
        -11    1    3    3    0    0  0.23567689612E+02  0.33640457562E+01 -0.44674230350E+01  0.24222111104E+02  0.51100000000E-03 0.  1.
        -12    1    3    3    0    0  0.34513324338E+01 -0.75971361075E+01 -0.37150356144E+01  0.91339839184E+01  0.00000000000E+00 0.  1.
</event>
<event>
 7    1  0.7674040E-012  0.5930194E+02  0.7816164E-02  0.1266605E+00
        -11   -1    0    0    0    0  0.00000000000E+00  0.00000000000E+00  0.45593999997E+02  0.45594000000E+02  0.51100000000E-03 0.  1.
         11   -1    0    0    0    0 -0.00000000000E+00 -0.00000000000E+00 -0.45593999997E+02  0.45594000000E+02  0.51100000000E-03 0. -1.
    9900012    2    1    2    0    0 -0.27364055518E+02 -0.15644817650E+02  0.48133885370E+01  0.59301944068E+02  0.50000000073E+02 0.  0.
         12    1    1    2    0    0  0.27364055518E+02  0.15644817650E+02 -0.48133885370E+01  0.31886055932E+02  0.00000000000E+00 0. -1.
         11    1    3    3    0    0 -0.17263273467E+02  0.79441610717E+01 -0.14852806706E+02  0.24119207558E+02  0.51100000000E-03 0. -1.
        -11    1    3    3    0    0 -0.36836914177E+01 -0.25100183507E+01  0.10332979288E+02  0.11253454394E+02  0.51100000000E-03 0.  1.
         12    1    3    3    0    0 -0.64170906337E+01 -0.21078960371E+02  0.93332159550E+01  0.23929282116E+02  0.00000000000E+00 0. -1.
</event>
<event>
 7    1  0.7674040E-012  0.5930197E+02  0.7816164E-02  0.1266605E+00
        -11   -1    0    0    0    0  0.00000000000E+00  0.00000000000E+00  0.45593999997E+02  0.45594000000E+02  0.51100000000E-03 0. -1.
         11   -1    0    0    0    0 -0.00000000000E+00 -0.00000000000E+00 -0.45593999997E+02  0.45594000000E+02  0.51100000000E-03 0.  1.
    9900012    2    1    2    0    0  0.14800821728E+02 -0.20112523849E+02 -0.19827776627E+02  0.59301973823E+02  0.50000054340E+02 0.  0.
         12    1    1    2    0    0 -0.14800821728E+02  0.20112523849E+02  0.19827776627E+02  0.31886026177E+02  0.00000000000E+00 0. -1.
         11    1    3    3    0    0  0.25399923593E+01  0.76926110908E+01 -0.25304370909E+02  0.26569512866E+02  0.51100000000E-03 0. -1.
        -11    1    3    3    0    0  0.13712814739E+02 -0.26670970138E+02  0.37784069378E+01  0.30226781096E+02  0.51100000000E-03 0.  1.
        -12    1    3    3    0    0 -0.14519853707E+01 -0.11341648018E+01  0.16981873440E+01  0.25056798618E+01  0.00000000000E+00 0.  1.
</event>
<event>
 7    1  0.7674040E-012  0.5930191E+02  0.7816164E-02  0.1266605E+00
        -11   -1    0    0    0    0  0.00000000000E+00  0.00000000000E+00  0.45593999997E+02  0.45594000000E+02  0.51100000000E-03 0.  1.
         11   -1    0    0    0    0 -0.00000000000E+00 -0.00000000000E+00 -0.45593999997E+02  0.45594000000E+02  0.51100000000E-03 0. -1.
    9900012    2    1    2    0    0  0.21949516749E+01 -0.27192064263E+02 -0.16507462372E+02  0.59301913917E+02  0.49999945085E+02 0.  0.
         12    1    1    2    0    0 -0.21949516749E+01  0.27192064263E+02  0.16507462372E+02  0.31886086083E+02  0.00000000000E+00 0. -1.
         11    1    3    3    0    0  0.72324395257E+01 -0.33931158864E+01 -0.10861171539E+02  0.13482821084E+02  0.51100000000E-03 0. -1.
        -11    1    3    3    0    0 -0.81098377855E+00 -0.29563509576E+02  0.78044181579E+01  0.30587051773E+02  0.51100000000E-03 0.  1.
        -12    1    3    3    0    0 -0.42265040723E+01  0.57645611995E+01 -0.13450708990E+02  0.15232041060E+02  0.00000000000E+00 0.  1.
</event>
<event>
 7    1  0.7674040E-012  0.5930193E+02  0.7816164E-02  0.1266605E+00
        -11   -1    0    0    0    0  0.00000000000E+00  0.00000000000E+00  0.45593999997E+02  0.45594000000E+02  0.51100000000E-03 0.  1.
         11   -1    0    0    0    0 -0.00000000000E+00 -0.00000000000E+00 -0.45593999997E+02  0.45594000000E+02  0.51100000000E-03 0. -1.
    9900012    2    1    2    0    0  0.21464662943E+02  0.23145461598E+02 -0.45030293283E+01  0.59301930613E+02  0.49999975534E+02 0.  0.
         12    1    1    2    0    0 -0.21464662943E+02 -0.23145461598E+02  0.45030293283E+01  0.31886069387E+02  0.00000000000E+00 0. -1.
         11    1    3    3    0    0 -0.19846461863E+01  0.96557338885E+01 -0.19330285762E+02  0.21698662754E+02  0.51100000000E-03 0. -1.
        -11    1    3    3    0    0  0.26534142025E+02  0.77904077964E+01  0.95860257288E+01  0.29268464876E+02  0.51100000000E-03 0.  1.
        -12    1    3    3    0    0 -0.30848328958E+01  0.56993199128E+01  0.52412307047E+01  0.83348029828E+01  0.00000000000E+00 0.  1.
</event>
<event>
 7    1  0.7674040E-012  0.5930193E+02  0.7816164E-02  0.1266605E+00
        -11   -1    0    0    0    0  0.00000000000E+00  0.00000000000E+00  0.45593999997E+02  0.45594000000E+02  0.51100000000E-03 0.  1.
         11   -1    0    0    0    0 -0.00000000000E+00 -0.00000000000E+00 -0.45593999997E+02  0.45594000000E+02  0.51100000000E-03 0. -1.
    9900012    2    1    2    0    0  0.60625114259E+01  0.13999460002E+02  0.27999683150E+02  0.59301934365E+02  0.49999982378E+02 0.  0.
         12    1    1    2    0    0 -0.60625114259E+01 -0.13999460002E+02 -0.27999683150E+02  0.31886065635E+02  0.00000000000E+00 0. -1.
         11    1    3    3    0    0  0.24598581897E+02  0.12929580021E+02  0.16411842552E+02  0.32274027438E+02  0.51100000000E-03 0.  1.
        -11    1    3    3    0    0 -0.13148763501E+02 -0.53534341578E+01  0.20741593396E+01  0.14347521602E+02  0.51100000000E-03 0. -1.
         12    1    3    3    0    0 -0.53873069697E+01  0.64233141394E+01  0.95136812585E+01  0.12680385326E+02  0.00000000000E+00 0. -1.
</event>
<event>
 7    1  0.7674040E-012  0.5930196E+02  0.7816164E-02  0.1266605E+00
        -11   -1    0    0    0    0  0.00000000000E+00  0.00000000000E+00  0.45593999997E+02  0.45594000000E+02  0.51100000000E-03 0. -1.
         11   -1    0    0    0    0 -0.00000000000E+00 -0.00000000000E+00 -0.45593999997E+02  0.45594000000E+02  0.51100000000E-03 0.  1.
    9900012    2    1    2    0    0  0.26497178027E+02  0.13951172036E+02 -0.10953707770E+02  0.59301962954E+02  0.50000034518E+02 0.  0.
         12    1    1    2    0    0 -0.26497178027E+02 -0.13951172036E+02  0.10953707770E+02  0.31886037046E+02  0.00000000000E+00 0. -1.
         11    1    3    3    0    0  0.48965157403E+01  0.50636462424E+01  0.81478037809E+01  0.10770472895E+02  0.51100000000E-03 0. -1.
        -11    1    3    3    0    0  0.23190648364E+02  0.27385999686E+01 -0.28713699196E+02  0.37010574477E+02  0.51100000000E-03 0.  1.
        -12    1    3    3    0    0 -0.15899860774E+01  0.61489258248E+01  0.96121876454E+01  0.11520915582E+02  0.00000000000E+00 0.  1.
</event>
<event>
 7    1  0.7674040E-012  0.5930194E+02  0.7816164E-02  0.1266605E+00
        -11   -1    0    0    0    0  0.00000000000E+00  0.00000000000E+00  0.45593999997E+02  0.45594000000E+02  0.51100000000E-03 0.  1.
         11   -1    0    0    0    0 -0.00000000000E+00 -0.00000000000E+00 -0.45593999997E+02  0.45594000000E+02  0.51100000000E-03 0. -1.
    9900012    2    1    2    0    0 -0.11489278213E+02  0.18699927987E+01  0.29685360562E+02  0.59301936922E+02  0.49999987041E+02 0.  0.
         12    1    1    2    0    0  0.11489278213E+02 -0.18699927987E+01 -0.29685360562E+02  0.31886063078E+02  0.00000000000E+00 0. -1.
         11    1    3    3    0    0  0.64133370683E+01  0.11115939521E+01  0.19571681272E+02  0.20625645239E+02  0.51100000000E-03 0.  1.
        -11    1    3    3    0    0 -0.77076475501E+01 -0.17724519612E+01 -0.11897907013E+02  0.14286693399E+02  0.51100000000E-03 0. -1.
        -12    1    3    3    0    0 -0.10194967731E+02  0.25308508078E+01  0.22011586303E+02  0.24389598284E+02  0.00000000000E+00 0.  1.
</event>
<event>
 7    1  0.7674040E-012  0.5930198E+02  0.7816164E-02  0.1266605E+00
        -11   -1    0    0    0    0  0.00000000000E+00  0.00000000000E+00  0.45593999997E+02  0.45594000000E+02  0.51100000000E-03 0.  1.
         11   -1    0    0    0    0 -0.00000000000E+00 -0.00000000000E+00 -0.45593999997E+02  0.45594000000E+02  0.51100000000E-03 0. -1.
    9900012    2    1    2    0    0 -0.27172900336E+02  0.16386269576E+02 -0.31371503079E+01  0.59301983389E+02  0.50000071786E+02 0.  0.
         12    1    1    2    0    0  0.27172900336E+02 -0.16386269576E+02  0.31371503079E+01  0.31886016611E+02  0.00000000000E+00 0. -1.
         11    1    3    3    0    0  0.23654923007E+00  0.14484767640E+02 -0.94246539005E+01  0.17282608326E+02  0.51100000000E-03 0. -1.
        -11    1    3    3    0    0 -0.21652292460E+02  0.11087080815E+02  0.14589071360E+02  0.28365227536E+02  0.51100000000E-03 0.  1.
         12    1    3    3    0    0 -0.57571571055E+01 -0.91855788796E+01 -0.83015677676E+01  0.13654147527E+02  0.00000000000E+00 0. -1.
</event>
<event>
 7    1  0.7674040E-012  0.5930195E+02  0.7816164E-02  0.1266605E+00
        -11   -1    0    0    0    0  0.00000000000E+00  0.00000000000E+00  0.45593999997E+02  0.45594000000E+02  0.51100000000E-03 0. -1.
         11   -1    0    0    0    0 -0.00000000000E+00 -0.00000000000E+00 -0.45593999997E+02  0.45594000000E+02  0.51100000000E-03 0.  1.
    9900012    2    1    2    0    0  0.10987256255E+02  0.42410929992E+01 -0.29631287763E+02  0.59301954708E+02  0.50000019479E+02 0.  0.
         12    1    1    2    0    0 -0.10987256255E+02 -0.42410929992E+01  0.29631287763E+02  0.31886045292E+02  0.00000000000E+00 0. -1.
         11    1    3    3    0    0 -0.45894463484E+01 -0.50840266201E+01  0.10528513433E+00  0.68499218739E+01  0.51100000000E-03 0. -1.
        -11    1    3    3    0    0  0.13208204756E+02  0.10781142177E+02 -0.39115444790E+02  0.42669751826E+02  0.51100000000E-03 0.  1.
        -12    1    3    3    0    0  0.23684978473E+01 -0.14560225577E+01  0.93788718926E+01  0.97822810079E+01  0.00000000000E+00 0.  1.
</event>
<event>
 7    1  0.7674040E-012  0.5930195E+02  0.7816164E-02  0.1266605E+00
        -11   -1    0    0    0    0  0.00000000000E+00  0.00000000000E+00  0.45593999997E+02  0.45594000000E+02  0.51100000000E-03 0. -1.
         11   -1    0    0    0    0 -0.00000000000E+00 -0.00000000000E+00 -0.45593999997E+02  0.45594000000E+02  0.51100000000E-03 0.  1.
    9900012    2    1    2    0    0 -0.11693889857E+02 -0.14789680009E+02 -0.25714560744E+02  0.59301947736E+02  0.50000006762E+02 0.  0.
         12    1    1    2    0    0  0.11693889857E+02  0.14789680009E+02  0.25714560744E+02  0.31886052264E+02  0.00000000000E+00 0. -1.
         11    1    3    3    0    0 -0.20491340933E+02  0.48014828984E+01 -0.16132554689E+02  0.26518080857E+02  0.51100000000E-03 0. -1.
        -11    1    3    3    0    0 -0.59838796719E+01 -0.81064043907E+01  0.26557061257E+01  0.10419855247E+02  0.51100000000E-03 0.  1.
         12    1    3    3    0    0  0.14781330748E+02 -0.11484758517E+02 -0.12237712180E+02  0.22364011632E+02  0.00000000000E+00 0. -1.
</event>
<event>
 7    1  0.7674040E-012  0.5930194E+02  0.7816164E-02  0.1266605E+00
        -11   -1    0    0    0    0  0.00000000000E+00  0.00000000000E+00  0.45593999997E+02  0.45594000000E+02  0.51100000000E-03 0.  1.
         11   -1    0    0    0    0 -0.00000000000E+00 -0.00000000000E+00 -0.45593999997E+02  0.45594000000E+02  0.51100000000E-03 0. -1.
    9900012    2    1    2    0    0 -0.47836953633E+01 -0.28229828649E+01  0.31398530225E+02  0.59301942327E+02  0.49999996899E+02 0.  0.
         12    1    1    2    0    0  0.47836953633E+01  0.28229828649E+01 -0.31398530225E+02  0.31886057673E+02  0.00000000000E+00 0. -1.
         11    1    3    3    0    0 -0.60139398157E+01 -0.17873138275E+02  0.22283626356E+02  0.29192063095E+02  0.51100000000E-03 0. -1.
        -11    1    3    3    0    0 -0.75991532070E+00  0.93731247031E+01 -0.77615958734E+01  0.12193248491E+02  0.51100000000E-03 0.  1.
        -12    1    3    3    0    0  0.19901597731E+01  0.56770307069E+01  0.16876499743E+02  0.17916630742E+02  0.00000000000E+00 0.  1.
</event>
<event>
 7    1  0.7674040E-012  0.5930195E+02  0.7816164E-02  0.1266605E+00
        -11   -1    0    0    0    0  0.00000000000E+00  0.00000000000E+00  0.45593999997E+02  0.45594000000E+02  0.51100000000E-03 0. -1.
         11   -1    0    0    0    0 -0.00000000000E+00 -0.00000000000E+00 -0.45593999997E+02  0.45594000000E+02  0.51100000000E-03 0.  1.
    9900012    2    1    2    0    0 -0.27346075538E+02 -0.10376561988E+02 -0.12697991749E+02  0.59301954769E+02  0.50000019590E+02 0.  0.
         12    1    1    2    0    0  0.27346075538E+02  0.10376561988E+02  0.12697991749E+02  0.31886045231E+02  0.00000000000E+00 0. -1.
         11    1    3    3    0    0  0.65281749057E+01 -0.25968129267E+01  0.89149507088E+01  0.11350632202E+02  0.51100000000E-03 0.  1.
        -11    1    3    3    0    0 -0.23580769984E+02  0.20117132691E+01 -0.20236414998E+01  0.23752785700E+02  0.51100000000E-03 0. -1.
        -12    1    3    3    0    0 -0.10293480460E+02 -0.97914623306E+01 -0.19589300958E+02  0.24198536868E+02  0.00000000000E+00 0.  1.
</event>
<event>
 7    1  0.7674040E-012  0.5930195E+02  0.7816164E-02  0.1266605E+00
        -11   -1    0    0    0    0  0.00000000000E+00  0.00000000000E+00  0.45593999997E+02  0.45594000000E+02  0.51100000000E-03 0. -1.
         11   -1    0    0    0    0 -0.00000000000E+00 -0.00000000000E+00 -0.45593999997E+02  0.45594000000E+02  0.51100000000E-03 0.  1.
    9900012    2    1    2    0    0 -0.19089591416E+02  0.23383871172E+02 -0.10271432437E+02  0.59301948884E+02  0.50000008858E+02 0.  0.
         12    1    1    2    0    0  0.19089591416E+02 -0.23383871172E+02  0.10271432437E+02  0.31886051116E+02  0.00000000000E+00 0. -1.
         11    1    3    3    0    0  0.83729549272E+01  0.38399255253E+01  0.25686467226E+01  0.95629152720E+01  0.51100000000E-03 0. -1.
        -11    1    3    3    0    0 -0.33236253408E+02  0.66644966891E+01 -0.99958316522E+01  0.35340921145E+02  0.51100000000E-03 0.  1.
        -12    1    3    3    0    0  0.57737070647E+01  0.12879448958E+02 -0.28442475071E+01  0.14398112467E+02  0.00000000000E+00 0.  1.
</event>
<event>
 7    1  0.7674040E-012  0.5930192E+02  0.7816164E-02  0.1266605E+00
        -11   -1    0    0    0    0  0.00000000000E+00  0.00000000000E+00  0.45593999997E+02  0.45594000000E+02  0.51100000000E-03 0.  1.
         11   -1    0    0    0    0 -0.00000000000E+00 -0.00000000000E+00 -0.45593999997E+02  0.45594000000E+02  0.51100000000E-03 0. -1.
    9900012    2    1    2    0    0  0.22456627126E+02 -0.12692691102E+02  0.18743468068E+02  0.59301919894E+02  0.49999955986E+02 0.  0.
         12    1    1    2    0    0 -0.22456627126E+02  0.12692691102E+02 -0.18743468068E+02  0.31886080106E+02  0.00000000000E+00 0. -1.
         11    1    3    3    0    0  0.62475061335E+01 -0.29359718947E+02  0.60254807296E+01  0.30615859417E+02  0.51100000000E-03 0. -1.
        -11    1    3    3    0    0  0.44830425724E+01  0.16064387905E-01  0.54626838139E+01  0.70667420699E+01  0.51100000000E-03 0.  1.
         12    1    3    3    0    0  0.11726078420E+02  0.16650963457E+02  0.72553035242E+01  0.21619318407E+02  0.00000000000E+00 0. -1.
</event>
<event>
 7    1  0.7674040E-012  0.5930186E+02  0.7816164E-02  0.1266605E+00
        -11   -1    0    0    0    0  0.00000000000E+00  0.00000000000E+00  0.45593999997E+02  0.45594000000E+02  0.51100000000E-03 0. -1.
         11   -1    0    0    0    0 -0.00000000000E+00 -0.00000000000E+00 -0.45593999997E+02  0.45594000000E+02  0.51100000000E-03 0.  1.
    9900012    2    1    2    0    0  0.10722972590E+02  0.25031033643E+02 -0.16588881695E+02  0.59301862224E+02  0.49999850809E+02 0.  0.
         12    1    1    2    0    0 -0.10722972590E+02 -0.25031033643E+02  0.16588881695E+02  0.31886137776E+02  0.00000000000E+00 0. -1.
         11    1    3    3    0    0  0.20801913280E+02  0.19748004709E+02  0.68955623207E+01  0.29500035018E+02  0.51100000000E-03 0. -1.
        -11    1    3    3    0    0 -0.69654528058E+00  0.80741778170E+01 -0.13973143535E+02  0.16153212165E+02  0.51100000000E-03 0.  1.
         12    1    3    3    0    0 -0.93823954088E+01 -0.27911488829E+01 -0.95113004806E+01  0.13648615041E+02  0.00000000000E+00 0. -1.
</event>
<event>
 7    1  0.7674040E-012  0.5930199E+02  0.7816164E-02  0.1266605E+00
        -11   -1    0    0    0    0  0.00000000000E+00  0.00000000000E+00  0.45593999997E+02  0.45594000000E+02  0.51100000000E-03 0.  1.
         11   -1    0    0    0    0 -0.00000000000E+00 -0.00000000000E+00 -0.45593999997E+02  0.45594000000E+02  0.51100000000E-03 0. -1.
    9900012    2    1    2    0    0 -0.10733789822E+02 -0.15196227468E+02  0.25895518472E+02  0.59301992879E+02  0.50000089093E+02 0.  0.
         12    1    1    2    0    0  0.10733789822E+02  0.15196227468E+02 -0.25895518472E+02  0.31886007121E+02  0.00000000000E+00 0. -1.
         11    1    3    3    0    0  0.13499459144E+02 -0.10324657898E+02 -0.63574087779E+01  0.18145263970E+02  0.51100000000E-03 0. -1.
        -11    1    3    3    0    0 -0.34325100813E+01 -0.29084067985E+01  0.40170466199E+01  0.60313861898E+01  0.51100000000E-03 0.  1.
         12    1    3    3    0    0 -0.20800738885E+02 -0.19631627712E+01  0.28235880630E+02  0.35125342719E+02  0.00000000000E+00 0. -1.
</event>
<event>
 7    1  0.7674040E-012  0.5930195E+02  0.7816164E-02  0.1266605E+00
        -11   -1    0    0    0    0  0.00000000000E+00  0.00000000000E+00  0.45593999997E+02  0.45594000000E+02  0.51100000000E-03 0.  1.
         11   -1    0    0    0    0 -0.00000000000E+00 -0.00000000000E+00 -0.45593999997E+02  0.45594000000E+02  0.51100000000E-03 0. -1.
    9900012    2    1    2    0    0  0.18242147940E+02 -0.73971634417E+01  0.25084387173E+02  0.59301945552E+02  0.50000002779E+02 0.  0.
         12    1    1    2    0    0 -0.18242147940E+02  0.73971634417E+01 -0.25084387173E+02  0.31886054448E+02  0.00000000000E+00 0. -1.
         11    1    3    3    0    0  0.10545998600E+01  0.16618118602E+02  0.59486520629E+01  0.17682208809E+02  0.51100000000E-03 0. -1.
        -11    1    3    3    0    0  0.19560130442E+02 -0.12029916883E+02  0.18317759752E+02  0.29374443411E+02  0.51100000000E-03 0.  1.
         12    1    3    3    0    0 -0.23725823621E+01 -0.11985365160E+02  0.81797535823E+00  0.12245293332E+02  0.00000000000E+00 0. -1.
</event>
<event>
 7    1  0.7674040E-012  0.5930194E+02  0.7816164E-02  0.1266605E+00
        -11   -1    0    0    0    0  0.00000000000E+00  0.00000000000E+00  0.45593999997E+02  0.45594000000E+02  0.51100000000E-03 0. -1.
         11   -1    0    0    0    0 -0.00000000000E+00 -0.00000000000E+00 -0.45593999997E+02  0.45594000000E+02  0.51100000000E-03 0.  1.
    9900012    2    1    2    0    0  0.26236618107E+02  0.16458426399E+01 -0.18045827678E+02  0.59301939969E+02  0.49999992598E+02 0.  0.
         12    1    1    2    0    0 -0.26236618107E+02 -0.16458426399E+01  0.18045827678E+02  0.31886060031E+02  0.00000000000E+00 0. -1.
         11    1    3    3    0    0  0.99082470606E+01  0.92186080824E+01 -0.51920766714E+01  0.14495301143E+02  0.51100000000E-03 0. -1.
        -11    1    3    3    0    0 -0.11868261760E+00 -0.13931723223E+02  0.91054075601E+01  0.16643780959E+02  0.51100000000E-03 0.  1.
        -12    1    3    3    0    0  0.16447053664E+02  0.63589577805E+01 -0.21959158567E+02  0.28162857867E+02  0.00000000000E+00 0.  1.
</event>
<event>
 7    1  0.7674040E-012  0.5930192E+02  0.7816164E-02  0.1266605E+00
        -11   -1    0    0    0    0  0.00000000000E+00  0.00000000000E+00  0.45593999997E+02  0.45594000000E+02  0.51100000000E-03 0.  1.
         11   -1    0    0    0    0 -0.00000000000E+00 -0.00000000000E+00 -0.45593999997E+02  0.45594000000E+02  0.51100000000E-03 0. -1.
    9900012    2    1    2    0    0 -0.88923929948E+01 -0.13874037910E+02  0.27297586262E+02  0.59301924719E+02  0.49999964785E+02 0.  0.
         12    1    1    2    0    0  0.88923929948E+01  0.13874037910E+02 -0.27297586262E+02  0.31886075281E+02  0.00000000000E+00 0. -1.
         11    1    3    3    0    0  0.66243965044E+01  0.83101212826E+01  0.18719801279E+01  0.10790970978E+02  0.51100000000E-03 0. -1.
        -11    1    3    3    0    0 -0.23600808498E+02 -0.95165955291E+01  0.20561633763E+02  0.32716120422E+02  0.51100000000E-03 0.  1.
        -12    1    3    3    0    0  0.80840189987E+01 -0.12667563664E+02  0.48639723707E+01  0.15794833319E+02  0.00000000000E+00 0.  1.
</event>
<event>
 7    1  0.7674040E-012  0.5930195E+02  0.7816164E-02  0.1266605E+00
        -11   -1    0    0    0    0  0.00000000000E+00  0.00000000000E+00  0.45593999997E+02  0.45594000000E+02  0.51100000000E-03 0. -1.
         11   -1    0    0    0    0 -0.00000000000E+00 -0.00000000000E+00 -0.45593999997E+02  0.45594000000E+02  0.51100000000E-03 0.  1.
    9900012    2    1    2    0    0 -0.95261885661E+01 -0.30343900040E+02 -0.22846806288E+01  0.59301948130E+02  0.50000007482E+02 0.  0.
         12    1    1    2    0    0  0.95261885661E+01  0.30343900040E+02  0.22846806288E+01  0.31886051870E+02  0.00000000000E+00 0. -1.
         11    1    3    3    0    0  0.16997052218E+02 -0.13985980403E+01 -0.58891527644E+01  0.18042671120E+02  0.51100000000E-03 0. -1.
        -11    1    3    3    0    0 -0.57651236463E+01 -0.15044929234E+02  0.17968535798E+01  0.16211577017E+02  0.51100000000E-03 0.  1.
         12    1    3    3    0    0 -0.20758117138E+02 -0.13900372766E+02  0.18076185558E+01  0.25047699994E+02  0.00000000000E+00 0. -1.
</event>
<event>
 7    1  0.7674040E-012  0.5930200E+02  0.7816164E-02  0.1266605E+00
        -11   -1    0    0    0    0  0.00000000000E+00  0.00000000000E+00  0.45593999997E+02  0.45594000000E+02  0.51100000000E-03 0.  1.
         11   -1    0    0    0    0 -0.00000000000E+00 -0.00000000000E+00 -0.45593999997E+02  0.45594000000E+02  0.51100000000E-03 0. -1.
    9900012    2    1    2    0    0  0.27408203400E+02 -0.65333120803E+01  0.14927262355E+02  0.59302000851E+02  0.50000103631E+02 0.  0.
         12    1    1    2    0    0 -0.27408203400E+02  0.65333120803E+01 -0.14927262355E+02  0.31885999149E+02  0.00000000000E+00 0. -1.
         11    1    3    3    0    0 -0.39170224796E+01  0.12220671190E+02 -0.55980435249E+01  0.14000927148E+02  0.51100000000E-03 0. -1.
        -11    1    3    3    0    0  0.13279060749E+02 -0.11465170361E+02  0.18874272037E+02  0.25768619113E+02  0.51100000000E-03 0.  1.
        -12    1    3    3    0    0  0.18046165131E+02 -0.72888129093E+01  0.16510338428E+01  0.19532454590E+02  0.00000000000E+00 0.  1.
</event>
<event>
 7    1  0.7674040E-012  0.5930193E+02  0.7816164E-02  0.1266605E+00
        -11   -1    0    0    0    0  0.00000000000E+00  0.00000000000E+00  0.45593999997E+02  0.45594000000E+02  0.51100000000E-03 0.  1.
         11   -1    0    0    0    0 -0.00000000000E+00 -0.00000000000E+00 -0.45593999997E+02  0.45594000000E+02  0.51100000000E-03 0. -1.
    9900012    2    1    2    0    0  0.12585483736E+02 -0.21081245064E+02  0.20344740841E+02  0.59301925074E+02  0.49999965432E+02 0.  0.
         12    1    1    2    0    0 -0.12585483736E+02  0.21081245064E+02 -0.20344740841E+02  0.31886074926E+02  0.00000000000E+00 0. -1.
         11    1    3    3    0    0  0.19640183091E+02 -0.74661322894E+01  0.16201379290E+02  0.26532331491E+02  0.51100000000E-03 0. -1.
        -11    1    3    3    0    0 -0.66471112914E+00 -0.13538506672E+02 -0.10268043228E+02  0.17004873295E+02  0.51100000000E-03 0.  1.
        -12    1    3    3    0    0 -0.63899882255E+01 -0.76606102682E-01  0.14411404780E+02  0.15764720287E+02  0.00000000000E+00 0.  1.
</event>
<event>
 7    1  0.7674040E-012  0.5930194E+02  0.7816164E-02  0.1266605E+00
        -11   -1    0    0    0    0  0.00000000000E+00  0.00000000000E+00  0.45593999997E+02  0.45594000000E+02  0.51100000000E-03 0. -1.
         11   -1    0    0    0    0 -0.00000000000E+00 -0.00000000000E+00 -0.45593999997E+02  0.45594000000E+02  0.51100000000E-03 0.  1.
    9900012    2    1    2    0    0 -0.17942621437E+02 -0.20002826047E+02 -0.17165960088E+02  0.59301938787E+02  0.49999990443E+02 0.  0.
         12    1    1    2    0    0  0.17942621437E+02  0.20002826047E+02  0.17165960088E+02  0.31886061213E+02  0.00000000000E+00 0. -1.
         11    1    3    3    0    0  0.56544502813E+01 -0.15119133683E+02  0.23069124341E+01  0.16305914772E+02  0.51100000000E-03 0. -1.
        -11    1    3    3    0    0 -0.27735009222E+02  0.28926013024E+00 -0.65882197413E+01  0.28508227717E+02  0.51100000000E-03 0.  1.
        -12    1    3    3    0    0  0.41379375031E+01 -0.51729524943E+01 -0.12884652781E+02  0.14487796298E+02  0.00000000000E+00 0.  1.
</event>
<event>
 7    1  0.7674040E-012  0.5930193E+02  0.7816164E-02  0.1266605E+00
        -11   -1    0    0    0    0  0.00000000000E+00  0.00000000000E+00  0.45593999997E+02  0.45594000000E+02  0.51100000000E-03 0.  1.
         11   -1    0    0    0    0 -0.00000000000E+00 -0.00000000000E+00 -0.45593999997E+02  0.45594000000E+02  0.51100000000E-03 0. -1.
    9900012    2    1    2    0    0  0.15561011137E+02 -0.11308828019E+02  0.25430032264E+02  0.59301934082E+02  0.49999981861E+02 0.  0.
         12    1    1    2    0    0 -0.15561011137E+02  0.11308828019E+02 -0.25430032264E+02  0.31886065918E+02  0.00000000000E+00 0. -1.
         11    1    3    3    0    0  0.65291482794E+01 -0.10228818455E+02 -0.12372847496E+02  0.17330489309E+02  0.51100000000E-03 0. -1.
        -11    1    3    3    0    0 -0.31037843585E+01 -0.38327043907E+01  0.17285609786E+02  0.17975411156E+02  0.51100000000E-03 0.  1.
         12    1    3    3    0    0  0.12135647216E+02  0.27526948266E+01  0.20517269975E+02  0.23996033617E+02  0.00000000000E+00 0. -1.
</event>
<event>
 7    1  0.7674040E-012  0.5930194E+02  0.7816164E-02  0.1266605E+00
        -11   -1    0    0    0    0  0.00000000000E+00  0.00000000000E+00  0.45593999997E+02  0.45594000000E+02  0.51100000000E-03 0.  1.
         11   -1    0    0    0    0 -0.00000000000E+00 -0.00000000000E+00 -0.45593999997E+02  0.45594000000E+02  0.51100000000E-03 0. -1.
    9900012    2    1    2    0    0 -0.44961442467E+01 -0.27723795042E+02  0.15096242729E+02  0.59301942402E+02  0.49999997036E+02 0.  0.
         12    1    1    2    0    0  0.44961442467E+01  0.27723795042E+02 -0.15096242729E+02  0.31886057598E+02  0.00000000000E+00 0. -1.
         11    1    3    3    0    0 -0.14657620113E+02 -0.12603214266E+02  0.18722111533E+01  0.19421431772E+02  0.51100000000E-03 0. -1.
        -11    1    3    3    0    0  0.51466123675E+01 -0.94413221438E+01  0.24235750512E+02  0.26514105412E+02  0.51100000000E-03 0.  1.
        -12    1    3    3    0    0  0.50148634991E+01 -0.56792586314E+01 -0.11011718936E+02  0.13366405218E+02  0.00000000000E+00 0.  1.
</event>
<event>
 7    1  0.7674040E-012  0.5930193E+02  0.7816164E-02  0.1266605E+00
        -11   -1    0    0    0    0  0.00000000000E+00  0.00000000000E+00  0.45593999997E+02  0.45594000000E+02  0.51100000000E-03 0.  1.
         11   -1    0    0    0    0 -0.00000000000E+00 -0.00000000000E+00 -0.45593999997E+02  0.45594000000E+02  0.51100000000E-03 0. -1.
    9900012    2    1    2    0    0 -0.13011290395E+02  0.15346392557E+01  0.29070131535E+02  0.59301931837E+02  0.49999977768E+02 0.  0.
         12    1    1    2    0    0  0.13011290395E+02 -0.15346392557E+01 -0.29070131535E+02  0.31886068163E+02  0.00000000000E+00 0. -1.
         11    1    3    3    0    0 -0.80725229590E+01 -0.23038067784E+02  0.10072087695E+02  0.26407672085E+02  0.51100000000E-03 0. -1.
        -11    1    3    3    0    0  0.12877716900E+01  0.89068917656E+01  0.25786694117E+01  0.93616565332E+01  0.51100000000E-03 0.  1.
         12    1    3    3    0    0 -0.62265391258E+01  0.15665815274E+02  0.16419374428E+02  0.23532603220E+02  0.00000000000E+00 0. -1.
</event>
<event>
 7    1  0.7674040E-012  0.5930197E+02  0.7816164E-02  0.1266605E+00
        -11   -1    0    0    0    0  0.00000000000E+00  0.00000000000E+00  0.45593999997E+02  0.45594000000E+02  0.51100000000E-03 0.  1.
         11   -1    0    0    0    0 -0.00000000000E+00 -0.00000000000E+00 -0.45593999997E+02  0.45594000000E+02  0.51100000000E-03 0. -1.
    9900012    2    1    2    0    0 -0.15627981923E+02  0.32393589457E+01  0.27604196052E+02  0.59301970064E+02  0.50000047485E+02 0.  0.
         12    1    1    2    0    0  0.15627981923E+02 -0.32393589457E+01 -0.27604196052E+02  0.31886029936E+02  0.00000000000E+00 0. -1.
         11    1    3    3    0    0 -0.53204471450E+01 -0.89091891622E+01  0.94396637764E+01  0.14028116831E+02  0.51100000000E-03 0. -1.
        -11    1    3    3    0    0  0.61802513797E+01  0.18375534866E+01 -0.94859855655E+01  0.11469787807E+02  0.51100000000E-03 0.  1.
        -12    1    3    3    0    0 -0.16487786158E+02  0.10310994621E+02  0.27650517841E+02  0.33804065426E+02  0.00000000000E+00 0.  1.
</event>
<event>
 7    1  0.7674040E-012  0.5930193E+02  0.7816164E-02  0.1266605E+00
        -11   -1    0    0    0    0  0.00000000000E+00  0.00000000000E+00  0.45593999997E+02  0.45594000000E+02  0.51100000000E-03 0.  1.
         11   -1    0    0    0    0 -0.00000000000E+00 -0.00000000000E+00 -0.45593999997E+02  0.45594000000E+02  0.51100000000E-03 0. -1.
    9900012    2    1    2    0    0 -0.13824076312E+02  0.23406750968E+02  0.16665538935E+02  0.59301933063E+02  0.49999980002E+02 0.  0.
         12    1    1    2    0    0  0.13824076312E+02 -0.23406750968E+02 -0.16665538935E+02  0.31886066937E+02  0.00000000000E+00 0. -1.
         11    1    3    3    0    0 -0.19008364620E+02  0.26665069762E+02 -0.75439326540E+01  0.33604386486E+02  0.51100000000E-03 0.  1.
        -11    1    3    3    0    0  0.12596059878E+00 -0.19346097195E+00  0.13183062123E+02  0.13185083254E+02  0.51100000000E-03 0. -1.
        -12    1    3    3    0    0  0.50583277099E+01 -0.30648578222E+01  0.11026409466E+02  0.12512463323E+02  0.00000000000E+00 0.  1.
</event>
<event>
 7    1  0.7674040E-012  0.5930185E+02  0.7816164E-02  0.1266605E+00
        -11   -1    0    0    0    0  0.00000000000E+00  0.00000000000E+00  0.45593999997E+02  0.45594000000E+02  0.51100000000E-03 0.  1.
         11   -1    0    0    0    0 -0.00000000000E+00 -0.00000000000E+00 -0.45593999997E+02  0.45594000000E+02  0.51100000000E-03 0. -1.
    9900012    2    1    2    0    0  0.38614536732E+01 -0.13119534839E+02  0.28804406513E+02  0.59301845427E+02  0.49999820176E+02 0.  0.
         12    1    1    2    0    0 -0.38614536732E+01  0.13119534839E+02 -0.28804406513E+02  0.31886154573E+02  0.00000000000E+00 0. -1.
         11    1    3    3    0    0 -0.15003550688E+02  0.98742190944E+01  0.17479522175E+02  0.25062729933E+02  0.51100000000E-03 0.  1.
        -11    1    3    3    0    0  0.12661904275E+02 -0.20203520647E+02  0.38835227213E+01  0.24157562281E+02  0.51100000000E-03 0. -1.
        -12    1    3    3    0    0  0.62031000858E+01 -0.27902332867E+01  0.74413616171E+01  0.10081553213E+02  0.00000000000E+00 0.  1.
</event>
<event>
 7    1  0.7674040E-012  0.5930221E+02  0.7816164E-02  0.1266604E+00
        -11   -1    0    0    0    0  0.00000000000E+00  0.00000000000E+00  0.45593999997E+02  0.45594000000E+02  0.51100000000E-03 0.  1.
         11   -1    0    0    0    0 -0.00000000000E+00 -0.00000000000E+00 -0.45593999997E+02  0.45594000000E+02  0.51100000000E-03 0. -1.
    9900012    2    1    2    0    0  0.27234974841E+02  0.16573267833E+02 -0.53511042008E+00  0.59302213129E+02  0.50000490773E+02 0.  0.
         12    1    1    2    0    0 -0.27234974841E+02 -0.16573267833E+02  0.53511042008E+00  0.31885786871E+02  0.00000000000E+00 0. -1.
         11    1    3    3    0    0  0.12602263326E+01  0.23424242527E+02  0.73059690296E+00  0.23469492548E+02  0.51100000000E-03 0. -1.
        -11    1    3    3    0    0  0.28707602577E+02 -0.38228622256E+01 -0.60078949957E+01  0.29577618630E+02  0.51100000000E-03 0.  1.
        -12    1    3    3    0    0 -0.27328540683E+01 -0.30281124688E+01  0.47421876727E+01  0.62551019500E+01  0.00000000000E+00 0.  1.
</event>
<event>
 7    1  0.7674040E-012  0.5930201E+02  0.7816164E-02  0.1266605E+00
        -11   -1    0    0    0    0  0.00000000000E+00  0.00000000000E+00  0.45593999997E+02  0.45594000000E+02  0.51100000000E-03 0.  1.
         11   -1    0    0    0    0 -0.00000000000E+00 -0.00000000000E+00 -0.45593999997E+02  0.45594000000E+02  0.51100000000E-03 0. -1.
    9900012    2    1    2    0    0  0.17806266207E+02 -0.12186200865E+02  0.23476575684E+02  0.59302012269E+02  0.50000124455E+02 0.  0.
         12    1    1    2    0    0 -0.17806266207E+02  0.12186200865E+02 -0.23476575684E+02  0.31885987731E+02  0.00000000000E+00 0. -1.
         11    1    3    3    0    0  0.40615380752E+01 -0.27889340015E+02  0.32626637057E+01  0.28371752725E+02  0.51100000000E-03 0. -1.
        -11    1    3    3    0    0  0.15057783340E+02  0.11970623375E+02  0.18237605803E+02  0.26507412714E+02  0.51100000000E-03 0.  1.
        -12    1    3    3    0    0 -0.13130552079E+01  0.37325157741E+01  0.19763061748E+01  0.44228468298E+01  0.00000000000E+00 0.  1.
</event>
<event>
 7    1  0.7674040E-012  0.5930194E+02  0.7816164E-02  0.1266605E+00
        -11   -1    0    0    0    0  0.00000000000E+00  0.00000000000E+00  0.45593999997E+02  0.45594000000E+02  0.51100000000E-03 0.  1.
         11   -1    0    0    0    0 -0.00000000000E+00 -0.00000000000E+00 -0.45593999997E+02  0.45594000000E+02  0.51100000000E-03 0. -1.
    9900012    2    1    2    0    0  0.21983899834E+02  0.14018637464E+02 -0.18355012781E+02  0.59301944389E+02  0.50000000658E+02 0.  0.
         12    1    1    2    0    0 -0.21983899834E+02 -0.14018637464E+02  0.18355012781E+02  0.31886055611E+02  0.00000000000E+00 0. -1.
         11    1    3    3    0    0  0.22899633168E+02 -0.12121514996E+02  0.17920881515E+01  0.25971829070E+02  0.51100000000E-03 0. -1.
        -11    1    3    3    0    0  0.81904633968E+00  0.14499585841E+02 -0.87947971785E+01  0.16978141363E+02  0.51100000000E-03 0.  1.
         12    1    3    3    0    0 -0.17347796737E+01  0.11640566619E+02 -0.11352303754E+02  0.16351973956E+02  0.00000000000E+00 0. -1.
</event>
<event>
 7    1  0.7674040E-012  0.5930193E+02  0.7816164E-02  0.1266605E+00
        -11   -1    0    0    0    0  0.00000000000E+00  0.00000000000E+00  0.45593999997E+02  0.45594000000E+02  0.51100000000E-03 0. -1.
         11   -1    0    0    0    0 -0.00000000000E+00 -0.00000000000E+00 -0.45593999997E+02  0.45594000000E+02  0.51100000000E-03 0.  1.
    9900012    2    1    2    0    0  0.19370598803E+00 -0.45683368225E-01 -0.31885448699E+02  0.59301930193E+02  0.49999974770E+02 0.  0.
         12    1    1    2    0    0 -0.19370598803E+00  0.45683368225E-01  0.31885448699E+02  0.31886069807E+02  0.00000000000E+00 0. -1.
         11    1    3    3    0    0 -0.16025089682E+01 -0.88918855899E+01  0.65961129265E+01  0.11186705071E+02  0.51100000000E-03 0. -1.
        -11    1    3    3    0    0  0.68661187065E+01  0.17458819957E+02 -0.22892162140E+02  0.29597382792E+02  0.51100000000E-03 0.  1.
         12    1    3    3    0    0 -0.50699037503E+01 -0.86126177358E+01 -0.15589399485E+02  0.18517842331E+02  0.00000000000E+00 0. -1.
</event>
<event>
 7    1  0.7674040E-012  0.5930194E+02  0.7816164E-02  0.1266605E+00
        -11   -1    0    0    0    0  0.00000000000E+00  0.00000000000E+00  0.45593999997E+02  0.45594000000E+02  0.51100000000E-03 0. -1.
         11   -1    0    0    0    0 -0.00000000000E+00 -0.00000000000E+00 -0.45593999997E+02  0.45594000000E+02  0.51100000000E-03 0.  1.
    9900012    2    1    2    0    0  0.42867018752E+00 -0.93386291955E+01 -0.30484866192E+02  0.59301940034E+02  0.49999992717E+02 0.  0.
         12    1    1    2    0    0 -0.42867018752E+00  0.93386291955E+01  0.30484866192E+02  0.31886059966E+02  0.00000000000E+00 0. -1.
         11    1    3    3    0    0 -0.70432772895E+01 -0.40096916269E+01  0.33833955266E+01  0.87825251192E+01  0.51100000000E-03 0. -1.
        -11    1    3    3    0    0  0.21611233718E+02 -0.49544927795E+01 -0.14333108034E+02  0.26401333445E+02  0.51100000000E-03 0.  1.
        -12    1    3    3    0    0 -0.14139286241E+02 -0.37444478910E+00 -0.19535153685E+02  0.24118081470E+02  0.00000000000E+00 0.  1.
</event>
<event>
 7    1  0.7674040E-012  0.5930195E+02  0.7816164E-02  0.1266605E+00
        -11   -1    0    0    0    0  0.00000000000E+00  0.00000000000E+00  0.45593999997E+02  0.45594000000E+02  0.51100000000E-03 0. -1.
         11   -1    0    0    0    0 -0.00000000000E+00 -0.00000000000E+00 -0.45593999997E+02  0.45594000000E+02  0.51100000000E-03 0.  1.
    9900012    2    1    2    0    0 -0.38282448951E+01  0.13439332714E+02 -0.28660934399E+02  0.59301948451E+02  0.50000008067E+02 0.  0.
         12    1    1    2    0    0  0.38282448951E+01 -0.13439332714E+02  0.28660934399E+02  0.31886051549E+02  0.00000000000E+00 0. -1.
         11    1    3    3    0    0 -0.51827261078E+01  0.85949187262E+01  0.33268359986E+01  0.10573604676E+02  0.51100000000E-03 0. -1.
        -11    1    3    3    0    0  0.11417581249E+02 -0.43386929576E+01 -0.32880470014E+02  0.35075785476E+02  0.51100000000E-03 0.  1.
        -12    1    3    3    0    0 -0.10063100036E+02  0.91831069457E+01  0.89269961656E+00  0.13652558299E+02  0.00000000000E+00 0.  1.
</event>
<event>
 7    1  0.7674040E-012  0.5930196E+02  0.7816164E-02  0.1266605E+00
        -11   -1    0    0    0    0  0.00000000000E+00  0.00000000000E+00  0.45593999997E+02  0.45594000000E+02  0.51100000000E-03 0. -1.
         11   -1    0    0    0    0 -0.00000000000E+00 -0.00000000000E+00 -0.45593999997E+02  0.45594000000E+02  0.51100000000E-03 0.  1.
    9900012    2    1    2    0    0  0.18912003584E+02  0.11952322170E+01 -0.25644240727E+02  0.59301960075E+02  0.50000029267E+02 0.  0.
         12    1    1    2    0    0 -0.18912003584E+02 -0.11952322170E+01  0.25644240727E+02  0.31886039925E+02  0.00000000000E+00 0. -1.
         11    1    3    3    0    0  0.17432214200E+02  0.14340624923E+01  0.11909325603E+02  0.21160592235E+02  0.51100000000E-03 0. -1.
        -11    1    3    3    0    0  0.19061226684E+01 -0.10387306181E+01 -0.38053130052E+01  0.43809442193E+01  0.51100000000E-03 0.  1.
         12    1    3    3    0    0 -0.42633328349E+00  0.79990034276E+00 -0.33748253325E+02  0.33760423621E+02  0.00000000000E+00 0. -1.
</event>
<event>
 7    1  0.7674040E-012  0.5930195E+02  0.7816164E-02  0.1266605E+00
        -11   -1    0    0    0    0  0.00000000000E+00  0.00000000000E+00  0.45593999997E+02  0.45594000000E+02  0.51100000000E-03 0.  1.
         11   -1    0    0    0    0 -0.00000000000E+00 -0.00000000000E+00 -0.45593999997E+02  0.45594000000E+02  0.51100000000E-03 0. -1.
    9900012    2    1    2    0    0 -0.13864902066E+02  0.13581093468E+02  0.25298987264E+02  0.59301947160E+02  0.50000005713E+02 0.  0.
         12    1    1    2    0    0  0.13864902066E+02 -0.13581093468E+02 -0.25298987264E+02  0.31886052840E+02  0.00000000000E+00 0. -1.
         11    1    3    3    0    0 -0.99623686877E+01  0.12406244009E+02 -0.12408125530E+02  0.20177345210E+02  0.51100000000E-03 0. -1.
        -11    1    3    3    0    0 -0.30370178654E+00  0.50557245782E+01  0.20837124899E+02  0.21443842009E+02  0.51100000000E-03 0.  1.
         12    1    3    3    0    0 -0.35988315918E+01 -0.38808751188E+01  0.16869987896E+02  0.17680759942E+02  0.00000000000E+00 0. -1.
</event>
<event>
 7    1  0.7674040E-012  0.5930187E+02  0.7816164E-02  0.1266605E+00
        -11   -1    0    0    0    0  0.00000000000E+00  0.00000000000E+00  0.45593999997E+02  0.45594000000E+02  0.51100000000E-03 0.  1.
         11   -1    0    0    0    0 -0.00000000000E+00 -0.00000000000E+00 -0.45593999997E+02  0.45594000000E+02  0.51100000000E-03 0. -1.
    9900012    2    1    2    0    0 -0.14625065421E+02  0.28313976247E+02  0.10729376038E+01  0.59301874732E+02  0.49999873622E+02 0.  0.
         12    1    1    2    0    0  0.14625065421E+02 -0.28313976247E+02 -0.10729376038E+01  0.31886125268E+02  0.00000000000E+00 0. -1.
         11    1    3    3    0    0  0.84247059606E+01 -0.78594518794E+00  0.28242855156E+01  0.89202000704E+01  0.51100000000E-03 0. -1.
        -11    1    3    3    0    0 -0.15185367838E+02  0.34476706390E+02  0.59393324368E+01  0.38138095783E+02  0.51100000000E-03 0.  1.
        -12    1    3    3    0    0 -0.78644035428E+01 -0.53767849553E+01 -0.76906803486E+01  0.12243578879E+02  0.00000000000E+00 0.  1.
</event>
<event>
 7    1  0.7674040E-012  0.5930194E+02  0.7816164E-02  0.1266605E+00
        -11   -1    0    0    0    0  0.00000000000E+00  0.00000000000E+00  0.45593999997E+02  0.45594000000E+02  0.51100000000E-03 0.  1.
         11   -1    0    0    0    0 -0.00000000000E+00 -0.00000000000E+00 -0.45593999997E+02  0.45594000000E+02  0.51100000000E-03 0. -1.
    9900012    2    1    2    0    0 -0.31350869856E+02  0.24476632463E+01 -0.52775691270E+01  0.59301939849E+02  0.49999992378E+02 0.  0.
         12    1    1    2    0    0  0.31350869856E+02 -0.24476632463E+01  0.52775691270E+01  0.31886060151E+02  0.00000000000E+00 0. -1.
         11    1    3    3    0    0 -0.24140468163E+02 -0.12618486722E+02 -0.62523247813E+01  0.27947808066E+02  0.51100000000E-03 0. -1.
        -11    1    3    3    0    0  0.89832256565E+01  0.11277198387E+02  0.25763735827E+01  0.14646202503E+02  0.51100000000E-03 0.  1.
        -12    1    3    3    0    0 -0.16193627350E+02  0.37889515806E+01 -0.16016179284E+01  0.16707929279E+02  0.00000000000E+00 0.  1.
</event>
<event>
 7    1  0.7674040E-012  0.5930194E+02  0.7816164E-02  0.1266605E+00
        -11   -1    0    0    0    0  0.00000000000E+00  0.00000000000E+00  0.45593999997E+02  0.45594000000E+02  0.51100000000E-03 0.  1.
         11   -1    0    0    0    0 -0.00000000000E+00 -0.00000000000E+00 -0.45593999997E+02  0.45594000000E+02  0.51100000000E-03 0. -1.
    9900012    2    1    2    0    0 -0.28257813178E+02  0.97931996066E+01  0.11059374974E+02  0.59301944443E+02  0.50000000758E+02 0.  0.
         12    1    1    2    0    0  0.28257813178E+02 -0.97931996066E+01 -0.11059374974E+02  0.31886055557E+02  0.00000000000E+00 0. -1.
         11    1    3    3    0    0 -0.58373749432E+00  0.31301779367E+01 -0.17249819497E+02  0.17541238163E+02  0.51100000000E-03 0. -1.
        -11    1    3    3    0    0 -0.21474740578E+02  0.62288511364E+01  0.14588041421E+02  0.26697828041E+02  0.51100000000E-03 0.  1.
         12    1    3    3    0    0 -0.61993351058E+01  0.43417053351E+00  0.13721153050E+02  0.15062878239E+02  0.00000000000E+00 0. -1.
</event>
<event>
 7    1  0.7674040E-012  0.5930190E+02  0.7816164E-02  0.1266605E+00
        -11   -1    0    0    0    0  0.00000000000E+00  0.00000000000E+00  0.45593999997E+02  0.45594000000E+02  0.51100000000E-03 0. -1.
         11   -1    0    0    0    0 -0.00000000000E+00 -0.00000000000E+00 -0.45593999997E+02  0.45594000000E+02  0.51100000000E-03 0.  1.
    9900012    2    1    2    0    0 -0.40847984399E+01  0.29878577214E+02 -0.10358979726E+02  0.59301899336E+02  0.49999918493E+02 0.  0.
         12    1    1    2    0    0  0.40847984399E+01 -0.29878577214E+02  0.10358979726E+02  0.31886100664E+02  0.00000000000E+00 0. -1.
         11    1    3    3    0    0  0.15648822428E+01 -0.28808260259E+01  0.93695311165E+01  0.99265365878E+01  0.51100000000E-03 0. -1.
        -11    1    3    3    0    0  0.82370086770E+01  0.29531182405E+02 -0.16256193512E+02  0.34701626388E+02  0.51100000000E-03 0.  1.
         12    1    3    3    0    0 -0.13886689360E+02  0.32282208345E+01 -0.34723173307E+01  0.14673736360E+02  0.00000000000E+00 0. -1.
</event>
<event>
 7    1  0.7674040E-012  0.5930193E+02  0.7816164E-02  0.1266605E+00
        -11   -1    0    0    0    0  0.00000000000E+00  0.00000000000E+00  0.45593999997E+02  0.45594000000E+02  0.51100000000E-03 0.  1.
         11   -1    0    0    0    0 -0.00000000000E+00 -0.00000000000E+00 -0.45593999997E+02  0.45594000000E+02  0.51100000000E-03 0. -1.
    9900012    2    1    2    0    0  0.79998715896E+01 -0.22596206528E+02  0.21027000799E+02  0.59301933176E+02  0.49999980209E+02 0.  0.
         12    1    1    2    0    0 -0.79998715896E+01  0.22596206528E+02 -0.21027000799E+02  0.31886066824E+02  0.00000000000E+00 0. -1.
         11    1    3    3    0    0  0.86251138666E+01  0.26629896897E+01 -0.96433747499E+01  0.13209041605E+02  0.51100000000E-03 0. -1.
        -11    1    3    3    0    0 -0.60499544867E+01 -0.16424957235E+02  0.31132528330E+02  0.35715759686E+02  0.51100000000E-03 0.  1.
        -12    1    3    3    0    0  0.54247122097E+01 -0.88342389823E+01 -0.46215278171E+00  0.10377131885E+02  0.00000000000E+00 0.  1.
</event>
<event>
 7    1  0.7674040E-012  0.5930193E+02  0.7816164E-02  0.1266605E+00
        -11   -1    0    0    0    0  0.00000000000E+00  0.00000000000E+00  0.45593999997E+02  0.45594000000E+02  0.51100000000E-03 0.  1.
         11   -1    0    0    0    0 -0.00000000000E+00 -0.00000000000E+00 -0.45593999997E+02  0.45594000000E+02  0.51100000000E-03 0. -1.
    9900012    2    1    2    0    0  0.27449621851E+02 -0.17173147592E+01  0.16133515871E+02  0.59301933386E+02  0.49999980592E+02 0.  0.
         12    1    1    2    0    0 -0.27449621851E+02  0.17173147592E+01 -0.16133515871E+02  0.31886066614E+02  0.00000000000E+00 0. -1.
         11    1    3    3    0    0  0.36528143207E+02 -0.42330612228E-01  0.17513174616E+02  0.40509484364E+02  0.51100000000E-03 0. -1.
        -11    1    3    3    0    0 -0.30363474392E+01 -0.27891309670E+01  0.71659657311E+01  0.82673890947E+01  0.51100000000E-03 0.  1.
         12    1    3    3    0    0 -0.60421739175E+01  0.11141468201E+01 -0.85456244760E+01  0.10525059927E+02  0.00000000000E+00 0. -1.
</event>
<event>
 7    1  0.7674040E-012  0.5930192E+02  0.7816164E-02  0.1266605E+00
        -11   -1    0    0    0    0  0.00000000000E+00  0.00000000000E+00  0.45593999997E+02  0.45594000000E+02  0.51100000000E-03 0.  1.
         11   -1    0    0    0    0 -0.00000000000E+00 -0.00000000000E+00 -0.45593999997E+02  0.45594000000E+02  0.51100000000E-03 0. -1.
    9900012    2    1    2    0    0 -0.11984906046E+02  0.12335105460E+02  0.26850121336E+02  0.59301924428E+02  0.49999964254E+02 0.  0.
         12    1    1    2    0    0  0.11984906046E+02 -0.12335105460E+02 -0.26850121336E+02  0.31886075572E+02  0.00000000000E+00 0. -1.
         11    1    3    3    0    0  0.97835260138E+01  0.34616972759E+01 -0.71925234029E+01  0.12626682955E+02  0.51100000000E-03 0. -1.
        -11    1    3    3    0    0 -0.16270472288E+02  0.96932460514E+01  0.89010081570E+01  0.20926424300E+02  0.51100000000E-03 0.  1.
         12    1    3    3    0    0 -0.54979597717E+01 -0.81983786756E+00  0.25141636582E+02  0.25748817173E+02  0.00000000000E+00 0. -1.
</event>
<event>
 7    1  0.7674040E-012  0.5930191E+02  0.7816164E-02  0.1266605E+00
        -11   -1    0    0    0    0  0.00000000000E+00  0.00000000000E+00  0.45593999997E+02  0.45594000000E+02  0.51100000000E-03 0.  1.
         11   -1    0    0    0    0 -0.00000000000E+00 -0.00000000000E+00 -0.45593999997E+02  0.45594000000E+02  0.51100000000E-03 0. -1.
    9900012    2    1    2    0    0  0.60826823815E+01  0.15841329193E+02  0.26995849255E+02  0.59301911928E+02  0.49999941457E+02 0.  0.
         12    1    1    2    0    0 -0.60826823815E+01 -0.15841329193E+02 -0.26995849255E+02  0.31886088072E+02  0.00000000000E+00 0. -1.
         11    1    3    3    0    0 -0.30831956411E+01 -0.70859275622E+01 -0.70241070487E+01  0.10442918408E+02  0.51100000000E-03 0. -1.
        -11    1    3    3    0    0 -0.54530687296E+01  0.13509896811E+02  0.25789119968E+02  0.29619790334E+02  0.51100000000E-03 0.  1.
        -12    1    3    3    0    0  0.14618946752E+02  0.94173599433E+01  0.82308363363E+01  0.19239203186E+02  0.00000000000E+00 0.  1.
</event>
<event>
 7    1  0.7674040E-012  0.5930202E+02  0.7816164E-02  0.1266605E+00
        -11   -1    0    0    0    0  0.00000000000E+00  0.00000000000E+00  0.45593999997E+02  0.45594000000E+02  0.51100000000E-03 0. -1.
         11   -1    0    0    0    0 -0.00000000000E+00 -0.00000000000E+00 -0.45593999997E+02  0.45594000000E+02  0.51100000000E-03 0.  1.
    9900012    2    1    2    0    0 -0.66466620244E+01  0.31181256918E+02 -0.51673114580E+00  0.59302017027E+02  0.50000133133E+02 0.  0.
         12    1    1    2    0    0  0.66466620244E+01 -0.31181256918E+02  0.51673114580E+00  0.31885982973E+02  0.00000000000E+00 0. -1.
         11    1    3    3    0    0  0.33029567618E+01 -0.10600604608E+01  0.70577321486E+01  0.78641487074E+01  0.51100000000E-03 0. -1.
        -11    1    3    3    0    0 -0.42112845345E+00  0.34783143646E+02 -0.16165969388E+02  0.38358610475E+02  0.51100000000E-03 0.  1.
        -12    1    3    3    0    0 -0.95284903327E+01 -0.25418262670E+01  0.85915060939E+01  0.13079257844E+02  0.00000000000E+00 0.  1.
</event>
<event>
 7    1  0.7674040E-012  0.5930193E+02  0.7816164E-02  0.1266605E+00
        -11   -1    0    0    0    0  0.00000000000E+00  0.00000000000E+00  0.45593999997E+02  0.45594000000E+02  0.51100000000E-03 0. -1.
         11   -1    0    0    0    0 -0.00000000000E+00 -0.00000000000E+00 -0.45593999997E+02  0.45594000000E+02  0.51100000000E-03 0.  1.
    9900012    2    1    2    0    0 -0.24374095392E+01  0.98513754567E+01 -0.30227978510E+02  0.59301933318E+02  0.49999980469E+02 0.  0.
         12    1    1    2    0    0  0.24374095392E+01 -0.98513754567E+01  0.30227978510E+02  0.31886066682E+02  0.00000000000E+00 0. -1.
         11    1    3    3    0    0  0.22166998848E+01  0.50149490638E+00  0.63626258092E+01  0.67563498259E+01  0.51100000000E-03 0. -1.
        -11    1    3    3    0    0 -0.12501351389E+02 -0.10376159081E+02 -0.18798941381E+02  0.24846501989E+02  0.51100000000E-03 0.  1.
         12    1    3    3    0    0  0.78472419647E+01  0.19726039631E+02 -0.17791662938E+02  0.27699081503E+02  0.00000000000E+00 0. -1.
</event>
<event>
 7    1  0.7674040E-012  0.5930197E+02  0.7816164E-02  0.1266605E+00
        -11   -1    0    0    0    0  0.00000000000E+00  0.00000000000E+00  0.45593999997E+02  0.45594000000E+02  0.51100000000E-03 0. -1.
         11   -1    0    0    0    0 -0.00000000000E+00 -0.00000000000E+00 -0.45593999997E+02  0.45594000000E+02  0.51100000000E-03 0.  1.
    9900012    2    1    2    0    0  0.15476962559E+02 -0.21540933895E+02 -0.17696632959E+02  0.59301968243E+02  0.50000044163E+02 0.  0.
         12    1    1    2    0    0 -0.15476962559E+02  0.21540933895E+02  0.17696632959E+02  0.31886031757E+02  0.00000000000E+00 0. -1.
         11    1    3    3    0    0  0.15654297195E+02 -0.13396935484E+02  0.39838793868E+01  0.20985857054E+02  0.51100000000E-03 0. -1.
        -11    1    3    3    0    0  0.34187491797E+01 -0.12735833193E+02 -0.27236586615E+02  0.30260881411E+02  0.51100000000E-03 0.  1.
        -12    1    3    3    0    0 -0.35960838159E+01  0.45918347821E+01  0.55560742699E+01  0.80552297775E+01  0.00000000000E+00 0.  1.
</event>
<event>
 7    1  0.7674040E-012  0.5930195E+02  0.7816164E-02  0.1266605E+00
        -11   -1    0    0    0    0  0.00000000000E+00  0.00000000000E+00  0.45593999997E+02  0.45594000000E+02  0.51100000000E-03 0.  1.
         11   -1    0    0    0    0 -0.00000000000E+00 -0.00000000000E+00 -0.45593999997E+02  0.45594000000E+02  0.51100000000E-03 0. -1.
    9900012    2    1    2    0    0  0.68555790389E+01 -0.24763264974E+00  0.31139362821E+02  0.59301949715E+02  0.50000010372E+02 0.  0.
         12    1    1    2    0    0 -0.68555790389E+01  0.24763264974E+00 -0.31139362821E+02  0.31886050285E+02  0.00000000000E+00 0. -1.
         11    1    3    3    0    0  0.23665896229E+02 -0.11122701332E+02  0.27856519421E+02  0.38206999408E+02  0.51100000000E-03 0. -1.
        -11    1    3    3    0    0 -0.93049516637E+01  0.41359125754E+01 -0.79761716913E+00  0.10213916570E+02  0.51100000000E-03 0.  1.
         12    1    3    3    0    0 -0.75053655265E+01  0.67391561071E+01  0.40804605688E+01  0.10881033737E+02  0.00000000000E+00 0. -1.
</event>
<event>
 7    1  0.7674040E-012  0.5930194E+02  0.7816164E-02  0.1266605E+00
        -11   -1    0    0    0    0  0.00000000000E+00  0.00000000000E+00  0.45593999997E+02  0.45594000000E+02  0.51100000000E-03 0.  1.
         11   -1    0    0    0    0 -0.00000000000E+00 -0.00000000000E+00 -0.45593999997E+02  0.45594000000E+02  0.51100000000E-03 0. -1.
    9900012    2    1    2    0    0 -0.31275385029E+02 -0.48151555290E+01  0.39224315812E+01  0.59301938766E+02  0.49999990404E+02 0.  0.
         12    1    1    2    0    0  0.31275385029E+02  0.48151555290E+01 -0.39224315812E+01  0.31886061234E+02  0.00000000000E+00 0. -1.
         11    1    3    3    0    0 -0.28181772246E+02  0.44281436396E+01 -0.16590472293E+02  0.33000977473E+02  0.51100000000E-03 0. -1.
        -11    1    3    3    0    0  0.32011908499E+00 -0.92430490971E+01  0.20910161857E+02  0.22864192573E+02  0.51100000000E-03 0.  1.
        -12    1    3    3    0    0 -0.34137318686E+01 -0.25007154830E-03 -0.39725798344E+00  0.34367687205E+01  0.00000000000E+00 0.  1.
</event>
<event>
 7    1  0.8006794E-012  0.5930194E+02  0.7816164E-02  0.1266605E+00
        -11   -1    0    0    0    0  0.00000000000E+00  0.00000000000E+00  0.45593999997E+02  0.45594000000E+02  0.51100000000E-03 0. -1.
         11   -1    0    0    0    0 -0.00000000000E+00 -0.00000000000E+00 -0.45593999997E+02  0.45594000000E+02  0.51100000000E-03 0.  1.
    9900012    2    1    2    0    0  0.57242402637E+01 -0.25400146553E+02 -0.18406145583E+02  0.59301944008E+02  0.49999999964E+02 0.  0.
         12    1    1    2    0    0 -0.57242402637E+01  0.25400146553E+02  0.18406145583E+02  0.31886055992E+02  0.00000000000E+00 0. -1.
         11    1    3    3    0    0 -0.64536745649E+01  0.43259482124E+01  0.15239123364E+01  0.79174523931E+01  0.51100000000E-03 0. -1.
        -11    1    3    3    0    0 -0.12009326393E+01 -0.20562777245E+02 -0.26776492260E+02  0.33782400525E+02  0.51100000000E-03 0.  1.
        -12    1    3    3    0    0  0.13378847468E+02 -0.91633175207E+01  0.68464343407E+01  0.17602091090E+02  0.00000000000E+00 0.  1.
</event>
<event>
 7    1  0.7674040E-012  0.5930184E+02  0.7816164E-02  0.1266605E+00
        -11   -1    0    0    0    0  0.00000000000E+00  0.00000000000E+00  0.45593999997E+02  0.45594000000E+02  0.51100000000E-03 0.  1.
         11   -1    0    0    0    0 -0.00000000000E+00 -0.00000000000E+00 -0.45593999997E+02  0.45594000000E+02  0.51100000000E-03 0. -1.
    9900012    2    1    2    0    0  0.48213273978E+01  0.17147989229E+02  0.26446713273E+02  0.59301837242E+02  0.49999805248E+02 0.  0.
         12    1    1    2    0    0 -0.48213273978E+01 -0.17147989229E+02 -0.26446713273E+02  0.31886162758E+02  0.00000000000E+00 0. -1.
         11    1    3    3    0    0 -0.18264766987E+02 -0.15629770233E+01 -0.98104299266E+00  0.18357751928E+02  0.51100000000E-03 0. -1.
        -11    1    3    3    0    0  0.79643077159E+01  0.29623430514E+01  0.89506961537E+01  0.12341824648E+02  0.51100000000E-03 0.  1.
         12    1    3    3    0    0  0.15121786669E+02  0.15748623201E+02  0.18477060112E+02  0.28602260665E+02  0.00000000000E+00 0. -1.
</event>
<event>
 7    1  0.7674040E-012  0.5930204E+02  0.7816164E-02  0.1266604E+00
        -11   -1    0    0    0    0  0.00000000000E+00  0.00000000000E+00  0.45593999997E+02  0.45594000000E+02  0.51100000000E-03 0.  1.
         11   -1    0    0    0    0 -0.00000000000E+00 -0.00000000000E+00 -0.45593999997E+02  0.45594000000E+02  0.51100000000E-03 0. -1.
    9900012    2    1    2    0    0  0.21024770379E+02  0.18055694540E+02 -0.15769125233E+02  0.59302040936E+02  0.50000176737E+02 0.  0.
         12    1    1    2    0    0 -0.21024770379E+02 -0.18055694540E+02  0.15769125233E+02  0.31885959064E+02  0.00000000000E+00 0. -1.
         11    1    3    3    0    0  0.76613764924E+01  0.11774828606E+01 -0.26394580551E+02  0.27509217335E+02  0.51100000000E-03 0. -1.
        -11    1    3    3    0    0  0.86728657309E+00  0.17090302728E+02  0.37122864178E+01  0.17510331352E+02  0.51100000000E-03 0.  1.
         12    1    3    3    0    0  0.12496107314E+02 -0.21209104909E+00  0.69131689000E+01  0.14282492249E+02  0.00000000000E+00 0. -1.
</event>
<event>
 7    1  0.7674040E-012  0.5930194E+02  0.7816164E-02  0.1266605E+00
        -11   -1    0    0    0    0  0.00000000000E+00  0.00000000000E+00  0.45593999997E+02  0.45594000000E+02  0.51100000000E-03 0.  1.
         11   -1    0    0    0    0 -0.00000000000E+00 -0.00000000000E+00 -0.45593999997E+02  0.45594000000E+02  0.51100000000E-03 0. -1.
    9900012    2    1    2    0    0 -0.29902632380E+02  0.57419090815E+01  0.94648652545E+01  0.59301943213E+02  0.49999998513E+02 0.  0.
         12    1    1    2    0    0  0.29902632380E+02 -0.57419090815E+01 -0.94648652545E+01  0.31886056787E+02  0.00000000000E+00 0. -1.
         11    1    3    3    0    0 -0.34244044274E+02  0.15057051675E+02 -0.81656124825E+01  0.38288987984E+02  0.51100000000E-03 0. -1.
        -11    1    3    3    0    0 -0.90990684020E+00 -0.34149544168E+01  0.54963750681E+01  0.65345224215E+01  0.51100000000E-03 0.  1.
         12    1    3    3    0    0  0.52513187339E+01 -0.59001881768E+01  0.12134102669E+02  0.14478432807E+02  0.00000000000E+00 0. -1.
</event>
<event>
 7    1  0.7674040E-012  0.5930194E+02  0.7816164E-02  0.1266605E+00
        -11   -1    0    0    0    0  0.00000000000E+00  0.00000000000E+00  0.45593999997E+02  0.45594000000E+02  0.51100000000E-03 0. -1.
         11   -1    0    0    0    0 -0.00000000000E+00 -0.00000000000E+00 -0.45593999997E+02  0.45594000000E+02  0.51100000000E-03 0.  1.
    9900012    2    1    2    0    0  0.30071710380E+02  0.80940589135E+01 -0.68483163045E+01  0.59301937354E+02  0.49999987829E+02 0.  0.
         12    1    1    2    0    0 -0.30071710380E+02 -0.80940589135E+01  0.68483163045E+01  0.31886062646E+02  0.00000000000E+00 0. -1.
         11    1    3    3    0    0  0.10080956739E+02  0.13488640588E+02 -0.60456278909E+00  0.16850359347E+02  0.51100000000E-03 0. -1.
        -11    1    3    3    0    0  0.23879169014E+02 -0.12060526440E+01 -0.17633233262E+02  0.29708587838E+02  0.51100000000E-03 0.  1.
         12    1    3    3    0    0 -0.38884153737E+01 -0.41885290308E+01  0.11389479746E+02  0.12742990169E+02  0.00000000000E+00 0. -1.
</event>
<event>
 7    1  0.7674040E-012  0.5930199E+02  0.7816164E-02  0.1266605E+00
        -11   -1    0    0    0    0  0.00000000000E+00  0.00000000000E+00  0.45593999997E+02  0.45594000000E+02  0.51100000000E-03 0. -1.
         11   -1    0    0    0    0 -0.00000000000E+00 -0.00000000000E+00 -0.45593999997E+02  0.45594000000E+02  0.51100000000E-03 0.  1.
    9900012    2    1    2    0    0 -0.25566309016E+02  0.65785039569E+01 -0.17883084375E+02  0.59301990877E+02  0.50000085442E+02 0.  0.
         12    1    1    2    0    0  0.25566309016E+02 -0.65785039569E+01  0.17883084375E+02  0.31886009123E+02  0.00000000000E+00 0. -1.
         11    1    3    3    0    0 -0.17239881983E+02 -0.71187798885E+01 -0.39150919423E+01  0.19058292239E+02  0.51100000000E-03 0. -1.
        -11    1    3    3    0    0  0.10341774931E+02 -0.46032921945E+01 -0.65103358963E+01  0.13058601820E+02  0.51100000000E-03 0.  1.
        -12    1    3    3    0    0 -0.18668201965E+02  0.18300576040E+02 -0.74576565363E+01  0.27185096818E+02  0.00000000000E+00 0.  1.
</event>
<event>
 7    1  0.7674040E-012  0.5930194E+02  0.7816164E-02  0.1266605E+00
        -11   -1    0    0    0    0  0.00000000000E+00  0.00000000000E+00  0.45593999997E+02  0.45594000000E+02  0.51100000000E-03 0. -1.
         11   -1    0    0    0    0 -0.00000000000E+00 -0.00000000000E+00 -0.45593999997E+02  0.45594000000E+02  0.51100000000E-03 0.  1.
    9900012    2    1    2    0    0  0.22622511750E+02  0.16655129206E+02 -0.15084753019E+02  0.59301935012E+02  0.49999983558E+02 0.  0.
         12    1    1    2    0    0 -0.22622511750E+02 -0.16655129206E+02  0.15084753019E+02  0.31886064988E+02  0.00000000000E+00 0. -1.
         11    1    3    3    0    0  0.19250670361E+02  0.17984550808E+02  0.97263811828E+01  0.28082643542E+02  0.51100000000E-03 0. -1.
        -11    1    3    3    0    0  0.17124700717E+01 -0.99226740958E+01 -0.15064232591E+02  0.18119688706E+02  0.51100000000E-03 0.  1.
         12    1    3    3    0    0  0.16593713167E+01  0.85932524940E+01 -0.97469016107E+01  0.13099602765E+02  0.00000000000E+00 0. -1.
</event>
<event>
 7    1  0.7674040E-012  0.5930197E+02  0.7816164E-02  0.1266605E+00
        -11   -1    0    0    0    0  0.00000000000E+00  0.00000000000E+00  0.45593999997E+02  0.45594000000E+02  0.51100000000E-03 0. -1.
         11   -1    0    0    0    0 -0.00000000000E+00 -0.00000000000E+00 -0.45593999997E+02  0.45594000000E+02  0.51100000000E-03 0.  1.
    9900012    2    1    2    0    0  0.14470206588E+02 -0.28086632370E+02 -0.42980635262E+01  0.59301966276E+02  0.50000040575E+02 0.  0.
         12    1    1    2    0    0 -0.14470206588E+02  0.28086632370E+02  0.42980635262E+01  0.31886033724E+02  0.00000000000E+00 0. -1.
         11    1    3    3    0    0 -0.96673171881E+01 -0.33487030107E+01  0.64806517837E+01  0.12110725877E+02  0.51100000000E-03 0. -1.
        -11    1    3    3    0    0  0.23236412397E+02 -0.14307401852E+02 -0.19521225406E+02  0.33551614722E+02  0.51100000000E-03 0.  1.
         12    1    3    3    0    0  0.90111137844E+00 -0.10430527508E+02  0.87425100962E+01  0.13639625676E+02  0.00000000000E+00 0. -1.
</event>
<event>
 7    1  0.7674040E-012  0.5930195E+02  0.7816164E-02  0.1266605E+00
        -11   -1    0    0    0    0  0.00000000000E+00  0.00000000000E+00  0.45593999997E+02  0.45594000000E+02  0.51100000000E-03 0.  1.
         11   -1    0    0    0    0 -0.00000000000E+00 -0.00000000000E+00 -0.45593999997E+02  0.45594000000E+02  0.51100000000E-03 0. -1.
    9900012    2    1    2    0    0 -0.22297128329E+02  0.79858392474E+01  0.21349108834E+02  0.59301952766E+02  0.50000015936E+02 0.  0.
         12    1    1    2    0    0  0.22297128329E+02 -0.79858392474E+01 -0.21349108834E+02  0.31886047234E+02  0.00000000000E+00 0. -1.
         11    1    3    3    0    0 -0.97476399837E+01  0.37404841592E+01 -0.94436331100E+01  0.14077993947E+02  0.51100000000E-03 0. -1.
        -11    1    3    3    0    0 -0.78460528739E+01 -0.12942161093E+02  0.16415086130E+02  0.22327452438E+02  0.51100000000E-03 0.  1.
        -12    1    3    3    0    0 -0.47034354717E+01  0.17187516181E+02  0.14377655814E+02  0.22896506380E+02  0.00000000000E+00 0.  1.
</event>
<event>
 7    1  0.7674040E-012  0.5930195E+02  0.7816164E-02  0.1266605E+00
        -11   -1    0    0    0    0  0.00000000000E+00  0.00000000000E+00  0.45593999997E+02  0.45594000000E+02  0.51100000000E-03 0. -1.
         11   -1    0    0    0    0 -0.00000000000E+00 -0.00000000000E+00 -0.45593999997E+02  0.45594000000E+02  0.51100000000E-03 0.  1.
    9900012    2    1    2    0    0 -0.17708958381E+01  0.30239665263E+01 -0.31692893533E+02  0.59301953740E+02  0.50000017712E+02 0.  0.
         12    1    1    2    0    0  0.17708958381E+01 -0.30239665263E+01  0.31692893533E+02  0.31886046260E+02  0.00000000000E+00 0. -1.
         11    1    3    3    0    0  0.49538050905E+01 -0.93526064049E+01 -0.16295980881E+02  0.19431171467E+02  0.51100000000E-03 0. -1.
        -11    1    3    3    0    0 -0.17223812398E+01  0.19293802088E+02  0.29890079490E+01  0.19599784818E+02  0.51100000000E-03 0.  1.
        -12    1    3    3    0    0 -0.50023196889E+01 -0.69172291564E+01 -0.18385920601E+02  0.20270997455E+02  0.00000000000E+00 0.  1.
</event>
<event>
 7    1  0.7674040E-012  0.5930193E+02  0.7816164E-02  0.1266605E+00
        -11   -1    0    0    0    0  0.00000000000E+00  0.00000000000E+00  0.45593999997E+02  0.45594000000E+02  0.51100000000E-03 0.  1.
         11   -1    0    0    0    0 -0.00000000000E+00 -0.00000000000E+00 -0.45593999997E+02  0.45594000000E+02  0.51100000000E-03 0. -1.
    9900012    2    1    2    0    0  0.10395821127E+02 -0.15167998057E+02  0.26049568019E+02  0.59301933201E+02  0.49999980254E+02 0.  0.
         12    1    1    2    0    0 -0.10395821127E+02  0.15167998057E+02 -0.26049568019E+02  0.31886066799E+02  0.00000000000E+00 0. -1.
         11    1    3    3    0    0  0.60724950132E+01 -0.69504997664E+01 -0.14322667427E+02  0.17038880397E+02  0.51100000000E-03 0. -1.
        -11    1    3    3    0    0 -0.24321191638E+01 -0.33169936809E+01  0.11762191223E+02  0.12460609669E+02  0.51100000000E-03 0.  1.
         12    1    3    3    0    0  0.67554452776E+01 -0.49005046094E+01  0.28610044224E+02  0.29802443135E+02  0.00000000000E+00 0. -1.
</event>
<event>
 7    1  0.7674040E-012  0.5930194E+02  0.7816164E-02  0.1266605E+00
        -11   -1    0    0    0    0  0.00000000000E+00  0.00000000000E+00  0.45593999997E+02  0.45594000000E+02  0.51100000000E-03 0.  1.
         11   -1    0    0    0    0 -0.00000000000E+00 -0.00000000000E+00 -0.45593999997E+02  0.45594000000E+02  0.51100000000E-03 0. -1.
    9900012    2    1    2    0    0  0.23896326192E+02  0.19911752695E+02  0.70148741860E+01  0.59301940966E+02  0.49999994416E+02 0.  0.
         12    1    1    2    0    0 -0.23896326192E+02 -0.19911752695E+02 -0.70148741860E+01  0.31886059034E+02  0.00000000000E+00 0. -1.
         11    1    3    3    0    0  0.75607966115E+01  0.25104789780E+02 -0.29248575624E+01  0.26381260533E+02  0.51100000000E-03 0. -1.
        -11    1    3    3    0    0  0.10759055204E+02 -0.11266534601E+02 -0.45672240905E+01  0.16234272604E+02  0.51100000000E-03 0.  1.
        -12    1    3    3    0    0  0.55764743762E+01  0.60734975166E+01  0.14506955839E+02  0.16686407830E+02  0.00000000000E+00 0.  1.
</event>
<event>
 7    1  0.7674040E-012  0.5930195E+02  0.7816164E-02  0.1266605E+00
        -11   -1    0    0    0    0  0.00000000000E+00  0.00000000000E+00  0.45593999997E+02  0.45594000000E+02  0.51100000000E-03 0.  1.
         11   -1    0    0    0    0 -0.00000000000E+00 -0.00000000000E+00 -0.45593999997E+02  0.45594000000E+02  0.51100000000E-03 0. -1.
    9900012    2    1    2    0    0  0.64623285100E+01  0.30997431096E+02  0.37573826012E+01  0.59301947433E+02  0.50000006210E+02 0.  0.
         12    1    1    2    0    0 -0.64623285100E+01 -0.30997431096E+02 -0.37573826012E+01  0.31886052567E+02  0.00000000000E+00 0. -1.
         11    1    3    3    0    0 -0.38345769529E+01  0.24935195914E+02 -0.14195840750E+02  0.28948054694E+02  0.51100000000E-03 0. -1.
        -11    1    3    3    0    0  0.12111817472E+02 -0.46079148046E+01  0.61648922770E+01  0.14350431993E+02  0.51100000000E-03 0.  1.
        -12    1    3    3    0    0 -0.18149120094E+01  0.10670149986E+02  0.11788331074E+02  0.16003460746E+02  0.00000000000E+00 0.  1.
</event>
<event>
 7    1  0.7674040E-012  0.5930191E+02  0.7816164E-02  0.1266605E+00
        -11   -1    0    0    0    0  0.00000000000E+00  0.00000000000E+00  0.45593999997E+02  0.45594000000E+02  0.51100000000E-03 0.  1.
         11   -1    0    0    0    0 -0.00000000000E+00 -0.00000000000E+00 -0.45593999997E+02  0.45594000000E+02  0.51100000000E-03 0. -1.
    9900012    2    1    2    0    0  0.19819895267E+02 -0.22480679614E+02 -0.10886401697E+02  0.59301906696E+02  0.49999931916E+02 0.  0.
         12    1    1    2    0    0 -0.19819895267E+02  0.22480679614E+02  0.10886401697E+02  0.31886093304E+02  0.00000000000E+00 0. -1.
         11    1    3    3    0    0  0.89314142059E+01  0.22397842291E+01 -0.21525061031E+02  0.23411856948E+02  0.51100000000E-03 0. -1.
        -11    1    3    3    0    0 -0.52140181944E+01 -0.75213272931E+01 -0.16778654472E+01  0.93043851329E+01  0.51100000000E-03 0.  1.
         12    1    3    3    0    0  0.16102499255E+02 -0.17199136550E+02  0.12316524781E+02  0.26585664615E+02  0.00000000000E+00 0. -1.
</event>
<event>
 7    1  0.7674040E-012  0.5930209E+02  0.7816164E-02  0.1266604E+00
        -11   -1    0    0    0    0  0.00000000000E+00  0.00000000000E+00  0.45593999997E+02  0.45594000000E+02  0.51100000000E-03 0. -1.
         11   -1    0    0    0    0 -0.00000000000E+00 -0.00000000000E+00 -0.45593999997E+02  0.45594000000E+02  0.51100000000E-03 0.  1.
    9900012    2    1    2    0    0 -0.14008113779E+02  0.24891312723E+02 -0.14174145431E+02  0.59302092464E+02  0.50000270711E+02 0.  0.
         12    1    1    2    0    0  0.14008113779E+02 -0.24891312723E+02  0.14174145431E+02  0.31885907536E+02  0.00000000000E+00 0. -1.
         11    1    3    3    0    0  0.78412274633E+01  0.15240963623E+02 -0.35480248041E+01  0.17503151161E+02  0.51100000000E-03 0. -1.
        -11    1    3    3    0    0 -0.48490051251E+01 -0.73958856757E+01 -0.14920306143E+02  0.17344379819E+02  0.51100000000E-03 0.  1.
        -12    1    3    3    0    0 -0.17000336117E+02  0.17046234775E+02  0.42941855163E+01  0.24454561484E+02  0.00000000000E+00 0.  1.
</event>
<event>
 7    1  0.7674040E-012  0.5930190E+02  0.7816164E-02  0.1266605E+00
        -11   -1    0    0    0    0  0.00000000000E+00  0.00000000000E+00  0.45593999997E+02  0.45594000000E+02  0.51100000000E-03 0. -1.
         11   -1    0    0    0    0 -0.00000000000E+00 -0.00000000000E+00 -0.45593999997E+02  0.45594000000E+02  0.51100000000E-03 0.  1.
    9900012    2    1    2    0    0 -0.25319394741E+01 -0.18413625192E+02 -0.25908518481E+02  0.59301895815E+02  0.49999912071E+02 0.  0.
         12    1    1    2    0    0  0.25319394741E+01  0.18413625192E+02  0.25908518481E+02  0.31886104185E+02  0.00000000000E+00 0. -1.
         11    1    3    3    0    0 -0.11987066897E+02 -0.47775889463E+01 -0.28634615213E+02  0.31407902152E+02  0.51100000000E-03 0. -1.
        -11    1    3    3    0    0  0.15692657235E+02 -0.13054441441E+02 -0.12886846487E+01  0.20453328356E+02  0.51100000000E-03 0.  1.
         12    1    3    3    0    0 -0.62375298118E+01 -0.58159480507E+00  0.40147813813E+01  0.74406653069E+01  0.00000000000E+00 0. -1.
</event>
<event>
 7    1  0.7674040E-012  0.5930193E+02  0.7816164E-02  0.1266605E+00
        -11   -1    0    0    0    0  0.00000000000E+00  0.00000000000E+00  0.45593999997E+02  0.45594000000E+02  0.51100000000E-03 0.  1.
         11   -1    0    0    0    0 -0.00000000000E+00 -0.00000000000E+00 -0.45593999997E+02  0.45594000000E+02  0.51100000000E-03 0. -1.
    9900012    2    1    2    0    0 -0.51484002629E+01 -0.28388199252E+02  0.13576656228E+02  0.59301929744E+02  0.49999973951E+02 0.  0.
         12    1    1    2    0    0  0.51484002629E+01  0.28388199252E+02 -0.13576656228E+02  0.31886070256E+02  0.00000000000E+00 0. -1.
         11    1    3    3    0    0  0.13371140687E+02 -0.39524259736E+01  0.11968018900E+02  0.18375052408E+02  0.51100000000E-03 0. -1.
        -11    1    3    3    0    0 -0.12173284196E+02 -0.27603235304E+02  0.81801987514E+01  0.31257688641E+02  0.51100000000E-03 0.  1.
         12    1    3    3    0    0 -0.63462567545E+01  0.31674620255E+01 -0.65715614235E+01  0.96691886950E+01  0.00000000000E+00 0. -1.
</event>
<event>
 7    1  0.7674040E-012  0.5930191E+02  0.7816164E-02  0.1266605E+00
        -11   -1    0    0    0    0  0.00000000000E+00  0.00000000000E+00  0.45593999997E+02  0.45594000000E+02  0.51100000000E-03 0. -1.
         11   -1    0    0    0    0 -0.00000000000E+00 -0.00000000000E+00 -0.45593999997E+02  0.45594000000E+02  0.51100000000E-03 0.  1.
    9900012    2    1    2    0    0  0.14127514007E+02 -0.27533913345E+02 -0.76824369954E+01  0.59301907823E+02  0.49999933972E+02 0.  0.
         12    1    1    2    0    0 -0.14127514007E+02  0.27533913345E+02  0.76824369954E+01  0.31886092177E+02  0.00000000000E+00 0. -1.
         11    1    3    3    0    0 -0.10684157163E+02 -0.83030363346E+01 -0.11537384628E+02  0.17782094111E+02  0.51100000000E-03 0. -1.
        -11    1    3    3    0    0  0.18706934719E+02 -0.14441329989E+02  0.14962080195E+02  0.27970793025E+02  0.51100000000E-03 0.  1.
        -12    1    3    3    0    0  0.61047364515E+01 -0.47895470217E+01 -0.11107132562E+02  0.13549020687E+02  0.00000000000E+00 0.  1.
</event>
<event>
 7    1  0.7674040E-012  0.5930195E+02  0.7816164E-02  0.1266605E+00
        -11   -1    0    0    0    0  0.00000000000E+00  0.00000000000E+00  0.45593999997E+02  0.45594000000E+02  0.51100000000E-03 0.  1.
         11   -1    0    0    0    0 -0.00000000000E+00 -0.00000000000E+00 -0.45593999997E+02  0.45594000000E+02  0.51100000000E-03 0. -1.
    9900012    2    1    2    0    0 -0.16114545704E+01 -0.31835427060E+02  0.79318375952E+00  0.59301947525E+02  0.50000006379E+02 0.  0.
         12    1    1    2    0    0  0.16114545704E+01  0.31835427060E+02 -0.79318375952E+00  0.31886052475E+02  0.00000000000E+00 0. -1.
         11    1    3    3    0    0  0.21920877800E+01 -0.32394886457E+02  0.10427054996E+02  0.34102161127E+02  0.51100000000E-03 0. -1.
        -11    1    3    3    0    0 -0.82966413588E+01  0.60448582909E+01  0.30151936469E+01  0.10698876697E+02  0.51100000000E-03 0.  1.
         12    1    3    3    0    0  0.44930990084E+01 -0.54853988942E+01 -0.12649064884E+02  0.14500909701E+02  0.00000000000E+00 0. -1.
</event>
<event>
 7    1  0.7674040E-012  0.5930179E+02  0.7816164E-02  0.1266605E+00
        -11   -1    0    0    0    0  0.00000000000E+00  0.00000000000E+00  0.45593999997E+02  0.45594000000E+02  0.51100000000E-03 0. -1.
         11   -1    0    0    0    0 -0.00000000000E+00 -0.00000000000E+00 -0.45593999997E+02  0.45594000000E+02  0.51100000000E-03 0.  1.
    9900012    2    1    2    0    0  0.14623612872E+02 -0.84901364545E+01 -0.27033272041E+02  0.59301791889E+02  0.49999722536E+02 0.  0.
         12    1    1    2    0    0 -0.14623612872E+02  0.84901364545E+01  0.27033272041E+02  0.31886208111E+02  0.00000000000E+00 0. -1.
         11    1    3    3    0    0 -0.20020731982E+01 -0.18219865233E+02 -0.28988191979E+02  0.34297041574E+02  0.51100000000E-03 0. -1.
        -11    1    3    3    0    0  0.96505088856E+01 -0.32064843528E+01  0.16673450589E+01  0.10305042623E+02  0.51100000000E-03 0.  1.
         12    1    3    3    0    0  0.69751771847E+01  0.12936213132E+02  0.28757487975E+00  0.14699707693E+02  0.00000000000E+00 0. -1.
</event>
<event>
 7    1  0.7674040E-012  0.5930195E+02  0.7816164E-02  0.1266605E+00
        -11   -1    0    0    0    0  0.00000000000E+00  0.00000000000E+00  0.45593999997E+02  0.45594000000E+02  0.51100000000E-03 0.  1.
         11   -1    0    0    0    0 -0.00000000000E+00 -0.00000000000E+00 -0.45593999997E+02  0.45594000000E+02  0.51100000000E-03 0. -1.
    9900012    2    1    2    0    0  0.13107184112E+01  0.18926103730E+02  0.25628207389E+02  0.59301946636E+02  0.50000004757E+02 0.  0.
         12    1    1    2    0    0 -0.13107184112E+01 -0.18926103730E+02 -0.25628207389E+02  0.31886053364E+02  0.00000000000E+00 0. -1.
         11    1    3    3    0    0  0.18851658270E+02  0.18667299830E+01 -0.11118642858E+01  0.18976457593E+02  0.51100000000E-03 0. -1.
        -11    1    3    3    0    0 -0.50986827799E+01 -0.27536425679E+01  0.99996064366E+01  0.11557302567E+02  0.51100000000E-03 0.  1.
         12    1    3    3    0    0 -0.12442257078E+02  0.19813016315E+02  0.16740465238E+02  0.28768186476E+02  0.00000000000E+00 0. -1.
</event>
<event>
 7    1  0.7674040E-012  0.5930194E+02  0.7816164E-02  0.1266605E+00
        -11   -1    0    0    0    0  0.00000000000E+00  0.00000000000E+00  0.45593999997E+02  0.45594000000E+02  0.51100000000E-03 0.  1.
         11   -1    0    0    0    0 -0.00000000000E+00 -0.00000000000E+00 -0.45593999997E+02  0.45594000000E+02  0.51100000000E-03 0. -1.
    9900012    2    1    2    0    0  0.12245787620E+02 -0.10510268943E+02  0.27500827011E+02  0.59301944208E+02  0.50000000329E+02 0.  0.
         12    1    1    2    0    0 -0.12245787620E+02  0.10510268943E+02 -0.27500827011E+02  0.31886055792E+02  0.00000000000E+00 0. -1.
         11    1    3    3    0    0  0.10041330606E+02 -0.17249395199E+02 -0.15998660517E+01  0.20023224684E+02  0.51100000000E-03 0. -1.
        -11    1    3    3    0    0 -0.59178409106E+01  0.10018128253E+02  0.33934698326E+01  0.12120205134E+02  0.51100000000E-03 0.  1.
        -12    1    3    3    0    0  0.81222979239E+01 -0.32790019967E+01  0.25707223230E+02  0.27158514390E+02  0.00000000000E+00 0.  1.
</event>
<event>
 7    1  0.7674040E-012  0.5930196E+02  0.7816164E-02  0.1266605E+00
        -11   -1    0    0    0    0  0.00000000000E+00  0.00000000000E+00  0.45593999997E+02  0.45594000000E+02  0.51100000000E-03 0.  1.
         11   -1    0    0    0    0 -0.00000000000E+00 -0.00000000000E+00 -0.45593999997E+02  0.45594000000E+02  0.51100000000E-03 0. -1.
    9900012    2    1    2    0    0  0.55887406401E+01  0.12968118637E+02  0.28588692541E+02  0.59301961298E+02  0.50000031496E+02 0.  0.
         12    1    1    2    0    0 -0.55887406401E+01 -0.12968118637E+02 -0.28588692541E+02  0.31886038702E+02  0.00000000000E+00 0. -1.
         11    1    3    3    0    0 -0.50287684255E+01  0.85503688386E+01  0.32193862270E+02  0.33687417344E+02  0.51100000000E-03 0.  1.
        -11    1    3    3    0    0  0.52390511061E+01  0.11877191800E+02 -0.81795526216E+01  0.15343416272E+02  0.51100000000E-03 0. -1.
         12    1    3    3    0    0  0.53784579595E+01 -0.74594420024E+01  0.45743828922E+01  0.10271127682E+02  0.00000000000E+00 0. -1.
</event>
<event>
 7    1  0.7674040E-012  0.5930193E+02  0.7816164E-02  0.1266605E+00
        -11   -1    0    0    0    0  0.00000000000E+00  0.00000000000E+00  0.45593999997E+02  0.45594000000E+02  0.51100000000E-03 0.  1.
         11   -1    0    0    0    0 -0.00000000000E+00 -0.00000000000E+00 -0.45593999997E+02  0.45594000000E+02  0.51100000000E-03 0. -1.
    9900012    2    1    2    0    0 -0.11878122069E+02  0.84401994125E+01  0.28361849570E+02  0.59301933120E+02  0.49999980108E+02 0.  0.
         12    1    1    2    0    0  0.11878122069E+02 -0.84401994125E+01 -0.28361849570E+02  0.31886066880E+02  0.00000000000E+00 0. -1.
         11    1    3    3    0    0 -0.15774994471E+02  0.23942999523E+01  0.21219016761E+02  0.26548630763E+02  0.51100000000E-03 0.  1.
        -11    1    3    3    0    0  0.13208079483E+02  0.90307869822E+01  0.13630341613E+02  0.21018912671E+02  0.51100000000E-03 0. -1.
        -12    1    3    3    0    0 -0.93112070807E+01 -0.29848875220E+01 -0.64875088035E+01  0.11734389686E+02  0.00000000000E+00 0.  1.
</event>
<event>
 7    1  0.7674040E-012  0.5930203E+02  0.7816164E-02  0.1266604E+00
        -11   -1    0    0    0    0  0.00000000000E+00  0.00000000000E+00  0.45593999997E+02  0.45594000000E+02  0.51100000000E-03 0. -1.
         11   -1    0    0    0    0 -0.00000000000E+00 -0.00000000000E+00 -0.45593999997E+02  0.45594000000E+02  0.51100000000E-03 0.  1.
    9900012    2    1    2    0    0  0.43767295016E+01 -0.13470839392E+02 -0.28567385812E+02  0.59302034322E+02  0.50000164675E+02 0.  0.
         12    1    1    2    0    0 -0.43767295016E+01  0.13470839392E+02  0.28567385812E+02  0.31885965678E+02  0.00000000000E+00 0. -1.
         11    1    3    3    0    0 -0.27911033651E+01 -0.81332209146E+00  0.82225445406E+00  0.30212337658E+01  0.51100000000E-03 0. -1.
        -11    1    3    3    0    0  0.35949349682E+01  0.11555378166E+02 -0.29413471831E+02  0.31805701492E+02  0.51100000000E-03 0.  1.
        -12    1    3    3    0    0  0.35728978985E+01 -0.24212895466E+02  0.23831564726E-01  0.24475099064E+02  0.00000000000E+00 0.  1.
</event>
<event>
 7    1  0.7674040E-012  0.5930197E+02  0.7816164E-02  0.1266605E+00
        -11   -1    0    0    0    0  0.00000000000E+00  0.00000000000E+00  0.45593999997E+02  0.45594000000E+02  0.51100000000E-03 0. -1.
         11   -1    0    0    0    0 -0.00000000000E+00 -0.00000000000E+00 -0.45593999997E+02  0.45594000000E+02  0.51100000000E-03 0.  1.
    9900012    2    1    2    0    0 -0.92452351352E+01 -0.20835502593E+01 -0.30445084698E+02  0.59301972705E+02  0.50000052301E+02 0.  0.
         12    1    1    2    0    0  0.92452351352E+01  0.20835502593E+01  0.30445084698E+02  0.31886027295E+02  0.00000000000E+00 0. -1.
         11    1    3    3    0    0 -0.18950529023E+02  0.11205880510E+02 -0.11843125319E+02  0.24999078499E+02  0.51100000000E-03 0. -1.
        -11    1    3    3    0    0  0.13738246077E+02 -0.17933017796E+02 -0.15641517402E+02  0.27477074070E+02  0.51100000000E-03 0.  1.
        -12    1    3    3    0    0 -0.40329521892E+01  0.46435870268E+01 -0.29604419768E+01  0.68258201363E+01  0.00000000000E+00 0.  1.
</event>
<event>
 7    1  0.7674040E-012  0.5930194E+02  0.7816164E-02  0.1266605E+00
        -11   -1    0    0    0    0  0.00000000000E+00  0.00000000000E+00  0.45593999997E+02  0.45594000000E+02  0.51100000000E-03 0.  1.
         11   -1    0    0    0    0 -0.00000000000E+00 -0.00000000000E+00 -0.45593999997E+02  0.45594000000E+02  0.51100000000E-03 0. -1.
    9900012    2    1    2    0    0  0.10909853855E+02 -0.14597306531E+02  0.26165138885E+02  0.59301940946E+02  0.49999994380E+02 0.  0.
         12    1    1    2    0    0 -0.10909853855E+02  0.14597306531E+02 -0.26165138885E+02  0.31886059054E+02  0.00000000000E+00 0. -1.
         11    1    3    3    0    0 -0.96970738554E+01 -0.16715622049E+02  0.24977698895E+02  0.31580543127E+02  0.51100000000E-03 0. -1.
        -11    1    3    3    0    0  0.49042107858E+01  0.65255956684E+01 -0.57633333364E+01  0.99925318947E+01  0.51100000000E-03 0.  1.
         12    1    3    3    0    0  0.15702716925E+02 -0.44072801505E+01  0.69507733268E+01  0.17728865925E+02  0.00000000000E+00 0. -1.
</event>
<event>
 7    1  0.7674040E-012  0.5930194E+02  0.7816164E-02  0.1266605E+00
        -11   -1    0    0    0    0  0.00000000000E+00  0.00000000000E+00  0.45593999997E+02  0.45594000000E+02  0.51100000000E-03 0.  1.
         11   -1    0    0    0    0 -0.00000000000E+00 -0.00000000000E+00 -0.45593999997E+02  0.45594000000E+02  0.51100000000E-03 0. -1.
    9900012    2    1    2    0    0 -0.18987978289E+01 -0.10779956391E+02  0.29948421581E+02  0.59301939594E+02  0.49999991914E+02 0.  0.
         12    1    1    2    0    0  0.18987978289E+01  0.10779956391E+02 -0.29948421581E+02  0.31886060406E+02  0.00000000000E+00 0. -1.
         11    1    3    3    0    0 -0.46755140198E+01 -0.17953048032E+02  0.24767282704E+02  0.30944961752E+02  0.51100000000E-03 0. -1.
        -11    1    3    3    0    0  0.13269470499E+02  0.89077855732E+01  0.72047320245E+01  0.17530991271E+02  0.51100000000E-03 0.  1.
         12    1    3    3    0    0 -0.10492754308E+02 -0.17346939317E+01 -0.20235931473E+01  0.10825986571E+02  0.00000000000E+00 0. -1.
</event>
<event>
 7    1  0.7674040E-012  0.5930194E+02  0.7816164E-02  0.1266605E+00
        -11   -1    0    0    0    0  0.00000000000E+00  0.00000000000E+00  0.45593999997E+02  0.45594000000E+02  0.51100000000E-03 0.  1.
         11   -1    0    0    0    0 -0.00000000000E+00 -0.00000000000E+00 -0.45593999997E+02  0.45594000000E+02  0.51100000000E-03 0. -1.
    9900012    2    1    2    0    0  0.22294773900E+02  0.15846980472E+02  0.16387095091E+02  0.59301943191E+02  0.49999998474E+02 0.  0.
         12    1    1    2    0    0 -0.22294773900E+02 -0.15846980472E+02 -0.16387095091E+02  0.31886056809E+02  0.00000000000E+00 0. -1.
         11    1    3    3    0    0 -0.69491184486E+01 -0.12294490207E+02  0.98571932263E+01  0.17222340005E+02  0.51100000000E-03 0. -1.
        -11    1    3    3    0    0  0.22386662170E+02  0.20897981500E+02  0.92648462190E+00  0.30638972697E+02  0.51100000000E-03 0.  1.
         12    1    3    3    0    0  0.68572301784E+01  0.72434891788E+01  0.56034172427E+01  0.11440630490E+02  0.00000000000E+00 0. -1.
</event>
<event>
 7    1  0.7674040E-012  0.5930195E+02  0.7816164E-02  0.1266605E+00
        -11   -1    0    0    0    0  0.00000000000E+00  0.00000000000E+00  0.45593999997E+02  0.45594000000E+02  0.51100000000E-03 0.  1.
         11   -1    0    0    0    0 -0.00000000000E+00 -0.00000000000E+00 -0.45593999997E+02  0.45594000000E+02  0.51100000000E-03 0. -1.
    9900012    2    1    2    0    0  0.11902501666E+02  0.27673957381E+02  0.10450020934E+02  0.59301946614E+02  0.50000004717E+02 0.  0.
         12    1    1    2    0    0 -0.11902501666E+02 -0.27673957381E+02 -0.10450020934E+02  0.31886053386E+02  0.00000000000E+00 0. -1.
         11    1    3    3    0    0 -0.81223513137E+01  0.12812382414E+02  0.12898352745E+02  0.19912238392E+02  0.51100000000E-03 0. -1.
        -11    1    3    3    0    0  0.89825576517E+01 -0.53747377395E+01 -0.10638669256E+02  0.14924993519E+02  0.51100000000E-03 0.  1.
        -12    1    3    3    0    0  0.11042295328E+02  0.20236312706E+02  0.81903374449E+01  0.24464714703E+02  0.00000000000E+00 0.  1.
</event>
<event>
 7    1  0.7674040E-012  0.5930198E+02  0.7816164E-02  0.1266605E+00
        -11   -1    0    0    0    0  0.00000000000E+00  0.00000000000E+00  0.45593999997E+02  0.45594000000E+02  0.51100000000E-03 0.  1.
         11   -1    0    0    0    0 -0.00000000000E+00 -0.00000000000E+00 -0.45593999997E+02  0.45594000000E+02  0.51100000000E-03 0. -1.
    9900012    2    1    2    0    0  0.10786152427E+02 -0.53580335964E+01  0.29524033069E+02  0.59301982110E+02  0.50000069453E+02 0.  0.
         12    1    1    2    0    0 -0.10786152427E+02  0.53580335964E+01 -0.29524033069E+02  0.31886017890E+02  0.00000000000E+00 0. -1.
         11    1    3    3    0    0 -0.97145233497E+01 -0.69121083420E+01  0.26645454859E+02  0.29191256748E+02  0.51100000000E-03 0. -1.
        -11    1    3    3    0    0  0.61162267108E+01 -0.97942997678E+01 -0.10327099747E+00  0.11547605911E+02  0.51100000000E-03 0.  1.
         12    1    3    3    0    0  0.14384449066E+02  0.11348374513E+02  0.29818492078E+01  0.18563119451E+02  0.00000000000E+00 0. -1.
</event>
<event>
 7    1  0.7674040E-012  0.5930192E+02  0.7816164E-02  0.1266605E+00
        -11   -1    0    0    0    0  0.00000000000E+00  0.00000000000E+00  0.45593999997E+02  0.45594000000E+02  0.51100000000E-03 0. -1.
         11   -1    0    0    0    0 -0.00000000000E+00 -0.00000000000E+00 -0.45593999997E+02  0.45594000000E+02  0.51100000000E-03 0.  1.
    9900012    2    1    2    0    0 -0.16976298536E+01  0.19274123734E+01 -0.31782470275E+02  0.59301917105E+02  0.49999950900E+02 0.  0.
         12    1    1    2    0    0  0.16976298536E+01 -0.19274123734E+01  0.31782470275E+02  0.31886082895E+02  0.00000000000E+00 0. -1.
         11    1    3    3    0    0  0.24714544430E+01  0.16433825702E+01  0.39488036638E+01  0.49398222612E+01  0.51100000000E-03 0. -1.
        -11    1    3    3    0    0 -0.62970668013E+01 -0.17905549140E+02 -0.29381173565E+02  0.34978780720E+02  0.51100000000E-03 0.  1.
        -12    1    3    3    0    0  0.21279825047E+01  0.18189578944E+02 -0.63501003740E+01  0.19383314125E+02  0.00000000000E+00 0.  1.
</event>
<event>
 7    1  0.7674040E-012  0.5930193E+02  0.7816164E-02  0.1266605E+00
        -11   -1    0    0    0    0  0.00000000000E+00  0.00000000000E+00  0.45593999997E+02  0.45594000000E+02  0.51100000000E-03 0. -1.
         11   -1    0    0    0    0 -0.00000000000E+00 -0.00000000000E+00 -0.45593999997E+02  0.45594000000E+02  0.51100000000E-03 0.  1.
    9900012    2    1    2    0    0 -0.11848371411E+02 -0.29125770578E+02 -0.52940754056E+01  0.59301927001E+02  0.49999968948E+02 0.  0.
         12    1    1    2    0    0  0.11848371411E+02  0.29125770578E+02  0.52940754056E+01  0.31886072999E+02  0.00000000000E+00 0. -1.
         11    1    3    3    0    0  0.14351364056E+01 -0.80974252824E+01  0.94616347288E+01  0.12535966046E+02  0.51100000000E-03 0. -1.
        -11    1    3    3    0    0 -0.20950882168E+02 -0.16550760009E+01 -0.15181940272E+02  0.25926242513E+02  0.51100000000E-03 0.  1.
        -12    1    3    3    0    0  0.76673743512E+01 -0.19373269295E+02  0.42623013706E+00  0.20839718442E+02  0.00000000000E+00 0.  1.
</event>
<event>
 7    1  0.7674040E-012  0.5930204E+02  0.7816164E-02  0.1266604E+00
        -11   -1    0    0    0    0  0.00000000000E+00  0.00000000000E+00  0.45593999997E+02  0.45594000000E+02  0.51100000000E-03 0.  1.
         11   -1    0    0    0    0 -0.00000000000E+00 -0.00000000000E+00 -0.45593999997E+02  0.45594000000E+02  0.51100000000E-03 0. -1.
    9900012    2    1    2    0    0  0.25714685079E+02  0.17979007836E+02  0.56767052070E+01  0.59302035478E+02  0.50000166784E+02 0.  0.
         12    1    1    2    0    0 -0.25714685079E+02 -0.17979007836E+02 -0.56767052070E+01  0.31885964522E+02  0.00000000000E+00 0. -1.
         11    1    3    3    0    0  0.15534533748E+02  0.32672486363E+02  0.95998145891E+01  0.37429527706E+02  0.51100000000E-03 0. -1.
        -11    1    3    3    0    0  0.12560355361E+02 -0.10634508131E+02 -0.46718305302E+01  0.17107930639E+02  0.51100000000E-03 0.  1.
        -12    1    3    3    0    0 -0.23802040299E+01 -0.40589703964E+01  0.74872114818E+00  0.47645771334E+01  0.00000000000E+00 0.  1.
</event>
<event>
 7    1  0.7674040E-012  0.5930216E+02  0.7816164E-02  0.1266604E+00
        -11   -1    0    0    0    0  0.00000000000E+00  0.00000000000E+00  0.45593999997E+02  0.45594000000E+02  0.51100000000E-03 0. -1.
         11   -1    0    0    0    0 -0.00000000000E+00 -0.00000000000E+00 -0.45593999997E+02  0.45594000000E+02  0.51100000000E-03 0.  1.
    9900012    2    1    2    0    0 -0.18389180749E+02  0.15230107030E+02 -0.21132637850E+02  0.59302164410E+02  0.50000401922E+02 0.  0.
         12    1    1    2    0    0  0.18389180749E+02 -0.15230107030E+02  0.21132637850E+02  0.31885835590E+02  0.00000000000E+00 0. -1.
         11    1    3    3    0    0  0.20482277659E+01  0.26853962399E+02 -0.35847452038E+01  0.27169485309E+02  0.51100000000E-03 0. -1.
        -11    1    3    3    0    0 -0.99593171596E+01  0.11535924947E+01 -0.92532576842E+01  0.13643370257E+02  0.51100000000E-03 0.  1.
         12    1    3    3    0    0 -0.10478091356E+02 -0.12777447864E+02 -0.82946349622E+01  0.18489308844E+02  0.00000000000E+00 0. -1.
</event>
<event>
 7    1  0.7674040E-012  0.5930196E+02  0.7816164E-02  0.1266605E+00
        -11   -1    0    0    0    0  0.00000000000E+00  0.00000000000E+00  0.45593999997E+02  0.45594000000E+02  0.51100000000E-03 0. -1.
         11   -1    0    0    0    0 -0.00000000000E+00 -0.00000000000E+00 -0.45593999997E+02  0.45594000000E+02  0.51100000000E-03 0.  1.
    9900012    2    1    2    0    0  0.30422031800E+02  0.51995096127E+01 -0.80115383833E+01  0.59301958127E+02  0.50000025714E+02 0.  0.
         12    1    1    2    0    0 -0.30422031800E+02 -0.51995096127E+01  0.80115383833E+01  0.31886041873E+02  0.00000000000E+00 0. -1.
         11    1    3    3    0    0 -0.37345675726E+01  0.45919771141E+01  0.61664755530E+01  0.85474364448E+01  0.51100000000E-03 0.  1.
        -11    1    3    3    0    0  0.33856721545E+02 -0.58219695462E+01  0.89443111446E+00  0.34365286707E+02  0.51100000000E-03 0. -1.
        -12    1    3    3    0    0  0.29987782721E+00  0.64295020448E+01 -0.15072445051E+02  0.16389234975E+02  0.00000000000E+00 0.  1.
</event>
<event>
 7    1  0.7674040E-012  0.5930193E+02  0.7816164E-02  0.1266605E+00
        -11   -1    0    0    0    0  0.00000000000E+00  0.00000000000E+00  0.45593999997E+02  0.45594000000E+02  0.51100000000E-03 0. -1.
         11   -1    0    0    0    0 -0.00000000000E+00 -0.00000000000E+00 -0.45593999997E+02  0.45594000000E+02  0.51100000000E-03 0.  1.
    9900012    2    1    2    0    0 -0.73059338610E+01  0.63459623081E+00 -0.31031303577E+02  0.59301934334E+02  0.49999982321E+02 0.  0.
         12    1    1    2    0    0  0.73059338610E+01 -0.63459623081E+00  0.31031303577E+02  0.31886065666E+02  0.00000000000E+00 0. -1.
         11    1    3    3    0    0 -0.22382739222E+02  0.14413860100E+02 -0.13873531205E+02  0.30020347207E+02  0.51100000000E-03 0. -1.
        -11    1    3    3    0    0  0.97899193191E+01 -0.15355439199E+02 -0.13089234053E+02  0.22426771538E+02  0.51100000000E-03 0.  1.
         12    1    3    3    0    0  0.52868860424E+01  0.15761753300E+01 -0.40685383193E+01  0.68548155885E+01  0.00000000000E+00 0. -1.
</event>
<event>
 7    1  0.7674040E-012  0.5930194E+02  0.7816164E-02  0.1266605E+00
        -11   -1    0    0    0    0  0.00000000000E+00  0.00000000000E+00  0.45593999997E+02  0.45594000000E+02  0.51100000000E-03 0. -1.
         11   -1    0    0    0    0 -0.00000000000E+00 -0.00000000000E+00 -0.45593999997E+02  0.45594000000E+02  0.51100000000E-03 0.  1.
    9900012    2    1    2    0    0 -0.28576597372E+02 -0.13983918167E+02 -0.21328150420E+01  0.59301940590E+02  0.49999993731E+02 0.  0.
         12    1    1    2    0    0  0.28576597372E+02  0.13983918167E+02  0.21328150420E+01  0.31886059410E+02  0.00000000000E+00 0. -1.
         11    1    3    3    0    0 -0.14657834716E+02 -0.31056664566E+02 -0.72925322475E+01  0.35107685189E+02  0.51100000000E-03 0. -1.
        -11    1    3    3    0    0 -0.76944407401E+01  0.38211083512E+01  0.40891396479E+01  0.95145336541E+01  0.51100000000E-03 0.  1.
         12    1    3    3    0    0 -0.62243219161E+01  0.13251638047E+02  0.10705775575E+01  0.14679721747E+02  0.00000000000E+00 0. -1.
</event>
<event>
 7    1  0.7674040E-012  0.5930195E+02  0.7816164E-02  0.1266605E+00
        -11   -1    0    0    0    0  0.00000000000E+00  0.00000000000E+00  0.45593999997E+02  0.45594000000E+02  0.51100000000E-03 0.  1.
         11   -1    0    0    0    0 -0.00000000000E+00 -0.00000000000E+00 -0.45593999997E+02  0.45594000000E+02  0.51100000000E-03 0. -1.
    9900012    2    1    2    0    0 -0.59462261629E+01 -0.39670801219E+01  0.31074499877E+02  0.59301954888E+02  0.50000019806E+02 0.  0.
         12    1    1    2    0    0  0.59462261629E+01  0.39670801219E+01 -0.31074499877E+02  0.31886045112E+02  0.00000000000E+00 0. -1.
         11    1    3    3    0    0  0.59955464883E+01  0.90344717022E+01  0.34580213001E+02  0.36240300607E+02  0.51100000000E-03 0. -1.
        -11    1    3    3    0    0 -0.26592999125E+01 -0.71662033136E+01 -0.81327672470E+01  0.11161014708E+02  0.51100000000E-03 0.  1.
         12    1    3    3    0    0 -0.92824727386E+01 -0.58353485104E+01  0.46270541234E+01  0.11900639573E+02  0.00000000000E+00 0. -1.
</event>
<event>
 7    1  0.7674040E-012  0.5930196E+02  0.7816164E-02  0.1266605E+00
        -11   -1    0    0    0    0  0.00000000000E+00  0.00000000000E+00  0.45593999997E+02  0.45594000000E+02  0.51100000000E-03 0. -1.
         11   -1    0    0    0    0 -0.00000000000E+00 -0.00000000000E+00 -0.45593999997E+02  0.45594000000E+02  0.51100000000E-03 0.  1.
    9900012    2    1    2    0    0 -0.19699328131E+02 -0.19852555740E+02 -0.15314431891E+02  0.59301963521E+02  0.50000035551E+02 0.  0.
         12    1    1    2    0    0  0.19699328131E+02  0.19852555740E+02  0.15314431891E+02  0.31886036479E+02  0.00000000000E+00 0. -1.
         11    1    3    3    0    0 -0.20041945950E+02 -0.27652356506E+02  0.55012825687E+01  0.34591856382E+02  0.51100000000E-03 0. -1.
        -11    1    3    3    0    0  0.53443518410E+01  0.26006419027E+01 -0.75416549798E+01  0.96021869906E+01  0.51100000000E-03 0.  1.
         12    1    3    3    0    0 -0.50017340217E+01  0.51991588637E+01 -0.13274059480E+02  0.15107920148E+02  0.00000000000E+00 0. -1.
</event>
<event>
 7    1  0.7674040E-012  0.5930193E+02  0.7816164E-02  0.1266605E+00
        -11   -1    0    0    0    0  0.00000000000E+00  0.00000000000E+00  0.45593999997E+02  0.45594000000E+02  0.51100000000E-03 0.  1.
         11   -1    0    0    0    0 -0.00000000000E+00 -0.00000000000E+00 -0.45593999997E+02  0.45594000000E+02  0.51100000000E-03 0. -1.
    9900012    2    1    2    0    0  0.21673434747E+01 -0.16470856684E-01  0.31812316709E+02  0.59301934965E+02  0.49999983472E+02 0.  0.
         12    1    1    2    0    0 -0.21673434747E+01  0.16470856684E-01 -0.31812316709E+02  0.31886065035E+02  0.00000000000E+00 0. -1.
         11    1    3    3    0    0 -0.98501839048E+01 -0.56314300004E+01 -0.41899670348E+01  0.12095244967E+02  0.51100000000E-03 0. -1.
        -11    1    3    3    0    0  0.17607406676E+02  0.32107497661E+01  0.36942309285E+02  0.41049529832E+02  0.51100000000E-03 0.  1.
        -12    1    3    3    0    0 -0.55898792967E+01  0.24042093776E+01 -0.94002554102E+00  0.61571601653E+01  0.00000000000E+00 0.  1.
</event>
<event>
 7    1  0.7674040E-012  0.5930194E+02  0.7816164E-02  0.1266605E+00
        -11   -1    0    0    0    0  0.00000000000E+00  0.00000000000E+00  0.45593999997E+02  0.45594000000E+02  0.51100000000E-03 0.  1.
         11   -1    0    0    0    0 -0.00000000000E+00 -0.00000000000E+00 -0.45593999997E+02  0.45594000000E+02  0.51100000000E-03 0. -1.
    9900012    2    1    2    0    0  0.12571196332E+02 -0.73641308670E+01  0.28362917875E+02  0.59301944881E+02  0.50000001556E+02 0.  0.
         12    1    1    2    0    0 -0.12571196332E+02  0.73641308670E+01 -0.28362917875E+02  0.31886055119E+02  0.00000000000E+00 0. -1.
         11    1    3    3    0    0 -0.10591667174E+01 -0.52509179586E+01 -0.63629287852E+01  0.83175018202E+01  0.51100000000E-03 0. -1.
        -11    1    3    3    0    0 -0.47005705560E+01 -0.75937842727E+01  0.29966021143E+02  0.31268568029E+02  0.51100000000E-03 0.  1.
        -12    1    3    3    0    0  0.18330933605E+02  0.54805713643E+01  0.47598255170E+01  0.19715875032E+02  0.00000000000E+00 0.  1.
</event>
<event>
 7    1  0.7674040E-012  0.5930196E+02  0.7816164E-02  0.1266605E+00
        -11   -1    0    0    0    0  0.00000000000E+00  0.00000000000E+00  0.45593999997E+02  0.45594000000E+02  0.51100000000E-03 0.  1.
         11   -1    0    0    0    0 -0.00000000000E+00 -0.00000000000E+00 -0.45593999997E+02  0.45594000000E+02  0.51100000000E-03 0. -1.
    9900012    2    1    2    0    0  0.23499347522E+02 -0.17959020622E+02  0.11915270547E+02  0.59301961867E+02  0.50000032534E+02 0.  0.
         12    1    1    2    0    0 -0.23499347522E+02  0.17959020622E+02 -0.11915270547E+02  0.31886038133E+02  0.00000000000E+00 0. -1.
         11    1    3    3    0    0  0.89230551162E+00 -0.58201857730E+01 -0.20569756277E+01  0.62371404146E+01  0.51100000000E-03 0. -1.
        -11    1    3    3    0    0  0.17892117002E+02  0.67458479541E+01  0.24386696615E+02  0.30989438321E+02  0.51100000000E-03 0.  1.
        -12    1    3    3    0    0  0.47149250077E+01 -0.18884682803E+02 -0.10414450440E+02  0.22075383131E+02  0.00000000000E+00 0.  1.
</event>
<event>
 7    1  0.7674040E-012  0.5930195E+02  0.7816164E-02  0.1266605E+00
        -11   -1    0    0    0    0  0.00000000000E+00  0.00000000000E+00  0.45593999997E+02  0.45594000000E+02  0.51100000000E-03 0.  1.
         11   -1    0    0    0    0 -0.00000000000E+00 -0.00000000000E+00 -0.45593999997E+02  0.45594000000E+02  0.51100000000E-03 0. -1.
    9900012    2    1    2    0    0 -0.13739334202E+02 -0.20266576437E+02  0.20425886287E+02  0.59301948890E+02  0.50000008867E+02 0.  0.
         12    1    1    2    0    0  0.13739334202E+02  0.20266576437E+02 -0.20425886287E+02  0.31886051110E+02  0.00000000000E+00 0. -1.
         11    1    3    3    0    0 -0.27272863103E+02  0.40094343724E+01  0.99226103612E+01  0.29297488330E+02  0.51100000000E-03 0. -1.
        -11    1    3    3    0    0  0.17688496823E+01 -0.56233345942E+01  0.94907469834E+00  0.59708847084E+01  0.51100000000E-03 0.  1.
         12    1    3    3    0    0  0.11764679219E+02 -0.18652676215E+02  0.95542012272E+01  0.24033575851E+02  0.00000000000E+00 0. -1.
</event>
<event>
 7    1  0.7674040E-012  0.5930192E+02  0.7816164E-02  0.1266605E+00
        -11   -1    0    0    0    0  0.00000000000E+00  0.00000000000E+00  0.45593999997E+02  0.45594000000E+02  0.51100000000E-03 0.  1.
         11   -1    0    0    0    0 -0.00000000000E+00 -0.00000000000E+00 -0.45593999997E+02  0.45594000000E+02  0.51100000000E-03 0. -1.
    9900012    2    1    2    0    0 -0.29586325150E+02 -0.92564862338E+01 -0.74625144225E+01  0.59301916911E+02  0.49999950545E+02 0.  0.
         12    1    1    2    0    0  0.29586325150E+02  0.92564862338E+01  0.74625144225E+01  0.31886083089E+02  0.00000000000E+00 0. -1.
         11    1    3    3    0    0 -0.10917704017E+01  0.17556031268E+02 -0.51962434742E+01  0.18341405153E+02  0.51100000000E-03 0. -1.
        -11    1    3    3    0    0 -0.17071177348E+02 -0.23257806945E+02 -0.27921423088E+01  0.28985284868E+02  0.51100000000E-03 0.  1.
         12    1    3    3    0    0 -0.11423377401E+02 -0.35547105567E+01  0.52587136050E+00  0.11975226890E+02  0.00000000000E+00 0. -1.
</event>
<event>
 7    1  0.7674040E-012  0.5930189E+02  0.7816164E-02  0.1266605E+00
        -11   -1    0    0    0    0  0.00000000000E+00  0.00000000000E+00  0.45593999997E+02  0.45594000000E+02  0.51100000000E-03 0.  1.
         11   -1    0    0    0    0 -0.00000000000E+00 -0.00000000000E+00 -0.45593999997E+02  0.45594000000E+02  0.51100000000E-03 0. -1.
    9900012    2    1    2    0    0  0.11720047498E+02  0.17277267551E+02  0.24101048953E+02  0.59301889418E+02  0.49999900406E+02 0.  0.
         12    1    1    2    0    0 -0.11720047498E+02 -0.17277267551E+02 -0.24101048953E+02  0.31886110582E+02  0.00000000000E+00 0. -1.
         11    1    3    3    0    0 -0.46082254219E+01  0.89344670814E+01 -0.53019923042E+01  0.11365366964E+02  0.51100000000E-03 0. -1.
        -11    1    3    3    0    0  0.20778197438E+02  0.10997291394E+02  0.33778917220E+02  0.41154454870E+02  0.51100000000E-03 0.  1.
        -12    1    3    3    0    0 -0.44499245179E+01 -0.26544909241E+01 -0.43758759634E+01  0.67820675850E+01  0.00000000000E+00 0.  1.
</event>
<event>
 7    1  0.7674040E-012  0.5930191E+02  0.7816164E-02  0.1266605E+00
        -11   -1    0    0    0    0  0.00000000000E+00  0.00000000000E+00  0.45593999997E+02  0.45594000000E+02  0.51100000000E-03 0.  1.
         11   -1    0    0    0    0 -0.00000000000E+00 -0.00000000000E+00 -0.45593999997E+02  0.45594000000E+02  0.51100000000E-03 0. -1.
    9900012    2    1    2    0    0  0.30888779106E+02  0.28689643673E+01  0.73739619574E+01  0.59301906697E+02  0.49999931917E+02 0.  0.
         12    1    1    2    0    0 -0.30888779106E+02 -0.28689643673E+01 -0.73739619574E+01  0.31886093303E+02  0.00000000000E+00 0. -1.
         11    1    3    3    0    0  0.24029623082E+02 -0.10879076123E+02 -0.16638401149E+01  0.26430010347E+02  0.51100000000E-03 0. -1.
        -11    1    3    3    0    0 -0.59452790566E+01  0.15185380827E+00  0.12531834694E+02  0.13871419672E+02  0.51100000000E-03 0.  1.
        -12    1    3    3    0    0  0.12804435080E+02  0.13596186682E+02 -0.34940326221E+01  0.19000476678E+02  0.00000000000E+00 0.  1.
</event>
<event>
 7    1  0.7674040E-012  0.5930191E+02  0.7816164E-02  0.1266605E+00
        -11   -1    0    0    0    0  0.00000000000E+00  0.00000000000E+00  0.45593999997E+02  0.45594000000E+02  0.51100000000E-03 0. -1.
         11   -1    0    0    0    0 -0.00000000000E+00 -0.00000000000E+00 -0.45593999997E+02  0.45594000000E+02  0.51100000000E-03 0.  1.
    9900012    2    1    2    0    0 -0.17234378663E+02 -0.80077835304E+01 -0.25604181014E+02  0.59301913844E+02  0.49999944952E+02 0.  0.
         12    1    1    2    0    0  0.17234378663E+02  0.80077835304E+01  0.25604181014E+02  0.31886086156E+02  0.00000000000E+00 0. -1.
         11    1    3    3    0    0 -0.24485751961E+02 -0.10328945365E+00 -0.14341499196E+01  0.24527933138E+02  0.51100000000E-03 0. -1.
        -11    1    3    3    0    0  0.39548440149E+01 -0.15882617779E+02 -0.15958779977E+02  0.22860030562E+02  0.51100000000E-03 0.  1.
         12    1    3    3    0    0  0.32965292827E+01  0.79781237020E+01 -0.82112511169E+01  0.11913950143E+02  0.00000000000E+00 0. -1.
</event>
<event>
 7    1  0.7674040E-012  0.5930184E+02  0.7816164E-02  0.1266605E+00
        -11   -1    0    0    0    0  0.00000000000E+00  0.00000000000E+00  0.45593999997E+02  0.45594000000E+02  0.51100000000E-03 0.  1.
         11   -1    0    0    0    0 -0.00000000000E+00 -0.00000000000E+00 -0.45593999997E+02  0.45594000000E+02  0.51100000000E-03 0. -1.
    9900012    2    1    2    0    0  0.30790564560E+01  0.16417328969E+02  0.27160958552E+02  0.59301843935E+02  0.49999817454E+02 0.  0.
         12    1    1    2    0    0 -0.30790564560E+01 -0.16417328969E+02 -0.27160958552E+02  0.31886156065E+02  0.00000000000E+00 0. -1.
         11    1    3    3    0    0 -0.77682018461E+01  0.56638158744E+01  0.33035746018E+02  0.34406166386E+02  0.51100000000E-03 0.  1.
        -11    1    3    3    0    0  0.12457266615E+02  0.10637921560E+02  0.23187555641E+01  0.16544651530E+02  0.51100000000E-03 0. -1.
         12    1    3    3    0    0 -0.16100083126E+01  0.11559153403E+00 -0.81935430298E+01  0.83510260178E+01  0.00000000000E+00 0. -1.
</event>
<event>
 7    1  0.7674040E-012  0.5930193E+02  0.7816164E-02  0.1266605E+00
        -11   -1    0    0    0    0  0.00000000000E+00  0.00000000000E+00  0.45593999997E+02  0.45594000000E+02  0.51100000000E-03 0. -1.
         11   -1    0    0    0    0 -0.00000000000E+00 -0.00000000000E+00 -0.45593999997E+02  0.45594000000E+02  0.51100000000E-03 0.  1.
    9900012    2    1    2    0    0  0.21376094961E+02 -0.69266936319E+01 -0.22623102865E+02  0.59301932452E+02  0.49999978889E+02 0.  0.
         12    1    1    2    0    0 -0.21376094961E+02  0.69266936319E+01  0.22623102865E+02  0.31886067548E+02  0.00000000000E+00 0. -1.
         11    1    3    3    0    0  0.19514400855E+02 -0.94431404613E+01 -0.28751260124E+02  0.36008605936E+02  0.51100000000E-03 0.  1.
        -11    1    3    3    0    0 -0.82069937819E+01  0.75969594140E+01  0.34236365089E+01  0.11695718297E+02  0.51100000000E-03 0. -1.
         12    1    3    3    0    0  0.10068687888E+02 -0.50805125847E+01  0.27045207502E+01  0.11597608219E+02  0.00000000000E+00 0. -1.
</event>
<event>
 7    1  0.7674040E-012  0.5930199E+02  0.7816164E-02  0.1266605E+00
        -11   -1    0    0    0    0  0.00000000000E+00  0.00000000000E+00  0.45593999997E+02  0.45594000000E+02  0.51100000000E-03 0. -1.
         11   -1    0    0    0    0 -0.00000000000E+00 -0.00000000000E+00 -0.45593999997E+02  0.45594000000E+02  0.51100000000E-03 0.  1.
    9900012    2    1    2    0    0  0.90858705550E+01  0.30368794312E+02 -0.34497363679E+01  0.59301993779E+02  0.50000090735E+02 0.  0.
         12    1    1    2    0    0 -0.90858705550E+01 -0.30368794312E+02  0.34497363679E+01  0.31886006221E+02  0.00000000000E+00 0. -1.
         11    1    3    3    0    0  0.10798388734E+01 -0.21838609091E+01  0.16991322754E+02  0.17165091018E+02  0.51100000000E-03 0. -1.
        -11    1    3    3    0    0  0.24492038915E+01  0.22130997035E+02 -0.52176407579E+01  0.22869267693E+02  0.51100000000E-03 0.  1.
        -12    1    3    3    0    0  0.55568277900E+01  0.10421658186E+02 -0.15223418364E+02  0.19267635068E+02  0.00000000000E+00 0.  1.
</event>
<event>
 7    1  0.7674040E-012  0.5930195E+02  0.7816164E-02  0.1266605E+00
        -11   -1    0    0    0    0  0.00000000000E+00  0.00000000000E+00  0.45593999997E+02  0.45594000000E+02  0.51100000000E-03 0. -1.
         11   -1    0    0    0    0 -0.00000000000E+00 -0.00000000000E+00 -0.45593999997E+02  0.45594000000E+02  0.51100000000E-03 0.  1.
    9900012    2    1    2    0    0  0.13260654694E+01 -0.17069497494E+02 -0.26899700402E+02  0.59301951702E+02  0.50000013997E+02 0.  0.
         12    1    1    2    0    0 -0.13260654694E+01  0.17069497494E+02  0.26899700402E+02  0.31886048298E+02  0.00000000000E+00 0. -1.
         11    1    3    3    0    0  0.32786306691E+01  0.68950791342E+01 -0.22525019436E+02  0.23783776744E+02  0.51100000000E-03 0. -1.
        -11    1    3    3    0    0  0.33292229772E+01 -0.28175063541E+02 -0.23580588110E+01  0.28468901854E+02  0.51100000000E-03 0.  1.
        -12    1    3    3    0    0 -0.52817881769E+01  0.42104869125E+01 -0.20166221546E+01  0.70492731044E+01  0.00000000000E+00 0.  1.
</event>
<event>
 7    1  0.7674040E-012  0.5930197E+02  0.7816164E-02  0.1266605E+00
        -11   -1    0    0    0    0  0.00000000000E+00  0.00000000000E+00  0.45593999997E+02  0.45594000000E+02  0.51100000000E-03 0. -1.
         11   -1    0    0    0    0 -0.00000000000E+00 -0.00000000000E+00 -0.45593999997E+02  0.45594000000E+02  0.51100000000E-03 0.  1.
    9900012    2    1    2    0    0  0.62205245669E+01 -0.30748805528E+02 -0.57039262379E+01  0.59301972624E+02  0.50000052153E+02 0.  0.
         12    1    1    2    0    0 -0.62205245669E+01  0.30748805528E+02  0.57039262379E+01  0.31886027376E+02  0.00000000000E+00 0. -1.
         11    1    3    3    0    0 -0.10545308100E+01 -0.11382107157E+02  0.36683366404E+01  0.12005044462E+02  0.51100000000E-03 0. -1.
        -11    1    3    3    0    0  0.16311933690E+02 -0.78291123178E+01 -0.21623783803E+02  0.28195074155E+02  0.51100000000E-03 0.  1.
        -12    1    3    3    0    0 -0.90368783129E+01 -0.11537586053E+02  0.12251520924E+02  0.19101854008E+02  0.00000000000E+00 0.  1.
</event>
<event>
 7    1  0.7674040E-012  0.5930195E+02  0.7816164E-02  0.1266605E+00
        -11   -1    0    0    0    0  0.00000000000E+00  0.00000000000E+00  0.45593999997E+02  0.45594000000E+02  0.51100000000E-03 0.  1.
         11   -1    0    0    0    0 -0.00000000000E+00 -0.00000000000E+00 -0.45593999997E+02  0.45594000000E+02  0.51100000000E-03 0. -1.
    9900012    2    1    2    0    0 -0.12634426964E+02  0.58280353629E+01  0.28690158911E+02  0.59301953534E+02  0.50000017337E+02 0.  0.
         12    1    1    2    0    0  0.12634426964E+02 -0.58280353629E+01 -0.28690158911E+02  0.31886046466E+02  0.00000000000E+00 0. -1.
         11    1    3    3    0    0  0.78079458690E+01 -0.87826715888E+01 -0.52200125828E+01  0.12858766292E+02  0.51100000000E-03 0. -1.
        -11    1    3    3    0    0 -0.19452156036E+02  0.46288153249E+01  0.29128148749E+02  0.35330742358E+02  0.51100000000E-03 0.  1.
        -12    1    3    3    0    0 -0.99021679694E+00  0.99818916268E+01  0.47820227451E+01  0.11112444884E+02  0.00000000000E+00 0.  1.
</event>
<event>
 7    1  0.7674040E-012  0.5930199E+02  0.7816164E-02  0.1266605E+00
        -11   -1    0    0    0    0  0.00000000000E+00  0.00000000000E+00  0.45593999997E+02  0.45594000000E+02  0.51100000000E-03 0.  1.
         11   -1    0    0    0    0 -0.00000000000E+00 -0.00000000000E+00 -0.45593999997E+02  0.45594000000E+02  0.51100000000E-03 0. -1.
    9900012    2    1    2    0    0 -0.23096998308E+02  0.20395120466E+02  0.82027575975E+01  0.59301992068E+02  0.50000087614E+02 0.  0.
         12    1    1    2    0    0  0.23096998308E+02 -0.20395120466E+02 -0.82027575975E+01  0.31886007932E+02  0.00000000000E+00 0. -1.
         11    1    3    3    0    0 -0.10032389346E+01 -0.12068781248E+02  0.10758421938E+02  0.16198938608E+02  0.51100000000E-03 0. -1.
        -11    1    3    3    0    0 -0.85585449738E+01  0.26986681004E+02 -0.19468439824E+00  0.28311968245E+02  0.51100000000E-03 0.  1.
         12    1    3    3    0    0 -0.13535214400E+02  0.54772207096E+01 -0.23609799421E+01  0.14791085215E+02  0.00000000000E+00 0. -1.
</event>
<event>
 7    1  0.7674040E-012  0.5930195E+02  0.7816164E-02  0.1266605E+00
        -11   -1    0    0    0    0  0.00000000000E+00  0.00000000000E+00  0.45593999997E+02  0.45594000000E+02  0.51100000000E-03 0.  1.
         11   -1    0    0    0    0 -0.00000000000E+00 -0.00000000000E+00 -0.45593999997E+02  0.45594000000E+02  0.51100000000E-03 0. -1.
    9900012    2    1    2    0    0  0.99883779769E+01  0.20205039819E+02 -0.22554580149E+02  0.59301946396E+02  0.50000004320E+02 0.  0.
         12    1    1    2    0    0 -0.99883779769E+01 -0.20205039819E+02  0.22554580149E+02  0.31886053604E+02  0.00000000000E+00 0. -1.
         11    1    3    3    0    0 -0.10769900828E+02  0.11817397791E+02 -0.29692903513E+01  0.16262175127E+02  0.51100000000E-03 0. -1.
        -11    1    3    3    0    0  0.18646637567E+02 -0.42387866787E+00  0.28276132677E+01  0.18864574279E+02  0.51100000000E-03 0.  1.
        -12    1    3    3    0    0  0.21116412376E+01  0.88115206957E+01 -0.22412903066E+02  0.24175196990E+02  0.00000000000E+00 0.  1.
</event>
<event>
 7    1  0.7674040E-012  0.5930198E+02  0.7816164E-02  0.1266605E+00
        -11   -1    0    0    0    0  0.00000000000E+00  0.00000000000E+00  0.45593999997E+02  0.45594000000E+02  0.51100000000E-03 0.  1.
         11   -1    0    0    0    0 -0.00000000000E+00 -0.00000000000E+00 -0.45593999997E+02  0.45594000000E+02  0.51100000000E-03 0. -1.
    9900012    2    1    2    0    0  0.29432157918E+02 -0.11809781733E+02 -0.33158986770E+01  0.59301983499E+02  0.50000071986E+02 0.  0.
         12    1    1    2    0    0 -0.29432157918E+02  0.11809781733E+02  0.33158986770E+01  0.31886016501E+02  0.00000000000E+00 0. -1.
         11    1    3    3    0    0 -0.61025147530E+01  0.83839512711E+00 -0.36664402573E+01  0.71684291948E+01  0.51100000000E-03 0. -1.
        -11    1    3    3    0    0  0.29833074725E+02 -0.13502021894E+02 -0.14790883685E+02  0.35931701646E+02  0.51100000000E-03 0.  1.
        -12    1    3    3    0    0  0.57015979458E+01  0.85384503409E+00  0.15141425265E+02  0.16201852658E+02  0.00000000000E+00 0.  1.
</event>
<event>
 7    1  0.7674040E-012  0.5930193E+02  0.7816164E-02  0.1266605E+00
        -11   -1    0    0    0    0  0.00000000000E+00  0.00000000000E+00  0.45593999997E+02  0.45594000000E+02  0.51100000000E-03 0. -1.
         11   -1    0    0    0    0 -0.00000000000E+00 -0.00000000000E+00 -0.45593999997E+02  0.45594000000E+02  0.51100000000E-03 0.  1.
    9900012    2    1    2    0    0 -0.82274414271E+01  0.29521901781E+02 -0.88027229429E+01  0.59301930810E+02  0.49999975894E+02 0.  0.
         12    1    1    2    0    0  0.82274414271E+01 -0.29521901781E+02  0.88027229429E+01  0.31886069190E+02  0.00000000000E+00 0. -1.
         11    1    3    3    0    0  0.11245351307E+02 -0.74402610951E+01 -0.34589342535E+01  0.13920475481E+02  0.51100000000E-03 0. -1.
        -11    1    3    3    0    0 -0.12340798267E+02  0.18178572345E+02  0.53601333697E+01  0.22616074469E+02  0.51100000000E-03 0.  1.
         12    1    3    3    0    0 -0.71319944672E+01  0.18783590530E+02 -0.10703922059E+02  0.22765380861E+02  0.00000000000E+00 0. -1.
</event>
<event>
 7    1  0.7674040E-012  0.5930195E+02  0.7816164E-02  0.1266605E+00
        -11   -1    0    0    0    0  0.00000000000E+00  0.00000000000E+00  0.45593999997E+02  0.45594000000E+02  0.51100000000E-03 0.  1.
         11   -1    0    0    0    0 -0.00000000000E+00 -0.00000000000E+00 -0.45593999997E+02  0.45594000000E+02  0.51100000000E-03 0. -1.
    9900012    2    1    2    0    0  0.79220509448E+01 -0.19004192980E+02  0.24347524899E+02  0.59301949591E+02  0.50000010146E+02 0.  0.
         12    1    1    2    0    0 -0.79220509448E+01  0.19004192980E+02 -0.24347524899E+02  0.31886050409E+02  0.00000000000E+00 0. -1.
         11    1    3    3    0    0  0.12804009916E+01 -0.14800394390E+02 -0.13519016107E+02  0.20086186735E+02  0.51100000000E-03 0. -1.
        -11    1    3    3    0    0  0.74380171196E+01 -0.18749417069E+01  0.26625304625E+02  0.27708236171E+02  0.51100000000E-03 0.  1.
         12    1    3    3    0    0 -0.79636716641E+00 -0.23288568825E+01  0.11241236381E+02  0.11507526685E+02  0.00000000000E+00 0. -1.
</event>
<event>
 7    1  0.7674040E-012  0.5930195E+02  0.7816164E-02  0.1266605E+00
        -11   -1    0    0    0    0  0.00000000000E+00  0.00000000000E+00  0.45593999997E+02  0.45594000000E+02  0.51100000000E-03 0.  1.
         11   -1    0    0    0    0 -0.00000000000E+00 -0.00000000000E+00 -0.45593999997E+02  0.45594000000E+02  0.51100000000E-03 0. -1.
    9900012    2    1    2    0    0 -0.16826826050E+02  0.98401141017E+00  0.27066771891E+02  0.59301945149E+02  0.50000002045E+02 0.  0.
         12    1    1    2    0    0  0.16826826050E+02 -0.98401141017E+00 -0.27066771891E+02  0.31886054851E+02  0.00000000000E+00 0. -1.
         11    1    3    3    0    0  0.30316662961E+01 -0.57333255746E+00 -0.52743788094E+01  0.61105468527E+01  0.51100000000E-03 0. -1.
        -11    1    3    3    0    0 -0.42858898022E+01 -0.37685167820E+01  0.35901724605E+02  0.36352501977E+02  0.51100000000E-03 0.  1.
        -12    1    3    3    0    0 -0.15572602544E+02  0.53258607497E+01 -0.35605739047E+01  0.16838896319E+02  0.00000000000E+00 0.  1.
</event>
<event>
 7    1  0.7674040E-012  0.5930195E+02  0.7816164E-02  0.1266605E+00
        -11   -1    0    0    0    0  0.00000000000E+00  0.00000000000E+00  0.45593999997E+02  0.45594000000E+02  0.51100000000E-03 0. -1.
         11   -1    0    0    0    0 -0.00000000000E+00 -0.00000000000E+00 -0.45593999997E+02  0.45594000000E+02  0.51100000000E-03 0.  1.
    9900012    2    1    2    0    0 -0.29738461339E+02  0.11484138437E+02 -0.67742547206E+00  0.59301946250E+02  0.50000004053E+02 0.  0.
         12    1    1    2    0    0  0.29738461339E+02 -0.11484138437E+02  0.67742547206E+00  0.31886053750E+02  0.00000000000E+00 0. -1.
         11    1    3    3    0    0 -0.27709441930E+02  0.17094573697E+01 -0.82433013682E+01  0.28960100730E+02  0.51100000000E-03 0. -1.
        -11    1    3    3    0    0  0.42748661714E+01 -0.20945671695E+01 -0.82881587705E+01  0.95579950030E+01  0.51100000000E-03 0.  1.
         12    1    3    3    0    0 -0.63038855804E+01  0.11869248236E+02  0.15854034667E+02  0.20783850517E+02  0.00000000000E+00 0. -1.
</event>
<event>
 7    1  0.7674040E-012  0.5930192E+02  0.7816164E-02  0.1266605E+00
        -11   -1    0    0    0    0  0.00000000000E+00  0.00000000000E+00  0.45593999997E+02  0.45594000000E+02  0.51100000000E-03 0.  1.
         11   -1    0    0    0    0 -0.00000000000E+00 -0.00000000000E+00 -0.45593999997E+02  0.45594000000E+02  0.51100000000E-03 0. -1.
    9900012    2    1    2    0    0  0.25431468366E+02  0.11866143873E+02  0.15137938010E+02  0.59301919638E+02  0.49999955518E+02 0.  0.
         12    1    1    2    0    0 -0.25431468366E+02 -0.11866143873E+02 -0.15137938010E+02  0.31886080362E+02  0.00000000000E+00 0. -1.
         11    1    3    3    0    0 -0.15506563841E+01  0.26180830538E+02  0.88253124948E+01  0.27671764739E+02  0.51100000000E-03 0. -1.
        -11    1    3    3    0    0  0.25726195722E+01 -0.13957805414E+01 -0.94390040272E+00  0.30753086048E+01  0.51100000000E-03 0.  1.
         12    1    3    3    0    0  0.24409505178E+02 -0.12918906124E+02  0.72565259181E+01  0.28554846294E+02  0.00000000000E+00 0. -1.
</event>
<event>
 7    1  0.7674040E-012  0.5930193E+02  0.7816164E-02  0.1266605E+00
        -11   -1    0    0    0    0  0.00000000000E+00  0.00000000000E+00  0.45593999997E+02  0.45594000000E+02  0.51100000000E-03 0.  1.
         11   -1    0    0    0    0 -0.00000000000E+00 -0.00000000000E+00 -0.45593999997E+02  0.45594000000E+02  0.51100000000E-03 0. -1.
    9900012    2    1    2    0    0  0.16873107887E+02  0.59844274063E+01  0.26385727782E+02  0.59301925112E+02  0.49999965503E+02 0.  0.
         12    1    1    2    0    0 -0.16873107887E+02 -0.59844274063E+01 -0.26385727782E+02  0.31886074888E+02  0.00000000000E+00 0. -1.
         11    1    3    3    0    0 -0.12166491321E+02 -0.75982012788E+01  0.94203073934E+01  0.17160954676E+02  0.51100000000E-03 0. -1.
        -11    1    3    3    0    0  0.26352831770E+02  0.17655730908E+02  0.18863152556E+02  0.36905488762E+02  0.51100000000E-03 0.  1.
        -12    1    3    3    0    0  0.26867674382E+01 -0.40731022230E+01 -0.18977321671E+01  0.52354816745E+01  0.00000000000E+00 0.  1.
</event>
<event>
 7    1  0.7674040E-012  0.5930196E+02  0.7816164E-02  0.1266605E+00
        -11   -1    0    0    0    0  0.00000000000E+00  0.00000000000E+00  0.45593999997E+02  0.45594000000E+02  0.51100000000E-03 0.  1.
         11   -1    0    0    0    0 -0.00000000000E+00 -0.00000000000E+00 -0.45593999997E+02  0.45594000000E+02  0.51100000000E-03 0. -1.
    9900012    2    1    2    0    0 -0.26864337766E+02  0.55427324312E+01  0.16257454599E+02  0.59301962986E+02  0.50000034575E+02 0.  0.
         12    1    1    2    0    0  0.26864337766E+02 -0.55427324312E+01 -0.16257454599E+02  0.31886037014E+02  0.00000000000E+00 0. -1.
         11    1    3    3    0    0  0.70736398779E+00 -0.12431849048E+02 -0.46934010231E+01  0.13307112684E+02  0.51100000000E-03 0. -1.
        -11    1    3    3    0    0 -0.27715575844E+02  0.22785771354E+02  0.16710502171E+02  0.39580113740E+02  0.51100000000E-03 0.  1.
        -12    1    3    3    0    0  0.14387409048E+00 -0.48111898754E+01  0.42403534509E+01  0.64147365620E+01  0.00000000000E+00 0.  1.
</event>
<event>
 7    1  0.7674040E-012  0.5930193E+02  0.7816164E-02  0.1266605E+00
        -11   -1    0    0    0    0  0.00000000000E+00  0.00000000000E+00  0.45593999997E+02  0.45594000000E+02  0.51100000000E-03 0. -1.
         11   -1    0    0    0    0 -0.00000000000E+00 -0.00000000000E+00 -0.45593999997E+02  0.45594000000E+02  0.51100000000E-03 0.  1.
    9900012    2    1    2    0    0  0.29450922267E+02  0.86391340244E+01  0.86446492606E+01  0.59301930629E+02  0.49999975565E+02 0.  0.
         12    1    1    2    0    0 -0.29450922267E+02 -0.86391340244E+01 -0.86446492606E+01  0.31886069371E+02  0.00000000000E+00 0. -1.
         11    1    3    3    0    0  0.15430334204E+02 -0.17180511495E+02  0.12665680205E+02  0.26337893693E+02  0.51100000000E-03 0. -1.
        -11    1    3    3    0    0  0.10385288392E+02  0.25461854893E+02  0.44644587356E-01  0.27498404735E+02  0.51100000000E-03 0.  1.
         12    1    3    3    0    0  0.36352996710E+01  0.35779062631E+00 -0.40656755314E+01  0.54656322010E+01  0.00000000000E+00 0. -1.
</event>
<event>
 7    1  0.7674040E-012  0.5930191E+02  0.7816164E-02  0.1266605E+00
        -11   -1    0    0    0    0  0.00000000000E+00  0.00000000000E+00  0.45593999997E+02  0.45594000000E+02  0.51100000000E-03 0.  1.
         11   -1    0    0    0    0 -0.00000000000E+00 -0.00000000000E+00 -0.45593999997E+02  0.45594000000E+02  0.51100000000E-03 0. -1.
    9900012    2    1    2    0    0 -0.52880194895E+01 -0.85744689351E+01 -0.30252897234E+02  0.59301914341E+02  0.49999945858E+02 0.  0.
         12    1    1    2    0    0  0.52880194895E+01  0.85744689351E+01  0.30252897234E+02  0.31886085659E+02  0.00000000000E+00 0. -1.
         11    1    3    3    0    0 -0.72650463935E+01 -0.10195541921E+02  0.66668943602E+01  0.14183703848E+02  0.51100000000E-03 0. -1.
        -11    1    3    3    0    0  0.76006999440E+01 -0.95350376288E+01 -0.25167698411E+02  0.27966062036E+02  0.51100000000E-03 0.  1.
         12    1    3    3    0    0 -0.56236730400E+01  0.11156110615E+02 -0.11752093183E+02  0.17152148457E+02  0.00000000000E+00 0. -1.
</event>
<event>
 7    1  0.7674040E-012  0.5930204E+02  0.7816164E-02  0.1266604E+00
        -11   -1    0    0    0    0  0.00000000000E+00  0.00000000000E+00  0.45593999997E+02  0.45594000000E+02  0.51100000000E-03 0. -1.
         11   -1    0    0    0    0 -0.00000000000E+00 -0.00000000000E+00 -0.45593999997E+02  0.45594000000E+02  0.51100000000E-03 0.  1.
    9900012    2    1    2    0    0 -0.68771466288E+01 -0.27712017503E+02  0.14193783881E+02  0.59302038188E+02  0.50000171726E+02 0.  0.
         12    1    1    2    0    0  0.68771466288E+01  0.27712017503E+02 -0.14193783881E+02  0.31885961812E+02  0.00000000000E+00 0. -1.
         11    1    3    3    0    0  0.78284207148E+01  0.10670965613E+02  0.58414372570E+01  0.14466377138E+02  0.51100000000E-03 0. -1.
        -11    1    3    3    0    0 -0.53533390617E+01 -0.16711941653E+02  0.11562838878E+02  0.21015386651E+02  0.51100000000E-03 0.  1.
         12    1    3    3    0    0 -0.93522282819E+01 -0.21671041463E+02 -0.32104922542E+01  0.23820274399E+02  0.00000000000E+00 0. -1.
</event>
<event>
 7    1  0.7674040E-012  0.5930207E+02  0.7816164E-02  0.1266604E+00
        -11   -1    0    0    0    0  0.00000000000E+00  0.00000000000E+00  0.45593999997E+02  0.45594000000E+02  0.51100000000E-03 0. -1.
         11   -1    0    0    0    0 -0.00000000000E+00 -0.00000000000E+00 -0.45593999997E+02  0.45594000000E+02  0.51100000000E-03 0.  1.
    9900012    2    1    2    0    0 -0.11656972779E+02  0.25005386422E+02 -0.15986177603E+02  0.59302074597E+02  0.50000238126E+02 0.  0.
         12    1    1    2    0    0  0.11656972779E+02 -0.25005386422E+02  0.15986177603E+02  0.31885925403E+02  0.00000000000E+00 0. -1.
         11    1    3    3    0    0  0.97321611276E+01  0.69677242650E+01  0.17451636919E+01  0.12095856242E+02  0.51100000000E-03 0. -1.
        -11    1    3    3    0    0 -0.27522863580E+02  0.53786200353E+01 -0.17657082036E+02  0.33139253453E+02  0.51100000000E-03 0.  1.
        -12    1    3    3    0    0  0.61337296729E+01  0.12659042121E+02 -0.74259258781E-01  0.14066964902E+02  0.00000000000E+00 0.  1.
</event>
<event>
 7    1  0.7674040E-012  0.5930195E+02  0.7816164E-02  0.1266605E+00
        -11   -1    0    0    0    0  0.00000000000E+00  0.00000000000E+00  0.45593999997E+02  0.45594000000E+02  0.51100000000E-03 0.  1.
         11   -1    0    0    0    0 -0.00000000000E+00 -0.00000000000E+00 -0.45593999997E+02  0.45594000000E+02  0.51100000000E-03 0. -1.
    9900012    2    1    2    0    0  0.25487371783E+02 -0.19156859590E+02 -0.35857133161E+00  0.59301953472E+02  0.50000017224E+02 0.  0.
         12    1    1    2    0    0 -0.25487371783E+02  0.19156859590E+02  0.35857133161E+00  0.31886046528E+02  0.00000000000E+00 0. -1.
         11    1    3    3    0    0  0.16315611151E+02  0.12350149501E+02  0.51829448914E+00  0.20469342671E+02  0.51100000000E-03 0. -1.
        -11    1    3    3    0    0  0.66876831537E+01 -0.22331954719E+02  0.91252957888E+01  0.25034223196E+02  0.51100000000E-03 0.  1.
         12    1    3    3    0    0  0.24840774782E+01 -0.91750543712E+01 -0.10002161610E+02  0.13798387605E+02  0.00000000000E+00 0. -1.
</event>
<event>
 7    1  0.7674040E-012  0.5930193E+02  0.7816164E-02  0.1266605E+00
        -11   -1    0    0    0    0  0.00000000000E+00  0.00000000000E+00  0.45593999997E+02  0.45594000000E+02  0.51100000000E-03 0.  1.
         11   -1    0    0    0    0 -0.00000000000E+00 -0.00000000000E+00 -0.45593999997E+02  0.45594000000E+02  0.51100000000E-03 0. -1.
    9900012    2    1    2    0    0 -0.23332953273E+02 -0.46876483077E+01  0.21220766835E+02  0.59301926235E+02  0.49999967550E+02 0.  0.
         12    1    1    2    0    0  0.23332953273E+02  0.46876483077E+01 -0.21220766835E+02  0.31886073765E+02  0.00000000000E+00 0. -1.
         11    1    3    3    0    0  0.87511986506E+01 -0.81848054282E+01  0.63012581298E+01  0.13538108140E+02  0.51100000000E-03 0. -1.
        -11    1    3    3    0    0 -0.19509076358E+02  0.13873915818E+02  0.16952498899E+02  0.29333885178E+02  0.51100000000E-03 0.  1.
         12    1    3    3    0    0 -0.12575075566E+02 -0.10376758697E+02 -0.20329901938E+01  0.16429932917E+02  0.00000000000E+00 0. -1.
</event>
<event>
 7    1  0.7674040E-012  0.5930196E+02  0.7816164E-02  0.1266605E+00
        -11   -1    0    0    0    0  0.00000000000E+00  0.00000000000E+00  0.45593999997E+02  0.45594000000E+02  0.51100000000E-03 0.  1.
         11   -1    0    0    0    0 -0.00000000000E+00 -0.00000000000E+00 -0.45593999997E+02  0.45594000000E+02  0.51100000000E-03 0. -1.
    9900012    2    1    2    0    0  0.24956372349E+02 -0.18831455875E+02  0.62670243913E+01  0.59301955311E+02  0.50000020577E+02 0.  0.
         12    1    1    2    0    0 -0.24956372349E+02  0.18831455875E+02 -0.62670243913E+01  0.31886044689E+02  0.00000000000E+00 0. -1.
         11    1    3    3    0    0 -0.10427433553E+02 -0.16433505162E+02 -0.54692726061E+01  0.20216438992E+02  0.51100000000E-03 0. -1.
        -11    1    3    3    0    0  0.11415867020E+02  0.46031603027E+01  0.41215523733E+01  0.12980689458E+02  0.51100000000E-03 0.  1.
         12    1    3    3    0    0  0.23967938882E+02 -0.70011110158E+01  0.76147446242E+01  0.26104826860E+02  0.00000000000E+00 0. -1.
</event>
<event>
 7    1  0.7674040E-012  0.5930194E+02  0.7816164E-02  0.1266605E+00
        -11   -1    0    0    0    0  0.00000000000E+00  0.00000000000E+00  0.45593999997E+02  0.45594000000E+02  0.51100000000E-03 0.  1.
         11   -1    0    0    0    0 -0.00000000000E+00 -0.00000000000E+00 -0.45593999997E+02  0.45594000000E+02  0.51100000000E-03 0. -1.
    9900012    2    1    2    0    0 -0.88635570522E+01 -0.30371908240E+02  0.39629713350E+01  0.59301943556E+02  0.49999999139E+02 0.  0.
         12    1    1    2    0    0  0.88635570522E+01  0.30371908240E+02 -0.39629713350E+01  0.31886056444E+02  0.00000000000E+00 0. -1.
         11    1    3    3    0    0 -0.50617999605E+01  0.30518809607E+01  0.24594322164E+01  0.64019218464E+01  0.51100000000E-03 0. -1.
        -11    1    3    3    0    0 -0.40236072784E+01 -0.35971465927E+02  0.14987260093E+02  0.39175933196E+02  0.51100000000E-03 0.  1.
        -12    1    3    3    0    0  0.22185018669E+00  0.25476767260E+01 -0.13483720974E+02  0.13724088513E+02  0.00000000000E+00 0.  1.
</event>
<event>
 7    1  0.7674040E-012  0.5930196E+02  0.7816164E-02  0.1266605E+00
        -11   -1    0    0    0    0  0.00000000000E+00  0.00000000000E+00  0.45593999997E+02  0.45594000000E+02  0.51100000000E-03 0. -1.
         11   -1    0    0    0    0 -0.00000000000E+00 -0.00000000000E+00 -0.45593999997E+02  0.45594000000E+02  0.51100000000E-03 0.  1.
    9900012    2    1    2    0    0  0.96171995111E+01  0.24755774709E+02 -0.17645980653E+02  0.59301960091E+02  0.50000029295E+02 0.  0.
         12    1    1    2    0    0 -0.96171995111E+01 -0.24755774709E+02  0.17645980653E+02  0.31886039909E+02  0.00000000000E+00 0. -1.
         11    1    3    3    0    0  0.18674758895E+02  0.55973642235E+01 -0.22280007094E+02  0.29605334357E+02  0.51100000000E-03 0. -1.
        -11    1    3    3    0    0 -0.73646684238E+01  0.13002065043E+01 -0.53236582593E+01  0.91798810161E+01  0.51100000000E-03 0.  1.
         12    1    3    3    0    0 -0.16928909600E+01  0.17858203981E+02  0.99576846996E+01  0.20516744718E+02  0.00000000000E+00 0. -1.
</event>
<event>
 7    1  0.7674040E-012  0.5930193E+02  0.7816164E-02  0.1266605E+00
        -11   -1    0    0    0    0  0.00000000000E+00  0.00000000000E+00  0.45593999997E+02  0.45594000000E+02  0.51100000000E-03 0. -1.
         11   -1    0    0    0    0 -0.00000000000E+00 -0.00000000000E+00 -0.45593999997E+02  0.45594000000E+02  0.51100000000E-03 0.  1.
    9900012    2    1    2    0    0 -0.77237686469E+00 -0.26158327571E+01 -0.31769200694E+02  0.59301933140E+02  0.49999980143E+02 0.  0.
         12    1    1    2    0    0  0.77237686469E+00  0.26158327571E+01  0.31769200694E+02  0.31886066860E+02  0.00000000000E+00 0. -1.
         11    1    3    3    0    0 -0.49690596071E+01 -0.17961282538E+02 -0.27733889727E+02  0.33413588006E+02  0.51100000000E-03 0. -1.
        -11    1    3    3    0    0 -0.23309783505E+00  0.15522459555E+02 -0.99927967191E+01  0.18462314908E+02  0.51100000000E-03 0.  1.
         12    1    3    3    0    0  0.44297805775E+01 -0.17700977376E+00  0.59574857518E+01  0.74260302254E+01  0.00000000000E+00 0. -1.
</event>
<event>
 7    1  0.7674040E-012  0.5930193E+02  0.7816164E-02  0.1266605E+00
        -11   -1    0    0    0    0  0.00000000000E+00  0.00000000000E+00  0.45593999997E+02  0.45594000000E+02  0.51100000000E-03 0.  1.
         11   -1    0    0    0    0 -0.00000000000E+00 -0.00000000000E+00 -0.45593999997E+02  0.45594000000E+02  0.51100000000E-03 0. -1.
    9900012    2    1    2    0    0 -0.11224690371E+02  0.88860843427E+01  0.28491494190E+02  0.59301930784E+02  0.49999975847E+02 0.  0.
         12    1    1    2    0    0  0.11224690371E+02 -0.88860843427E+01 -0.28491494190E+02  0.31886069216E+02  0.00000000000E+00 0. -1.
         11    1    3    3    0    0  0.71359792994E+01  0.14000675388E+02  0.32932980811E+02  0.36490030656E+02  0.51100000000E-03 0. -1.
        -11    1    3    3    0    0 -0.67587456054E+01 -0.47907910229E+01  0.32380964315E+01  0.88948068863E+01  0.51100000000E-03 0.  1.
         12    1    3    3    0    0 -0.11601924065E+02 -0.32380002288E+00 -0.76795830523E+01  0.13917093242E+02  0.00000000000E+00 0. -1.
</event>
<event>
 7    1  0.7674040E-012  0.5930186E+02  0.7816164E-02  0.1266605E+00
        -11   -1    0    0    0    0  0.00000000000E+00  0.00000000000E+00  0.45593999997E+02  0.45594000000E+02  0.51100000000E-03 0. -1.
         11   -1    0    0    0    0 -0.00000000000E+00 -0.00000000000E+00 -0.45593999997E+02  0.45594000000E+02  0.51100000000E-03 0.  1.
    9900012    2    1    2    0    0 -0.11733532406E+02  0.29534593838E+02  0.25995715969E+01  0.59301862128E+02  0.49999850635E+02 0.  0.
         12    1    1    2    0    0  0.11733532406E+02 -0.29534593838E+02 -0.25995715969E+01  0.31886137872E+02  0.00000000000E+00 0. -1.
         11    1    3    3    0    0 -0.64431096153E+01  0.25282405802E+02  0.20468949316E+02  0.33161598137E+02  0.51100000000E-03 0. -1.
        -11    1    3    3    0    0 -0.81856040469E+01 -0.44807877636E+01 -0.12100585023E+02  0.15280894304E+02  0.51100000000E-03 0.  1.
        -12    1    3    3    0    0  0.28951812567E+01  0.87329757993E+01 -0.57687926963E+01  0.10859369687E+02  0.00000000000E+00 0.  1.
</event>
<event>
 7    1  0.7674040E-012  0.5930194E+02  0.7816164E-02  0.1266605E+00
        -11   -1    0    0    0    0  0.00000000000E+00  0.00000000000E+00  0.45593999997E+02  0.45594000000E+02  0.51100000000E-03 0.  1.
         11   -1    0    0    0    0 -0.00000000000E+00 -0.00000000000E+00 -0.45593999997E+02  0.45594000000E+02  0.51100000000E-03 0. -1.
    9900012    2    1    2    0    0 -0.68313052480E+01  0.14975716441E+02  0.27309004540E+02  0.59301944376E+02  0.50000000635E+02 0.  0.
         12    1    1    2    0    0  0.68313052480E+01 -0.14975716441E+02 -0.27309004540E+02  0.31886055624E+02  0.00000000000E+00 0. -1.
         11    1    3    3    0    0  0.19081801921E+02  0.57002984504E+01 -0.26908729508E-02  0.19915033881E+02  0.51100000000E-03 0. -1.
        -11    1    3    3    0    0 -0.17311440806E+02  0.26939656406E+01  0.17737187873E+02  0.24930929938E+02  0.51100000000E-03 0.  1.
         12    1    3    3    0    0 -0.86016663623E+01  0.65814523499E+01  0.95745075397E+01  0.14455980557E+02  0.00000000000E+00 0. -1.
</event>
<event>
 7    1  0.7674040E-012  0.5930198E+02  0.7816164E-02  0.1266605E+00
        -11   -1    0    0    0    0  0.00000000000E+00  0.00000000000E+00  0.45593999997E+02  0.45594000000E+02  0.51100000000E-03 0.  1.
         11   -1    0    0    0    0 -0.00000000000E+00 -0.00000000000E+00 -0.45593999997E+02  0.45594000000E+02  0.51100000000E-03 0. -1.
    9900012    2    1    2    0    0  0.13908958496E+02 -0.23079456593E+02  0.17046936988E+02  0.59301976358E+02  0.50000058962E+02 0.  0.
         12    1    1    2    0    0 -0.13908958496E+02  0.23079456593E+02 -0.17046936988E+02  0.31886023642E+02  0.00000000000E+00 0. -1.
         11    1    3    3    0    0  0.73866881088E+01 -0.67684308483E+01 -0.34677285551E+01  0.10601884689E+02  0.51100000000E-03 0. -1.
        -11    1    3    3    0    0 -0.66315301957E+01 -0.99239058300E+01  0.29302471649E+02  0.31640100264E+02  0.51100000000E-03 0.  1.
        -12    1    3    3    0    0  0.13153800583E+02 -0.63871199149E+01 -0.87878061068E+01  0.17059991405E+02  0.00000000000E+00 0.  1.
</event>
<event>
 7    1  0.7674040E-012  0.5930191E+02  0.7816164E-02  0.1266605E+00
        -11   -1    0    0    0    0  0.00000000000E+00  0.00000000000E+00  0.45593999997E+02  0.45594000000E+02  0.51100000000E-03 0.  1.
         11   -1    0    0    0    0 -0.00000000000E+00 -0.00000000000E+00 -0.45593999997E+02  0.45594000000E+02  0.51100000000E-03 0. -1.
    9900012    2    1    2    0    0 -0.20893090102E+02 -0.14629685693E+00  0.24086929181E+02  0.59301909394E+02  0.49999936835E+02 0.  0.
         12    1    1    2    0    0  0.20893090102E+02  0.14629685693E+00 -0.24086929181E+02  0.31886090606E+02  0.00000000000E+00 0. -1.
         11    1    3    3    0    0 -0.25568182299E+02 -0.22846160177E+00 -0.33847233796E+01  0.25792256462E+02  0.51100000000E-03 0. -1.
        -11    1    3    3    0    0  0.25914792790E+00  0.89357903427E+01  0.16270840947E+02  0.18564907004E+02  0.51100000000E-03 0.  1.
         12    1    3    3    0    0  0.44159442693E+01 -0.88536255979E+01  0.11200811614E+02  0.14944745927E+02  0.00000000000E+00 0. -1.
</event>
<event>
 7    1  0.7674040E-012  0.5930195E+02  0.7816164E-02  0.1266605E+00
        -11   -1    0    0    0    0  0.00000000000E+00  0.00000000000E+00  0.45593999997E+02  0.45594000000E+02  0.51100000000E-03 0.  1.
         11   -1    0    0    0    0 -0.00000000000E+00 -0.00000000000E+00 -0.45593999997E+02  0.45594000000E+02  0.51100000000E-03 0. -1.
    9900012    2    1    2    0    0 -0.13178886573E+02 -0.28114107950E+02  0.72549350614E+01  0.59301949761E+02  0.50000010456E+02 0.  0.
         12    1    1    2    0    0  0.13178886573E+02  0.28114107950E+02 -0.72549350614E+01  0.31886050239E+02  0.00000000000E+00 0. -1.
         11    1    3    3    0    0  0.92282493652E+01  0.98021036543E+01 -0.29341929330E+01  0.13778654173E+02  0.51100000000E-03 0. -1.
        -11    1    3    3    0    0 -0.14336384129E+02 -0.24064944182E+02  0.38096864348E+01  0.28269544732E+02  0.51100000000E-03 0.  1.
         12    1    3    3    0    0 -0.80707518088E+01 -0.13851267422E+02  0.63794415597E+01  0.17253750855E+02  0.00000000000E+00 0. -1.
</event>
<event>
 7    1  0.7674040E-012  0.5930201E+02  0.7816164E-02  0.1266605E+00
        -11   -1    0    0    0    0  0.00000000000E+00  0.00000000000E+00  0.45593999997E+02  0.45594000000E+02  0.51100000000E-03 0.  1.
         11   -1    0    0    0    0 -0.00000000000E+00 -0.00000000000E+00 -0.45593999997E+02  0.45594000000E+02  0.51100000000E-03 0. -1.
    9900012    2    1    2    0    0  0.16110543475E+02 -0.12378486763E+02  0.24575186203E+02  0.59302010561E+02  0.50000121341E+02 0.  0.
         12    1    1    2    0    0 -0.16110543475E+02  0.12378486763E+02 -0.24575186203E+02  0.31885989439E+02  0.00000000000E+00 0. -1.
         11    1    3    3    0    0  0.22401360647E+02  0.83864868539E+01  0.22721814811E+02  0.32991438118E+02  0.51100000000E-03 0. -1.
        -11    1    3    3    0    0 -0.82354044282E+01 -0.59737682097E+01 -0.30261011901E+01  0.10614380877E+02  0.51100000000E-03 0.  1.
         12    1    3    3    0    0  0.19445872562E+01 -0.14791205407E+02  0.48794725825E+01  0.15696191566E+02  0.00000000000E+00 0. -1.
</event>
<event>
 7    1  0.7674040E-012  0.5930193E+02  0.7816164E-02  0.1266605E+00
        -11   -1    0    0    0    0  0.00000000000E+00  0.00000000000E+00  0.45593999997E+02  0.45594000000E+02  0.51100000000E-03 0.  1.
         11   -1    0    0    0    0 -0.00000000000E+00 -0.00000000000E+00 -0.45593999997E+02  0.45594000000E+02  0.51100000000E-03 0. -1.
    9900012    2    1    2    0    0 -0.92429817512E+01  0.27057973155E+02  0.14112216866E+02  0.59301932702E+02  0.49999979344E+02 0.  0.
         12    1    1    2    0    0  0.92429817512E+01 -0.27057973155E+02 -0.14112216866E+02  0.31886067298E+02  0.00000000000E+00 0. -1.
         11    1    3    3    0    0  0.97002104497E+01 -0.41318588575E+01  0.15618099131E+02  0.18843867998E+02  0.51100000000E-03 0. -1.
        -11    1    3    3    0    0 -0.19362349348E+01  0.17715083923E+02  0.35689584679E+01  0.18174450994E+02  0.51100000000E-03 0.  1.
         12    1    3    3    0    0 -0.17006957266E+02  0.13474748089E+02 -0.50748407332E+01  0.22283613710E+02  0.00000000000E+00 0. -1.
</event>
<event>
 7    1  0.7674040E-012  0.5930195E+02  0.7816164E-02  0.1266605E+00
        -11   -1    0    0    0    0  0.00000000000E+00  0.00000000000E+00  0.45593999997E+02  0.45594000000E+02  0.51100000000E-03 0.  1.
         11   -1    0    0    0    0 -0.00000000000E+00 -0.00000000000E+00 -0.45593999997E+02  0.45594000000E+02  0.51100000000E-03 0. -1.
    9900012    2    1    2    0    0  0.25080147114E+02 -0.13086865503E+01  0.19646724198E+02  0.59301949579E+02  0.50000010124E+02 0.  0.
         12    1    1    2    0    0 -0.25080147114E+02  0.13086865503E+01 -0.19646724198E+02  0.31886050421E+02  0.00000000000E+00 0. -1.
         11    1    3    3    0    0 -0.74133089532E+01  0.42113765235E+01 -0.37128467567E+01  0.92993587499E+01  0.51100000000E-03 0. -1.
        -11    1    3    3    0    0  0.76617351967E+01 -0.14313440388E+02  0.15662042139E+02  0.22558287306E+02  0.51100000000E-03 0.  1.
        -12    1    3    3    0    0  0.24831720870E+02  0.87933773146E+01  0.76975288155E+01  0.27444303523E+02  0.00000000000E+00 0.  1.
</event>
<event>
 7    1  0.7674040E-012  0.5930194E+02  0.7816164E-02  0.1266605E+00
        -11   -1    0    0    0    0  0.00000000000E+00  0.00000000000E+00  0.45593999997E+02  0.45594000000E+02  0.51100000000E-03 0. -1.
         11   -1    0    0    0    0 -0.00000000000E+00 -0.00000000000E+00 -0.45593999997E+02  0.45594000000E+02  0.51100000000E-03 0.  1.
    9900012    2    1    2    0    0  0.10543828475E+02  0.21480561112E+02 -0.21074481304E+02  0.59301943693E+02  0.49999999390E+02 0.  0.
         12    1    1    2    0    0 -0.10543828475E+02 -0.21480561112E+02  0.21074481304E+02  0.31886056307E+02  0.00000000000E+00 0. -1.
         11    1    3    3    0    0 -0.11986273129E+02  0.81284255164E+01  0.96274296031E+01  0.17390498725E+02  0.51100000000E-03 0. -1.
        -11    1    3    3    0    0  0.13932186064E+02  0.61259216684E+01 -0.25116728334E+02  0.29368056920E+02  0.51100000000E-03 0.  1.
         12    1    3    3    0    0  0.85979155392E+01  0.72262139269E+01 -0.55851825732E+01  0.12543388048E+02  0.00000000000E+00 0. -1.
</event>
<event>
 7    1  0.7674040E-012  0.5930193E+02  0.7816164E-02  0.1266605E+00
        -11   -1    0    0    0    0  0.00000000000E+00  0.00000000000E+00  0.45593999997E+02  0.45594000000E+02  0.51100000000E-03 0.  1.
         11   -1    0    0    0    0 -0.00000000000E+00 -0.00000000000E+00 -0.45593999997E+02  0.45594000000E+02  0.51100000000E-03 0. -1.
    9900012    2    1    2    0    0 -0.13001820147E+02  0.28198808177E+02  0.72457989347E+01  0.59301926050E+02  0.49999967213E+02 0.  0.
         12    1    1    2    0    0  0.13001820147E+02 -0.28198808177E+02 -0.72457989347E+01  0.31886073950E+02  0.00000000000E+00 0. -1.
         11    1    3    3    0    0 -0.10714577703E+02 -0.29424036952E+01  0.14122025888E+02  0.17969182795E+02  0.51100000000E-03 0. -1.
        -11    1    3    3    0    0  0.74657947039E+01  0.28777873177E+02 -0.10936513607E+01  0.29750632744E+02  0.51100000000E-03 0.  1.
        -12    1    3    3    0    0 -0.97530371479E+01  0.23633386955E+01 -0.57825755927E+01  0.11582110511E+02  0.00000000000E+00 0.  1.
</event>
<event>
 7    1  0.7674040E-012  0.5930196E+02  0.7816164E-02  0.1266605E+00
        -11   -1    0    0    0    0  0.00000000000E+00  0.00000000000E+00  0.45593999997E+02  0.45594000000E+02  0.51100000000E-03 0.  1.
         11   -1    0    0    0    0 -0.00000000000E+00 -0.00000000000E+00 -0.45593999997E+02  0.45594000000E+02  0.51100000000E-03 0. -1.
    9900012    2    1    2    0    0 -0.13447308946E+02  0.16425742150E+02  0.23792534183E+02  0.59301955938E+02  0.50000021722E+02 0.  0.
         12    1    1    2    0    0  0.13447308946E+02 -0.16425742150E+02 -0.23792534183E+02  0.31886044062E+02  0.00000000000E+00 0. -1.
         11    1    3    3    0    0 -0.12054067337E+02  0.51305793905E+01 -0.21447852002E+01  0.13274919512E+02  0.51100000000E-03 0. -1.
        -11    1    3    3    0    0  0.17025087795E+02  0.85811682100E+01  0.10048270192E+02  0.21551282941E+02  0.51100000000E-03 0.  1.
        -12    1    3    3    0    0 -0.18418329404E+02  0.27139945492E+01  0.15889049191E+02  0.24475753485E+02  0.00000000000E+00 0.  1.
</event>
<event>
 7    1  0.7674040E-012  0.5930194E+02  0.7816164E-02  0.1266605E+00
        -11   -1    0    0    0    0  0.00000000000E+00  0.00000000000E+00  0.45593999997E+02  0.45594000000E+02  0.51100000000E-03 0. -1.
         11   -1    0    0    0    0 -0.00000000000E+00 -0.00000000000E+00 -0.45593999997E+02  0.45594000000E+02  0.51100000000E-03 0.  1.
    9900012    2    1    2    0    0 -0.31013915320E+02  0.73246892725E+01  0.10984811246E+01  0.59301942276E+02  0.49999996805E+02 0.  0.
         12    1    1    2    0    0  0.31013915320E+02 -0.73246892725E+01 -0.10984811246E+01  0.31886057724E+02  0.00000000000E+00 0. -1.
         11    1    3    3    0    0 -0.17947283171E+02  0.51668471029E+01 -0.82848241043E+01  0.20431338500E+02  0.51100000000E-03 0. -1.
        -11    1    3    3    0    0  0.12233772719E+02  0.14157229543E+00  0.16975010753E+01  0.12351791280E+02  0.51100000000E-03 0.  1.
         12    1    3    3    0    0 -0.25300404868E+02  0.20162698741E+01  0.76858041536E+01  0.26518812496E+02  0.00000000000E+00 0. -1.
</event>
<event>
 7    1  0.7674040E-012  0.5930196E+02  0.7816164E-02  0.1266605E+00
        -11   -1    0    0    0    0  0.00000000000E+00  0.00000000000E+00  0.45593999997E+02  0.45594000000E+02  0.51100000000E-03 0. -1.
         11   -1    0    0    0    0 -0.00000000000E+00 -0.00000000000E+00 -0.45593999997E+02  0.45594000000E+02  0.51100000000E-03 0.  1.
    9900012    2    1    2    0    0  0.85011948255E+01 -0.80381275475E+01 -0.29662054620E+02  0.59301963993E+02  0.50000036412E+02 0.  0.
         12    1    1    2    0    0 -0.85011948255E+01  0.80381275475E+01  0.29662054620E+02  0.31886036007E+02  0.00000000000E+00 0. -1.
         11    1    3    3    0    0  0.27209300075E+01 -0.57430374347E+01  0.10052726391E+02  0.11892991518E+02  0.51100000000E-03 0. -1.
        -11    1    3    3    0    0  0.12374687453E+02  0.66168806953E+01 -0.16341897344E+02  0.21540046628E+02  0.51100000000E-03 0.  1.
        -12    1    3    3    0    0 -0.65944226347E+01 -0.89119708081E+01 -0.23372883668E+02  0.25868925848E+02  0.00000000000E+00 0.  1.
</event>
<event>
 7    1  0.7674040E-012  0.5930194E+02  0.7816164E-02  0.1266605E+00
        -11   -1    0    0    0    0  0.00000000000E+00  0.00000000000E+00  0.45593999997E+02  0.45594000000E+02  0.51100000000E-03 0.  1.
         11   -1    0    0    0    0 -0.00000000000E+00 -0.00000000000E+00 -0.45593999997E+02  0.45594000000E+02  0.51100000000E-03 0. -1.
    9900012    2    1    2    0    0 -0.23511673593E+02 -0.60312883336E+01  0.20677178488E+02  0.59301938086E+02  0.49999989165E+02 0.  0.
         12    1    1    2    0    0  0.23511673593E+02  0.60312883336E+01 -0.20677178488E+02  0.31886061914E+02  0.00000000000E+00 0. -1.
         11    1    3    3    0    0 -0.30352170754E+02 -0.77565462825E+01  0.25259697112E+01  0.31429266663E+02  0.51100000000E-03 0. -1.
        -11    1    3    3    0    0 -0.48281667293E+01  0.49464292799E+01  0.12987210853E+02  0.14712103948E+02  0.51100000000E-03 0.  1.
         12    1    3    3    0    0  0.11668663890E+02 -0.32211713309E+01  0.51639979240E+01  0.13160567475E+02  0.00000000000E+00 0. -1.
</event>
<event>
 7    1  0.7674040E-012  0.5930194E+02  0.7816164E-02  0.1266605E+00
        -11   -1    0    0    0    0  0.00000000000E+00  0.00000000000E+00  0.45593999997E+02  0.45594000000E+02  0.51100000000E-03 0.  1.
         11   -1    0    0    0    0 -0.00000000000E+00 -0.00000000000E+00 -0.45593999997E+02  0.45594000000E+02  0.51100000000E-03 0. -1.
    9900012    2    1    2    0    0 -0.10034820517E+02 -0.27397774028E+02  0.12860224764E+02  0.59301936814E+02  0.49999986844E+02 0.  0.
         12    1    1    2    0    0  0.10034820517E+02  0.27397774028E+02 -0.12860224764E+02  0.31886063186E+02  0.00000000000E+00 0. -1.
         11    1    3    3    0    0 -0.87386241966E+01  0.76785944658E+01 -0.95354528364E+01  0.15041583257E+02  0.51100000000E-03 0. -1.
        -11    1    3    3    0    0 -0.78583350066E+01 -0.20141457636E+02  0.15213018274E+02  0.26436105425E+02  0.51100000000E-03 0.  1.
         12    1    3    3    0    0  0.65621386865E+01 -0.14934910858E+02  0.71826593264E+01  0.17824248132E+02  0.00000000000E+00 0. -1.
</event>
<event>
 7    1  0.7674040E-012  0.5930194E+02  0.7816164E-02  0.1266605E+00
        -11   -1    0    0    0    0  0.00000000000E+00  0.00000000000E+00  0.45593999997E+02  0.45594000000E+02  0.51100000000E-03 0.  1.
         11   -1    0    0    0    0 -0.00000000000E+00 -0.00000000000E+00 -0.45593999997E+02  0.45594000000E+02  0.51100000000E-03 0. -1.
    9900012    2    1    2    0    0  0.12080347585E+02  0.12687625809E+02  0.26642258228E+02  0.59301943958E+02  0.49999999873E+02 0.  0.
         12    1    1    2    0    0 -0.12080347585E+02 -0.12687625809E+02 -0.26642258228E+02  0.31886056042E+02  0.00000000000E+00 0. -1.
         11    1    3    3    0    0 -0.45854179117E+01  0.48185174385E+01 -0.12768567727E+02  0.14397238964E+02  0.51100000000E-03 0. -1.
        -11    1    3    3    0    0  0.15637942526E+02  0.39133020776E+01  0.36456954726E+02  0.39861870600E+02  0.51100000000E-03 0.  1.
         12    1    3    3    0    0  0.10278229704E+01  0.39558062925E+01  0.29538712291E+01  0.50428343935E+01  0.00000000000E+00 0. -1.
</event>
<event>
 7    1  0.7674040E-012  0.5930194E+02  0.7816164E-02  0.1266605E+00
        -11   -1    0    0    0    0  0.00000000000E+00  0.00000000000E+00  0.45593999997E+02  0.45594000000E+02  0.51100000000E-03 0.  1.
         11   -1    0    0    0    0 -0.00000000000E+00 -0.00000000000E+00 -0.45593999997E+02  0.45594000000E+02  0.51100000000E-03 0. -1.
    9900012    2    1    2    0    0 -0.14006213815E+02  0.27719957672E+02  0.72215563462E+01  0.59301937922E+02  0.49999988865E+02 0.  0.
         12    1    1    2    0    0  0.14006213815E+02 -0.27719957672E+02 -0.72215563462E+01  0.31886062078E+02  0.00000000000E+00 0. -1.
         11    1    3    3    0    0 -0.10608935552E+02  0.24229548251E+02  0.78938954661E+01  0.27603153948E+02  0.51100000000E-03 0. -1.
        -11    1    3    3    0    0 -0.69844795063E+01 -0.91581954651E+01  0.96161763455E+01  0.15004210940E+02  0.51100000000E-03 0.  1.
         12    1    3    3    0    0  0.35872012425E+01  0.12648604886E+02 -0.10288515465E+02  0.16694573034E+02  0.00000000000E+00 0. -1.
</event>
<event>
 7    1  0.7674040E-012  0.5930195E+02  0.7816164E-02  0.1266605E+00
        -11   -1    0    0    0    0  0.00000000000E+00  0.00000000000E+00  0.45593999997E+02  0.45594000000E+02  0.51100000000E-03 0.  1.
         11   -1    0    0    0    0 -0.00000000000E+00 -0.00000000000E+00 -0.45593999997E+02  0.45594000000E+02  0.51100000000E-03 0. -1.
    9900012    2    1    2    0    0 -0.18255872097E+01  0.88467802459E+01  0.30579764103E+02  0.59301948786E+02  0.50000008679E+02 0.  0.
         12    1    1    2    0    0  0.18255872097E+01 -0.88467802459E+01 -0.30579764103E+02  0.31886051214E+02  0.00000000000E+00 0. -1.
         11    1    3    3    0    0  0.18640332035E+02  0.36574198117E+01  0.26831331275E+02  0.32874899791E+02  0.51100000000E-03 0. -1.
        -11    1    3    3    0    0 -0.15231699920E+02  0.53754940997E+01 -0.43995865343E+01  0.16740877552E+02  0.51100000000E-03 0.  1.
         12    1    3    3    0    0 -0.52342193248E+01 -0.18613366548E+00  0.81480193632E+01  0.96861714430E+01  0.00000000000E+00 0. -1.
</event>
<event>
 7    1  0.7674040E-012  0.5930193E+02  0.7816164E-02  0.1266605E+00
        -11   -1    0    0    0    0  0.00000000000E+00  0.00000000000E+00  0.45593999997E+02  0.45594000000E+02  0.51100000000E-03 0.  1.
         11   -1    0    0    0    0 -0.00000000000E+00 -0.00000000000E+00 -0.45593999997E+02  0.45594000000E+02  0.51100000000E-03 0. -1.
    9900012    2    1    2    0    0  0.81931067298E+00 -0.96836076063E+01  0.30369030345E+02  0.59301928897E+02  0.49999972406E+02 0.  0.
         12    1    1    2    0    0 -0.81931067298E+00  0.96836076063E+01 -0.30369030345E+02  0.31886071103E+02  0.00000000000E+00 0. -1.
         11    1    3    3    0    0 -0.91744676960E+01  0.45072325150E+00  0.22351238123E+02  0.24165095796E+02  0.51100000000E-03 0. -1.
        -11    1    3    3    0    0  0.15351061010E+02 -0.70507085868E+01 -0.74627446414E+01  0.18467813178E+02  0.51100000000E-03 0.  1.
        -12    1    3    3    0    0 -0.53572826415E+01 -0.30836222710E+01  0.15480536864E+02  0.16669019923E+02  0.00000000000E+00 0.  1.
</event>
<event>
 7    1  0.7674040E-012  0.5930192E+02  0.7816164E-02  0.1266605E+00
        -11   -1    0    0    0    0  0.00000000000E+00  0.00000000000E+00  0.45593999997E+02  0.45594000000E+02  0.51100000000E-03 0.  1.
         11   -1    0    0    0    0 -0.00000000000E+00 -0.00000000000E+00 -0.45593999997E+02  0.45594000000E+02  0.51100000000E-03 0. -1.
    9900012    2    1    2    0    0  0.21428801602E+02  0.14389165916E+02  0.18721125067E+02  0.59301919061E+02  0.49999954468E+02 0.  0.
         12    1    1    2    0    0 -0.21428801602E+02 -0.14389165916E+02 -0.18721125067E+02  0.31886080939E+02  0.00000000000E+00 0. -1.
         11    1    3    3    0    0  0.62313349328E+01 -0.25046274625E+01 -0.71462605471E+01  0.98067188110E+01  0.51100000000E-03 0. -1.
        -11    1    3    3    0    0 -0.74381037864E+01  0.14419248639E+02  0.20422334959E+02  0.26082789051E+02  0.51100000000E-03 0.  1.
        -12    1    3    3    0    0  0.22635570456E+02  0.24745447391E+01  0.54450506548E+01  0.23412411199E+02  0.00000000000E+00 0.  1.
</event>
<event>
 7    1  0.7674040E-012  0.5930202E+02  0.7816164E-02  0.1266604E+00
        -11   -1    0    0    0    0  0.00000000000E+00  0.00000000000E+00  0.45593999997E+02  0.45594000000E+02  0.51100000000E-03 0. -1.
         11   -1    0    0    0    0 -0.00000000000E+00 -0.00000000000E+00 -0.45593999997E+02  0.45594000000E+02  0.51100000000E-03 0.  1.
    9900012    2    1    2    0    0 -0.18119777146E+01 -0.27376394978E+02 -0.16247007631E+02  0.59302023111E+02  0.50000144228E+02 0.  0.
         12    1    1    2    0    0  0.18119777146E+01  0.27376394978E+02  0.16247007631E+02  0.31885976889E+02  0.00000000000E+00 0. -1.
         11    1    3    3    0    0 -0.16301197896E+02 -0.13411959233E+02  0.34751635784E+01  0.21393608052E+02  0.51100000000E-03 0. -1.
        -11    1    3    3    0    0  0.64476661665E+01 -0.20411939377E+02 -0.95932986187E+01  0.23457430524E+02  0.51100000000E-03 0.  1.
         12    1    3    3    0    0  0.80415540152E+01  0.64475036325E+01 -0.10128872591E+02  0.14450984535E+02  0.00000000000E+00 0. -1.
</event>
<event>
 7    1  0.7674040E-012  0.5930195E+02  0.7816164E-02  0.1266605E+00
        -11   -1    0    0    0    0  0.00000000000E+00  0.00000000000E+00  0.45593999997E+02  0.45594000000E+02  0.51100000000E-03 0.  1.
         11   -1    0    0    0    0 -0.00000000000E+00 -0.00000000000E+00 -0.45593999997E+02  0.45594000000E+02  0.51100000000E-03 0. -1.
    9900012    2    1    2    0    0  0.91024321088E+01  0.38250231195E+01  0.30318891079E+02  0.59301949313E+02  0.50000009639E+02 0.  0.
         12    1    1    2    0    0 -0.91024321088E+01 -0.38250231195E+01 -0.30318891079E+02  0.31886050687E+02  0.00000000000E+00 0. -1.
         11    1    3    3    0    0  0.14121179185E+02 -0.12138895380E+02  0.68985623774E+01  0.19858263916E+02  0.51100000000E-03 0. -1.
        -11    1    3    3    0    0 -0.72365474041E+01 -0.26894330982E+01  0.18468640108E+02  0.20017275949E+02  0.51100000000E-03 0.  1.
         12    1    3    3    0    0  0.22178003276E+01  0.18653351598E+02  0.49516885933E+01  0.19426409448E+02  0.00000000000E+00 0. -1.
</event>
<event>
 7    1  0.7674040E-012  0.5930192E+02  0.7816164E-02  0.1266605E+00
        -11   -1    0    0    0    0  0.00000000000E+00  0.00000000000E+00  0.45593999997E+02  0.45594000000E+02  0.51100000000E-03 0.  1.
         11   -1    0    0    0    0 -0.00000000000E+00 -0.00000000000E+00 -0.45593999997E+02  0.45594000000E+02  0.51100000000E-03 0. -1.
    9900012    2    1    2    0    0  0.27326661864E+02  0.95841712742E+01  0.13346143961E+02  0.59301916103E+02  0.49999949073E+02 0.  0.
         12    1    1    2    0    0 -0.27326661864E+02 -0.95841712742E+01 -0.13346143961E+02  0.31886083897E+02  0.00000000000E+00 0. -1.
         11    1    3    3    0    0  0.78294994935E+00 -0.19418800131E+01 -0.11889756280E+02  0.12072705300E+02  0.51100000000E-03 0. -1.
        -11    1    3    3    0    0  0.30226063129E+02  0.14581737769E+02  0.16797772997E+02  0.37528750932E+02  0.51100000000E-03 0.  1.
         12    1    3    3    0    0 -0.36823512141E+01 -0.30556864816E+01  0.84381272432E+01  0.97004598711E+01  0.00000000000E+00 0. -1.
</event>
<event>
 7    1  0.7674040E-012  0.5930196E+02  0.7816164E-02  0.1266605E+00
        -11   -1    0    0    0    0  0.00000000000E+00  0.00000000000E+00  0.45593999997E+02  0.45594000000E+02  0.51100000000E-03 0.  1.
         11   -1    0    0    0    0 -0.00000000000E+00 -0.00000000000E+00 -0.45593999997E+02  0.45594000000E+02  0.51100000000E-03 0. -1.
    9900012    2    1    2    0    0 -0.11909302852E+02  0.23779498124E+02 -0.17590437780E+02  0.59301960316E+02  0.50000029706E+02 0.  0.
         12    1    1    2    0    0  0.11909302852E+02 -0.23779498124E+02  0.17590437780E+02  0.31886039684E+02  0.00000000000E+00 0. -1.
         11    1    3    3    0    0 -0.24859531509E+02  0.10655297866E+02 -0.12905938759E+02  0.29968232096E+02  0.51100000000E-03 0. -1.
        -11    1    3    3    0    0  0.14690254162E+02  0.13626923771E+01  0.31620962587E+01  0.15088384635E+02  0.51100000000E-03 0.  1.
        -12    1    3    3    0    0 -0.17400255047E+01  0.11761507880E+02 -0.78465952802E+01  0.14245343585E+02  0.00000000000E+00 0.  1.
</event>
<event>
 7    1  0.7674040E-012  0.5930201E+02  0.7816164E-02  0.1266605E+00
        -11   -1    0    0    0    0  0.00000000000E+00  0.00000000000E+00  0.45593999997E+02  0.45594000000E+02  0.51100000000E-03 0. -1.
         11   -1    0    0    0    0 -0.00000000000E+00 -0.00000000000E+00 -0.45593999997E+02  0.45594000000E+02  0.51100000000E-03 0.  1.
    9900012    2    1    2    0    0  0.61499548254E+01 -0.11804705215E+02 -0.28974877095E+02  0.59302007586E+02  0.50000115915E+02 0.  0.
         12    1    1    2    0    0 -0.61499548254E+01  0.11804705215E+02  0.28974877095E+02  0.31885992414E+02  0.00000000000E+00 0. -1.
         11    1    3    3    0    0  0.15110753642E+02 -0.22676444930E+02 -0.13603414243E+02  0.30456672662E+02  0.51100000000E-03 0. -1.
        -11    1    3    3    0    0 -0.19099401161E+01  0.14282280539E+02 -0.15293659941E+02  0.21012554421E+02  0.51100000000E-03 0.  1.
         12    1    3    3    0    0 -0.70508587002E+01 -0.34105408241E+01 -0.77802911089E-01  0.78327805035E+01  0.00000000000E+00 0. -1.
</event>
<event>
 7    1  0.7674040E-012  0.5930194E+02  0.7816164E-02  0.1266605E+00
        -11   -1    0    0    0    0  0.00000000000E+00  0.00000000000E+00  0.45593999997E+02  0.45594000000E+02  0.51100000000E-03 0.  1.
         11   -1    0    0    0    0 -0.00000000000E+00 -0.00000000000E+00 -0.45593999997E+02  0.45594000000E+02  0.51100000000E-03 0. -1.
    9900012    2    1    2    0    0  0.24651022513E+02 -0.49141908891E+01  0.19618834385E+02  0.59301939634E+02  0.49999991987E+02 0.  0.
         12    1    1    2    0    0 -0.24651022513E+02  0.49141908891E+01 -0.19618834385E+02  0.31886060366E+02  0.00000000000E+00 0. -1.
         11    1    3    3    0    0  0.15941349688E+02  0.14205103544E+02 -0.77938149672E+01  0.22730049463E+02  0.51100000000E-03 0. -1.
        -11    1    3    3    0    0  0.10657970665E+02 -0.15997305511E+02  0.17489137250E+02  0.25987998083E+02  0.51100000000E-03 0.  1.
         12    1    3    3    0    0 -0.19482978404E+01 -0.31219889223E+01  0.99235121019E+01  0.10583892089E+02  0.00000000000E+00 0. -1.
</event>
<event>
 7    1  0.7674040E-012  0.5930194E+02  0.7816164E-02  0.1266605E+00
        -11   -1    0    0    0    0  0.00000000000E+00  0.00000000000E+00  0.45593999997E+02  0.45594000000E+02  0.51100000000E-03 0.  1.
         11   -1    0    0    0    0 -0.00000000000E+00 -0.00000000000E+00 -0.45593999997E+02  0.45594000000E+02  0.51100000000E-03 0. -1.
    9900012    2    1    2    0    0  0.18854335309E+02 -0.25472164525E+02  0.35219185362E+01  0.59301936654E+02  0.49999986552E+02 0.  0.
         12    1    1    2    0    0 -0.18854335309E+02  0.25472164525E+02 -0.35219185362E+01  0.31886063346E+02  0.00000000000E+00 0. -1.
         11    1    3    3    0    0  0.29126709857E+02 -0.15562427293E+02 -0.38792173363E+01  0.33250604472E+02  0.51100000000E-03 0. -1.
        -11    1    3    3    0    0 -0.77004034467E+01 -0.15984962727E+02  0.26926289975E+01  0.17946183377E+02  0.51100000000E-03 0.  1.
         12    1    3    3    0    0 -0.25719711011E+01  0.60752254950E+01  0.47085068750E+01  0.81051488050E+01  0.00000000000E+00 0. -1.
</event>
<event>
 7    1  0.7674040E-012  0.5930189E+02  0.7816164E-02  0.1266605E+00
        -11   -1    0    0    0    0  0.00000000000E+00  0.00000000000E+00  0.45593999997E+02  0.45594000000E+02  0.51100000000E-03 0.  1.
         11   -1    0    0    0    0 -0.00000000000E+00 -0.00000000000E+00 -0.45593999997E+02  0.45594000000E+02  0.51100000000E-03 0. -1.
    9900012    2    1    2    0    0 -0.74685960991E+01  0.19250134237E+02  0.24297660546E+02  0.59301891680E+02  0.49999904530E+02 0.  0.
         12    1    1    2    0    0  0.74685960991E+01 -0.19250134237E+02 -0.24297660546E+02  0.31886108320E+02  0.00000000000E+00 0. -1.
         11    1    3    3    0    0 -0.12100488094E+02 -0.32188813410E+01  0.16564139084E+02  0.20764241211E+02  0.51100000000E-03 0. -1.
        -11    1    3    3    0    0  0.10259201047E+02  0.27122642524E+02  0.10336617574E+02  0.30785298549E+02  0.51100000000E-03 0.  1.
        -12    1    3    3    0    0 -0.56273090525E+01 -0.46536269462E+01 -0.26030961125E+01  0.77523519204E+01  0.00000000000E+00 0.  1.
</event>
<event>
 7    1  0.7674040E-012  0.5930199E+02  0.7816164E-02  0.1266605E+00
        -11   -1    0    0    0    0  0.00000000000E+00  0.00000000000E+00  0.45593999997E+02  0.45594000000E+02  0.51100000000E-03 0. -1.
         11   -1    0    0    0    0 -0.00000000000E+00 -0.00000000000E+00 -0.45593999997E+02  0.45594000000E+02  0.51100000000E-03 0.  1.
    9900012    2    1    2    0    0 -0.27403638092E+02  0.73270969827E-01 -0.16301932734E+02  0.59301988017E+02  0.50000080225E+02 0.  0.
         12    1    1    2    0    0  0.27403638092E+02 -0.73270969827E-01  0.16301932734E+02  0.31886011983E+02  0.00000000000E+00 0. -1.
         11    1    3    3    0    0 -0.68480384648E+01 -0.29917568069E+01  0.10835264686E+02  0.13162416218E+02  0.51100000000E-03 0. -1.
        -11    1    3    3    0    0 -0.95832084147E+01  0.11817818725E+01 -0.32412458619E+02  0.33820141424E+02  0.51100000000E-03 0.  1.
        -12    1    3    3    0    0 -0.10972391213E+02  0.18832459042E+01  0.52752611989E+01  0.12319430375E+02  0.00000000000E+00 0.  1.
</event>
<event>
 7    1  0.7674040E-012  0.5930195E+02  0.7816164E-02  0.1266605E+00
        -11   -1    0    0    0    0  0.00000000000E+00  0.00000000000E+00  0.45593999997E+02  0.45594000000E+02  0.51100000000E-03 0. -1.
         11   -1    0    0    0    0 -0.00000000000E+00 -0.00000000000E+00 -0.45593999997E+02  0.45594000000E+02  0.51100000000E-03 0.  1.
    9900012    2    1    2    0    0  0.41889670044E+01  0.76804680506E+01 -0.30662404409E+02  0.59301951668E+02  0.50000013935E+02 0.  0.
         12    1    1    2    0    0 -0.41889670044E+01 -0.76804680506E+01  0.30662404409E+02  0.31886048332E+02  0.00000000000E+00 0. -1.
         11    1    3    3    0    0  0.74769166556E+01  0.23415513762E+02 -0.24005826035E+02  0.34357972165E+02  0.51100000000E-03 0.  1.
        -11    1    3    3    0    0 -0.10044959487E+02 -0.85612917788E+01 -0.27112213811E+00  0.13201152810E+02  0.51100000000E-03 0. -1.
         12    1    3    3    0    0  0.67570098363E+01 -0.71737539326E+01 -0.63854562362E+01  0.11742826694E+02  0.00000000000E+00 0. -1.
</event>
<event>
 7    1  0.7674040E-012  0.5930190E+02  0.7816164E-02  0.1266605E+00
        -11   -1    0    0    0    0  0.00000000000E+00  0.00000000000E+00  0.45593999997E+02  0.45594000000E+02  0.51100000000E-03 0. -1.
         11   -1    0    0    0    0 -0.00000000000E+00 -0.00000000000E+00 -0.45593999997E+02  0.45594000000E+02  0.51100000000E-03 0.  1.
    9900012    2    1    2    0    0 -0.19038026250E+02  0.25024527272E+02  0.52962025020E+01  0.59301903193E+02  0.49999925526E+02 0.  0.
         12    1    1    2    0    0  0.19038026250E+02 -0.25024527272E+02 -0.52962025020E+01  0.31886096807E+02  0.00000000000E+00 0. -1.
         11    1    3    3    0    0  0.31529289952E+01 -0.10737097158E+02  0.97825083058E+01  0.14863501796E+02  0.51100000000E-03 0. -1.
        -11    1    3    3    0    0 -0.20650323670E+02  0.35744709683E+02 -0.17740644097E+01  0.41319092957E+02  0.51100000000E-03 0.  1.
        -12    1    3    3    0    0 -0.15406315752E+01  0.16914746369E-01 -0.27122413940E+01  0.31193084391E+01  0.00000000000E+00 0.  1.
</event>
<event>
 7    1  0.7674040E-012  0.5930195E+02  0.7816164E-02  0.1266605E+00
        -11   -1    0    0    0    0  0.00000000000E+00  0.00000000000E+00  0.45593999997E+02  0.45594000000E+02  0.51100000000E-03 0. -1.
         11   -1    0    0    0    0 -0.00000000000E+00 -0.00000000000E+00 -0.45593999997E+02  0.45594000000E+02  0.51100000000E-03 0.  1.
    9900012    2    1    2    0    0 -0.23226678102E+02  0.19194624995E+02 -0.10431093850E+02  0.59301954098E+02  0.50000018365E+02 0.  0.
         12    1    1    2    0    0  0.23226678102E+02 -0.19194624995E+02  0.10431093850E+02  0.31886045902E+02  0.00000000000E+00 0. -1.
         11    1    3    3    0    0 -0.22745749423E+02  0.26892500884E+02  0.95621680149E+01  0.36496722839E+02  0.51100000000E-03 0. -1.
        -11    1    3    3    0    0  0.35826276631E+01 -0.36662650450E+01 -0.77777798183E+01  0.93150727058E+01  0.51100000000E-03 0.  1.
         12    1    3    3    0    0 -0.40635563419E+01 -0.40316108432E+01 -0.12215482047E+02  0.13490158552E+02  0.00000000000E+00 0. -1.
</event>
<event>
 7    1  0.7674040E-012  0.5930194E+02  0.7816164E-02  0.1266605E+00
        -11   -1    0    0    0    0  0.00000000000E+00  0.00000000000E+00  0.45593999997E+02  0.45594000000E+02  0.51100000000E-03 0. -1.
         11   -1    0    0    0    0 -0.00000000000E+00 -0.00000000000E+00 -0.45593999997E+02  0.45594000000E+02  0.51100000000E-03 0.  1.
    9900012    2    1    2    0    0  0.12565987877E+02  0.26046665590E+02 -0.13430861295E+02  0.59301939177E+02  0.49999991154E+02 0.  0.
         12    1    1    2    0    0 -0.12565987877E+02 -0.26046665590E+02  0.13430861295E+02  0.31886060823E+02  0.00000000000E+00 0. -1.
         11    1    3    3    0    0 -0.11580037950E+02  0.33548753693E+01 -0.10088811599E+02  0.15720578469E+02  0.51100000000E-03 0. -1.
        -11    1    3    3    0    0  0.20458025612E+02  0.24703655109E+02 -0.11768481774E+02  0.34165751143E+02  0.51100000000E-03 0.  1.
        -12    1    3    3    0    0  0.36880002151E+01 -0.20118648884E+01  0.84264320775E+01  0.94156095645E+01  0.00000000000E+00 0.  1.
</event>
<event>
 7    1  0.7674040E-012  0.5930194E+02  0.7816164E-02  0.1266605E+00
        -11   -1    0    0    0    0  0.00000000000E+00  0.00000000000E+00  0.45593999997E+02  0.45594000000E+02  0.51100000000E-03 0.  1.
         11   -1    0    0    0    0 -0.00000000000E+00 -0.00000000000E+00 -0.45593999997E+02  0.45594000000E+02  0.51100000000E-03 0. -1.
    9900012    2    1    2    0    0 -0.72668231324E+01  0.13073369328E+02  0.28160279826E+02  0.59301936212E+02  0.49999985745E+02 0.  0.
         12    1    1    2    0    0  0.72668231324E+01 -0.13073369328E+02 -0.28160279826E+02  0.31886063788E+02  0.00000000000E+00 0. -1.
         11    1    3    3    0    0 -0.20629496946E+02  0.20414909019E+01  0.26775671392E+01  0.20902468643E+02  0.51100000000E-03 0. -1.
        -11    1    3    3    0    0  0.14968864447E+02  0.16639106254E+00  0.61895790308E+01  0.16198934461E+02  0.51100000000E-03 0.  1.
        -12    1    3    3    0    0 -0.16061906338E+01  0.10865487364E+02  0.19293133656E+02  0.22200533108E+02  0.00000000000E+00 0.  1.
</event>
<event>
 7    1  0.7674040E-012  0.5930195E+02  0.7816164E-02  0.1266605E+00
        -11   -1    0    0    0    0  0.00000000000E+00  0.00000000000E+00  0.45593999997E+02  0.45594000000E+02  0.51100000000E-03 0. -1.
         11   -1    0    0    0    0 -0.00000000000E+00 -0.00000000000E+00 -0.45593999997E+02  0.45594000000E+02  0.51100000000E-03 0.  1.
    9900012    2    1    2    0    0 -0.84121136777E+01 -0.83418342596E+01 -0.29603554157E+02  0.59301948597E+02  0.50000008334E+02 0.  0.
         12    1    1    2    0    0  0.84121136777E+01  0.83418342596E+01  0.29603554157E+02  0.31886051403E+02  0.00000000000E+00 0. -1.
         11    1    3    3    0    0 -0.20649489477E+02 -0.13079659333E+02 -0.10896204296E+02  0.26762028553E+02  0.51100000000E-03 0. -1.
        -11    1    3    3    0    0  0.99981766258E+01  0.11211364759E+02 -0.28822287046E+01  0.15295930118E+02  0.51100000000E-03 0.  1.
        -12    1    3    3    0    0  0.22391991735E+01 -0.64735396858E+01 -0.15825121156E+02  0.17243989927E+02  0.00000000000E+00 0.  1.
</event>
<event>
 7    1  0.7674040E-012  0.5930212E+02  0.7816164E-02  0.1266604E+00
        -11   -1    0    0    0    0  0.00000000000E+00  0.00000000000E+00  0.45593999997E+02  0.45594000000E+02  0.51100000000E-03 0.  1.
         11   -1    0    0    0    0 -0.00000000000E+00 -0.00000000000E+00 -0.45593999997E+02  0.45594000000E+02  0.51100000000E-03 0. -1.
    9900012    2    1    2    0    0  0.13306471636E+02 -0.28908348229E+02  0.19885303294E+01  0.59302124795E+02  0.50000329674E+02 0.  0.
         12    1    1    2    0    0 -0.13306471636E+02  0.28908348229E+02 -0.19885303294E+01  0.31885875205E+02  0.00000000000E+00 0. -1.
         11    1    3    3    0    0  0.20515843993E+02 -0.10525883072E+02  0.28345765567E+01  0.23232066067E+02  0.51100000000E-03 0.  1.
        -11    1    3    3    0    0 -0.16633722331E+02 -0.93589905712E+01 -0.85546501175E+01  0.20915388162E+02  0.51100000000E-03 0. -1.
         12    1    3    3    0    0  0.94243499734E+01 -0.90234745857E+01  0.77086038902E+01  0.15154670566E+02  0.00000000000E+00 0. -1.
</event>
<event>
 7    1  0.7674040E-012  0.5930194E+02  0.7816164E-02  0.1266605E+00
        -11   -1    0    0    0    0  0.00000000000E+00  0.00000000000E+00  0.45593999997E+02  0.45594000000E+02  0.51100000000E-03 0. -1.
         11   -1    0    0    0    0 -0.00000000000E+00 -0.00000000000E+00 -0.45593999997E+02  0.45594000000E+02  0.51100000000E-03 0.  1.
    9900012    2    1    2    0    0 -0.21196805636E+02  0.11507229402E+02 -0.20856656228E+02  0.59301937109E+02  0.49999987383E+02 0.  0.
         12    1    1    2    0    0  0.21196805636E+02 -0.11507229402E+02  0.20856656228E+02  0.31886062891E+02  0.00000000000E+00 0. -1.
         11    1    3    3    0    0 -0.73168717880E+01 -0.13012514854E+02 -0.11321559560E+02  0.18736057929E+02  0.51100000000E-03 0. -1.
        -11    1    3    3    0    0  0.37509895551E+00  0.24402475307E+02 -0.21202447492E+01  0.24497284307E+02  0.51100000000E-03 0.  1.
         12    1    3    3    0    0 -0.14255032803E+02  0.11726894834E+00 -0.74148519180E+01  0.16068594873E+02  0.00000000000E+00 0. -1.
</event>
<event>
 7    1  0.7674040E-012  0.5930196E+02  0.7816164E-02  0.1266605E+00
        -11   -1    0    0    0    0  0.00000000000E+00  0.00000000000E+00  0.45593999997E+02  0.45594000000E+02  0.51100000000E-03 0. -1.
         11   -1    0    0    0    0 -0.00000000000E+00 -0.00000000000E+00 -0.45593999997E+02  0.45594000000E+02  0.51100000000E-03 0.  1.
    9900012    2    1    2    0    0 -0.26552276787E+02 -0.62889555474E+01 -0.16496829570E+02  0.59301956810E+02  0.50000023311E+02 0.  0.
         12    1    1    2    0    0  0.26552276787E+02  0.62889555474E+01  0.16496829570E+02  0.31886043190E+02  0.00000000000E+00 0. -1.
         11    1    3    3    0    0 -0.25141346783E+02  0.97087618585E+01  0.34069903726E+00  0.26952985938E+02  0.51100000000E-03 0. -1.
        -11    1    3    3    0    0 -0.70598129074E+01 -0.19322212870E+02 -0.15242390516E+02  0.25603111869E+02  0.51100000000E-03 0.  1.
         12    1    3    3    0    0  0.56488829035E+01  0.33244954639E+01 -0.15951380914E+01  0.67458590022E+01  0.00000000000E+00 0. -1.
</event>
<event>
 7    1  0.7674040E-012  0.5930212E+02  0.7816164E-02  0.1266604E+00
        -11   -1    0    0    0    0  0.00000000000E+00  0.00000000000E+00  0.45593999997E+02  0.45594000000E+02  0.51100000000E-03 0.  1.
         11   -1    0    0    0    0 -0.00000000000E+00 -0.00000000000E+00 -0.45593999997E+02  0.45594000000E+02  0.51100000000E-03 0. -1.
    9900012    2    1    2    0    0 -0.88694042084E+01  0.28958320298E+02  0.99729040466E+01  0.59302118162E+02  0.50000317578E+02 0.  0.
         12    1    1    2    0    0  0.88694042084E+01 -0.28958320298E+02 -0.99729040466E+01  0.31885881838E+02  0.00000000000E+00 0. -1.
         11    1    3    3    0    0  0.95117918845E+01  0.17814898145E+02 -0.10487123056E+01  0.20222378163E+02  0.51100000000E-03 0. -1.
        -11    1    3    3    0    0 -0.22989642824E+02  0.12591360390E+02 -0.88881502177E+00  0.26227009475E+02  0.51100000000E-03 0.  1.
         12    1    3    3    0    0  0.46084467308E+01 -0.14479382374E+01  0.11910431374E+02  0.12852730524E+02  0.00000000000E+00 0. -1.
</event>
<event>
 7    1  0.7674040E-012  0.5930191E+02  0.7816164E-02  0.1266605E+00
        -11   -1    0    0    0    0  0.00000000000E+00  0.00000000000E+00  0.45593999997E+02  0.45594000000E+02  0.51100000000E-03 0. -1.
         11   -1    0    0    0    0 -0.00000000000E+00 -0.00000000000E+00 -0.45593999997E+02  0.45594000000E+02  0.51100000000E-03 0.  1.
    9900012    2    1    2    0    0  0.25144866507E+02 -0.10916845894E+02 -0.16287438101E+02  0.59301914072E+02  0.49999945367E+02 0.  0.
         12    1    1    2    0    0 -0.25144866507E+02  0.10916845894E+02  0.16287438101E+02  0.31886085928E+02  0.00000000000E+00 0. -1.
         11    1    3    3    0    0 -0.82354529944E+00 -0.11855244380E+02  0.53409587327E+01  0.13028848246E+02  0.51100000000E-03 0. -1.
        -11    1    3    3    0    0  0.31474012640E+02 -0.58688820591E+01 -0.15393863414E+02  0.35525037359E+02  0.51100000000E-03 0.  1.
         12    1    3    3    0    0 -0.55056008342E+01  0.68072805444E+01 -0.62345334200E+01  0.10748028467E+02  0.00000000000E+00 0. -1.
</event>
<event>
 7    1  0.7674040E-012  0.5930195E+02  0.7816164E-02  0.1266605E+00
        -11   -1    0    0    0    0  0.00000000000E+00  0.00000000000E+00  0.45593999997E+02  0.45594000000E+02  0.51100000000E-03 0. -1.
         11   -1    0    0    0    0 -0.00000000000E+00 -0.00000000000E+00 -0.45593999997E+02  0.45594000000E+02  0.51100000000E-03 0.  1.
    9900012    2    1    2    0    0  0.21382268949E+01  0.17880890668E+02 -0.26313917030E+02  0.59301945136E+02  0.50000002020E+02 0.  0.
         12    1    1    2    0    0 -0.21382268949E+01 -0.17880890668E+02  0.26313917030E+02  0.31886054864E+02  0.00000000000E+00 0. -1.
         11    1    3    3    0    0  0.21323002322E+02  0.16540177128E+02 -0.61691367695E+01  0.27682235029E+02  0.51100000000E-03 0. -1.
        -11    1    3    3    0    0 -0.36405048260E+01  0.31523416112E+01 -0.14003431676E+02  0.14808329818E+02  0.51100000000E-03 0.  1.
         12    1    3    3    0    0 -0.15544270601E+02 -0.18116280704E+01 -0.61413485846E+01  0.16811380289E+02  0.00000000000E+00 0. -1.
</event>
<event>
 7    1  0.7674040E-012  0.5930196E+02  0.7816164E-02  0.1266605E+00
        -11   -1    0    0    0    0  0.00000000000E+00  0.00000000000E+00  0.45593999997E+02  0.45594000000E+02  0.51100000000E-03 0.  1.
         11   -1    0    0    0    0 -0.00000000000E+00 -0.00000000000E+00 -0.45593999997E+02  0.45594000000E+02  0.51100000000E-03 0. -1.
    9900012    2    1    2    0    0 -0.19269385955E+02  0.20955213997E+02  0.14362772438E+02  0.59301961349E+02  0.50000031590E+02 0.  0.
         12    1    1    2    0    0  0.19269385955E+02 -0.20955213997E+02 -0.14362772438E+02  0.31886038651E+02  0.00000000000E+00 0. -1.
         11    1    3    3    0    0 -0.17871403684E+01  0.55210641887E+01 -0.14420870264E+02  0.15544694269E+02  0.51100000000E-03 0. -1.
        -11    1    3    3    0    0 -0.17338112475E+02  0.21082995869E+02  0.23428766796E+02  0.35972350116E+02  0.51100000000E-03 0.  1.
        -12    1    3    3    0    0 -0.14413311138E+00 -0.56488460606E+01  0.53548759059E+01  0.77849169641E+01  0.00000000000E+00 0.  1.
</event>
<event>
 7    1  0.7674040E-012  0.5930195E+02  0.7816164E-02  0.1266605E+00
        -11   -1    0    0    0    0  0.00000000000E+00  0.00000000000E+00  0.45593999997E+02  0.45594000000E+02  0.51100000000E-03 0.  1.
         11   -1    0    0    0    0 -0.00000000000E+00 -0.00000000000E+00 -0.45593999997E+02  0.45594000000E+02  0.51100000000E-03 0. -1.
    9900012    2    1    2    0    0 -0.39754955669E+01 -0.23729186594E+02  0.20924661253E+02  0.59301948034E+02  0.50000007307E+02 0.  0.
         12    1    1    2    0    0  0.39754955669E+01  0.23729186594E+02 -0.20924661253E+02  0.31886051966E+02  0.00000000000E+00 0. -1.
         11    1    3    3    0    0 -0.23869944392E+01 -0.89588474680E+01 -0.11477582747E+02  0.14754443276E+02  0.51100000000E-03 0. -1.
        -11    1    3    3    0    0 -0.46128688627E+01 -0.20558458952E+02  0.31582607100E+02  0.37965640587E+02  0.51100000000E-03 0.  1.
        -12    1    3    3    0    0  0.30243677350E+01  0.57881198264E+01  0.81963690045E+00  0.65818641713E+01  0.00000000000E+00 0.  1.
</event>
<event>
 7    1  0.7674040E-012  0.5930199E+02  0.7816164E-02  0.1266605E+00
        -11   -1    0    0    0    0  0.00000000000E+00  0.00000000000E+00  0.45593999997E+02  0.45594000000E+02  0.51100000000E-03 0. -1.
         11   -1    0    0    0    0 -0.00000000000E+00 -0.00000000000E+00 -0.45593999997E+02  0.45594000000E+02  0.51100000000E-03 0.  1.
    9900012    2    1    2    0    0 -0.23300937088E+02 -0.55000473250E+01 -0.21060228100E+02  0.59301993706E+02  0.50000090601E+02 0.  0.
         12    1    1    2    0    0  0.23300937088E+02  0.55000473250E+01  0.21060228100E+02  0.31886006294E+02  0.00000000000E+00 0. -1.
         11    1    3    3    0    0  0.17138480746E+01 -0.11313056700E+02  0.12353830186E+02  0.16838635564E+02  0.51100000000E-03 0. -1.
        -11    1    3    3    0    0 -0.17331402081E+02  0.38459605700E+01 -0.18944668183E+02  0.25962845831E+02  0.51100000000E-03 0.  1.
         12    1    3    3    0    0 -0.76833830817E+01  0.19670488051E+01 -0.14469390103E+02  0.16500512312E+02  0.00000000000E+00 0. -1.
</event>
<event>
 7    1  0.7674040E-012  0.5930196E+02  0.7816164E-02  0.1266605E+00
        -11   -1    0    0    0    0  0.00000000000E+00  0.00000000000E+00  0.45593999997E+02  0.45594000000E+02  0.51100000000E-03 0.  1.
         11   -1    0    0    0    0 -0.00000000000E+00 -0.00000000000E+00 -0.45593999997E+02  0.45594000000E+02  0.51100000000E-03 0. -1.
    9900012    2    1    2    0    0  0.11873498668E+02  0.29258685934E+02 -0.44349958963E+01  0.59301955062E+02  0.50000020123E+02 0.  0.
         12    1    1    2    0    0 -0.11873498668E+02 -0.29258685934E+02  0.44349958963E+01  0.31886044938E+02  0.00000000000E+00 0. -1.
         11    1    3    3    0    0  0.21826251275E+02  0.12698834378E+01  0.78046156572E+01  0.23214432461E+02  0.51100000000E-03 0. -1.
        -11    1    3    3    0    0 -0.87286842951E+01  0.13395431009E+02  0.14329738987E+01  0.16052442677E+02  0.51100000000E-03 0.  1.
         12    1    3    3    0    0 -0.12240683121E+01  0.14593371487E+02 -0.13672585452E+02  0.20035079924E+02  0.00000000000E+00 0. -1.
</event>
<event>
 7    1  0.7674040E-012  0.5930195E+02  0.7816164E-02  0.1266605E+00
        -11   -1    0    0    0    0  0.00000000000E+00  0.00000000000E+00  0.45593999997E+02  0.45594000000E+02  0.51100000000E-03 0.  1.
         11   -1    0    0    0    0 -0.00000000000E+00 -0.00000000000E+00 -0.45593999997E+02  0.45594000000E+02  0.51100000000E-03 0. -1.
    9900012    2    1    2    0    0 -0.16243615473E+02  0.67357402557E+01  0.26598780763E+02  0.59301946959E+02  0.50000005346E+02 0.  0.
         12    1    1    2    0    0  0.16243615473E+02 -0.67357402557E+01 -0.26598780763E+02  0.31886053041E+02  0.00000000000E+00 0. -1.
         11    1    3    3    0    0 -0.16406712839E+02  0.14365225622E+02 -0.10728685576E+01  0.21833254008E+02  0.51100000000E-03 0. -1.
        -11    1    3    3    0    0 -0.47651077647E+01 -0.83742732362E+00  0.28617815585E+02  0.29023902316E+02  0.51100000000E-03 0.  1.
        -12    1    3    3    0    0  0.49282051311E+01 -0.67920580426E+01 -0.94616626459E+00  0.84447906350E+01  0.00000000000E+00 0.  1.
</event>
<event>
 7    1  0.7674040E-012  0.5930194E+02  0.7816164E-02  0.1266605E+00
        -11   -1    0    0    0    0  0.00000000000E+00  0.00000000000E+00  0.45593999997E+02  0.45594000000E+02  0.51100000000E-03 0. -1.
         11   -1    0    0    0    0 -0.00000000000E+00 -0.00000000000E+00 -0.45593999997E+02  0.45594000000E+02  0.51100000000E-03 0.  1.
    9900012    2    1    2    0    0 -0.31721969954E+02 -0.24724300088E+01  0.20795439907E+01  0.59301940490E+02  0.49999993547E+02 0.  0.
         12    1    1    2    0    0  0.31721969954E+02  0.24724300088E+01 -0.20795439907E+01  0.31886059510E+02  0.00000000000E+00 0. -1.
         11    1    3    3    0    0 -0.48489996885E+01 -0.10803400328E+02  0.15822718812E+02  0.19763215515E+02  0.51100000000E-03 0. -1.
        -11    1    3    3    0    0 -0.21103967010E+02 -0.45211914274E+01 -0.29324050666E+01  0.21781129338E+02  0.51100000000E-03 0.  1.
         12    1    3    3    0    0 -0.57690032550E+01  0.12852161747E+02 -0.10810769755E+02  0.17757595637E+02  0.00000000000E+00 0. -1.
</event>
<event>
 7    1  0.7674040E-012  0.5930197E+02  0.7816164E-02  0.1266605E+00
        -11   -1    0    0    0    0  0.00000000000E+00  0.00000000000E+00  0.45593999997E+02  0.45594000000E+02  0.51100000000E-03 0.  1.
         11   -1    0    0    0    0 -0.00000000000E+00 -0.00000000000E+00 -0.45593999997E+02  0.45594000000E+02  0.51100000000E-03 0. -1.
    9900012    2    1    2    0    0  0.24740326405E+02  0.11726365187E+02  0.16344038277E+02  0.59301968916E+02  0.50000045389E+02 0.  0.
         12    1    1    2    0    0 -0.24740326405E+02 -0.11726365187E+02 -0.16344038277E+02  0.31886031084E+02  0.00000000000E+00 0. -1.
         11    1    3    3    0    0  0.14200557637E+02 -0.15037841342E+02 -0.32036117491E+01  0.20929778735E+02  0.51100000000E-03 0. -1.
        -11    1    3    3    0    0  0.62337856442E-01  0.31545933620E+01  0.10562997190E+02  0.11024166870E+02  0.51100000000E-03 0.  1.
         12    1    3    3    0    0  0.10477430912E+02  0.23609613166E+02  0.89846528361E+01  0.27348023310E+02  0.00000000000E+00 0. -1.
</event>
<event>
 7    1  0.7674040E-012  0.5930194E+02  0.7816164E-02  0.1266605E+00
        -11   -1    0    0    0    0  0.00000000000E+00  0.00000000000E+00  0.45593999997E+02  0.45594000000E+02  0.51100000000E-03 0.  1.
         11   -1    0    0    0    0 -0.00000000000E+00 -0.00000000000E+00 -0.45593999997E+02  0.45594000000E+02  0.51100000000E-03 0. -1.
    9900012    2    1    2    0    0  0.21394190778E+01  0.15408824330E+02  0.27833644133E+02  0.59301941496E+02  0.49999995382E+02 0.  0.
         12    1    1    2    0    0 -0.21394190778E+01 -0.15408824330E+02 -0.27833644133E+02  0.31886058504E+02  0.00000000000E+00 0. -1.
         11    1    3    3    0    0  0.13329998827E+02  0.59111681669E+01  0.36508454214E+01  0.15031947657E+02  0.51100000000E-03 0. -1.
        -11    1    3    3    0    0 -0.17790599681E+02 -0.56637769603E+01  0.19690713868E+02  0.27134996211E+02  0.51100000000E-03 0.  1.
        -12    1    3    3    0    0  0.66000199322E+01  0.15161433123E+02  0.44920848434E+01  0.17134997628E+02  0.00000000000E+00 0.  1.
</event>
<event>
 7    1  0.7674040E-012  0.5930195E+02  0.7816164E-02  0.1266605E+00
        -11   -1    0    0    0    0  0.00000000000E+00  0.00000000000E+00  0.45593999997E+02  0.45594000000E+02  0.51100000000E-03 0.  1.
         11   -1    0    0    0    0 -0.00000000000E+00 -0.00000000000E+00 -0.45593999997E+02  0.45594000000E+02  0.51100000000E-03 0. -1.
    9900012    2    1    2    0    0 -0.20890774633E+02 -0.21288142270E+02 -0.11274345118E+02  0.59301947815E+02  0.50000006907E+02 0.  0.
         12    1    1    2    0    0  0.20890774633E+02  0.21288142270E+02  0.11274345118E+02  0.31886052185E+02  0.00000000000E+00 0. -1.
         11    1    3    3    0    0 -0.26301735433E+00 -0.18565772865E+01 -0.24272945573E+01  0.30672164055E+01  0.51100000000E-03 0. -1.
        -11    1    3    3    0    0 -0.11837034116E+02 -0.10048753283E+02  0.19607028057E+02  0.25010565142E+02  0.51100000000E-03 0.  1.
        -12    1    3    3    0    0 -0.87907231630E+01 -0.93828117012E+01 -0.28454078618E+02  0.31224166268E+02  0.00000000000E+00 0.  1.
</event>
<event>
 7    1  0.7674040E-012  0.5930200E+02  0.7816164E-02  0.1266605E+00
        -11   -1    0    0    0    0  0.00000000000E+00  0.00000000000E+00  0.45593999997E+02  0.45594000000E+02  0.51100000000E-03 0.  1.
         11   -1    0    0    0    0 -0.00000000000E+00 -0.00000000000E+00 -0.45593999997E+02  0.45594000000E+02  0.51100000000E-03 0. -1.
    9900012    2    1    2    0    0 -0.30273188797E+02 -0.66133940908E+01  0.75176019579E+01  0.59301995539E+02  0.50000093943E+02 0.  0.
         12    1    1    2    0    0  0.30273188797E+02  0.66133940908E+01 -0.75176019579E+01  0.31886004461E+02  0.00000000000E+00 0. -1.
         11    1    3    3    0    0 -0.11919182719E+01 -0.58383607809E+01 -0.16170709998E+02  0.17233658575E+02  0.51100000000E-03 0. -1.
        -11    1    3    3    0    0 -0.31039551606E+02 -0.28218271197E+01  0.18742958959E+02  0.36369148780E+02  0.51100000000E-03 0.  1.
         12    1    3    3    0    0  0.19582810814E+01  0.20467938098E+01  0.49453529969E+01  0.56991881841E+01  0.00000000000E+00 0. -1.
</event>
<event>
 7    1  0.7674040E-012  0.5930196E+02  0.7816164E-02  0.1266605E+00
        -11   -1    0    0    0    0  0.00000000000E+00  0.00000000000E+00  0.45593999997E+02  0.45594000000E+02  0.51100000000E-03 0.  1.
         11   -1    0    0    0    0 -0.00000000000E+00 -0.00000000000E+00 -0.45593999997E+02  0.45594000000E+02  0.51100000000E-03 0. -1.
    9900012    2    1    2    0    0 -0.13445388717E+01 -0.22625991227E+02  0.22427132995E+02  0.59301959823E+02  0.50000028808E+02 0.  0.
         12    1    1    2    0    0  0.13445388717E+01  0.22625991227E+02 -0.22427132995E+02  0.31886040177E+02  0.00000000000E+00 0. -1.
         11    1    3    3    0    0 -0.44468487316E+01  0.69326886699E+01 -0.70818039730E+01  0.10862254996E+02  0.51100000000E-03 0. -1.
        -11    1    3    3    0    0 -0.95647368485E+01 -0.13339698900E+02  0.19700139789E+02  0.25642294470E+02  0.51100000000E-03 0.  1.
        -12    1    3    3    0    0  0.12667046708E+02 -0.16218980997E+02  0.98087971793E+01  0.22797410357E+02  0.00000000000E+00 0.  1.
</event>
<event>
 7    1  0.7674040E-012  0.5930193E+02  0.7816164E-02  0.1266605E+00
        -11   -1    0    0    0    0  0.00000000000E+00  0.00000000000E+00  0.45593999997E+02  0.45594000000E+02  0.51100000000E-03 0.  1.
         11   -1    0    0    0    0 -0.00000000000E+00 -0.00000000000E+00 -0.45593999997E+02  0.45594000000E+02  0.51100000000E-03 0. -1.
    9900012    2    1    2    0    0 -0.76384588234E+01  0.30945733936E+02  0.85839197463E+00  0.59301931901E+02  0.49999977884E+02 0.  0.
         12    1    1    2    0    0  0.76384588234E+01 -0.30945733936E+02 -0.85839197463E+00  0.31886068099E+02  0.00000000000E+00 0. -1.
         11    1    3    3    0    0  0.53284929366E+01 -0.21488135828E+01 -0.19839393338E+01  0.60783428935E+01  0.51100000000E-03 0. -1.
        -11    1    3    3    0    0 -0.39139440413E+01  0.27097232754E+02 -0.15828299699E+02  0.31624579879E+02  0.51100000000E-03 0.  1.
        -12    1    3    3    0    0 -0.90530077188E+01  0.59973147646E+01  0.18670631008E+02  0.21599009129E+02  0.00000000000E+00 0.  1.
</event>
<event>
 7    1  0.7674040E-012  0.5930194E+02  0.7816164E-02  0.1266605E+00
        -11   -1    0    0    0    0  0.00000000000E+00  0.00000000000E+00  0.45593999997E+02  0.45594000000E+02  0.51100000000E-03 0. -1.
         11   -1    0    0    0    0 -0.00000000000E+00 -0.00000000000E+00 -0.45593999997E+02  0.45594000000E+02  0.51100000000E-03 0.  1.
    9900012    2    1    2    0    0  0.96641493172E+01 -0.32749423910E+01 -0.30209270764E+02  0.59301936120E+02  0.49999985577E+02 0.  0.
         12    1    1    2    0    0 -0.96641493172E+01  0.32749423910E+01  0.30209270764E+02  0.31886063880E+02  0.00000000000E+00 0. -1.
         11    1    3    3    0    0  0.15271066048E+02  0.12260272366E+02 -0.16070876956E+02  0.25333630279E+02  0.51100000000E-03 0. -1.
        -11    1    3    3    0    0 -0.15549863643E+02 -0.56828625603E+01 -0.10126450039E+02  0.19407168182E+02  0.51100000000E-03 0.  1.
         12    1    3    3    0    0  0.99429469124E+01 -0.98523521966E+01 -0.40119437694E+01  0.14561137659E+02  0.00000000000E+00 0. -1.
</event>
<event>
 7    1  0.7674040E-012  0.5930194E+02  0.7816164E-02  0.1266605E+00
        -11   -1    0    0    0    0  0.00000000000E+00  0.00000000000E+00  0.45593999997E+02  0.45594000000E+02  0.51100000000E-03 0. -1.
         11   -1    0    0    0    0 -0.00000000000E+00 -0.00000000000E+00 -0.45593999997E+02  0.45594000000E+02  0.51100000000E-03 0.  1.
    9900012    2    1    2    0    0  0.89547474548E+01  0.29854032401E+02 -0.67283198333E+01  0.59301936581E+02  0.49999986419E+02 0.  0.
         12    1    1    2    0    0 -0.89547474548E+01 -0.29854032401E+02  0.67283198333E+01  0.31886063419E+02  0.00000000000E+00 0. -1.
         11    1    3    3    0    0 -0.10846926200E+02  0.28466756460E+02 -0.51801285338E+01  0.30900578688E+02  0.51100000000E-03 0. -1.
        -11    1    3    3    0    0 -0.29665589731E+01 -0.23250359223E+01  0.30863518652E+01  0.48715328469E+01  0.51100000000E-03 0.  1.
         12    1    3    3    0    0  0.22768232628E+02  0.37123118636E+01 -0.46345431648E+01  0.23529825046E+02  0.00000000000E+00 0. -1.
</event>
<event>
 7    1  0.7674040E-012  0.5930193E+02  0.7816164E-02  0.1266605E+00
        -11   -1    0    0    0    0  0.00000000000E+00  0.00000000000E+00  0.45593999997E+02  0.45594000000E+02  0.51100000000E-03 0.  1.
         11   -1    0    0    0    0 -0.00000000000E+00 -0.00000000000E+00 -0.45593999997E+02  0.45594000000E+02  0.51100000000E-03 0. -1.
    9900012    2    1    2    0    0  0.33741902081E+01  0.29793080755E+02 -0.10849364000E+02  0.59301929066E+02  0.49999972713E+02 0.  0.
         12    1    1    2    0    0 -0.33741902081E+01 -0.29793080755E+02  0.10849364000E+02  0.31886070934E+02  0.00000000000E+00 0. -1.
         11    1    3    3    0    0  0.59367868487E+01 -0.11387839983E+02  0.46452656769E+01  0.13656750383E+02  0.51100000000E-03 0. -1.
        -11    1    3    3    0    0 -0.28931797694E+01  0.21921233169E+02 -0.14327244059E+02  0.26347312489E+02  0.51100000000E-03 0.  1.
        -12    1    3    3    0    0  0.33058312882E+00  0.19259687569E+02 -0.11673856176E+01  0.19297866194E+02  0.00000000000E+00 0.  1.
</event>
<event>
 7    1  0.7674040E-012  0.5930196E+02  0.7816164E-02  0.1266605E+00
        -11   -1    0    0    0    0  0.00000000000E+00  0.00000000000E+00  0.45593999997E+02  0.45594000000E+02  0.51100000000E-03 0. -1.
         11   -1    0    0    0    0 -0.00000000000E+00 -0.00000000000E+00 -0.45593999997E+02  0.45594000000E+02  0.51100000000E-03 0.  1.
    9900012    2    1    2    0    0 -0.56807100693E+01  0.24921975243E+02 -0.19061590968E+02  0.59301959683E+02  0.50000028551E+02 0.  0.
         12    1    1    2    0    0  0.56807100693E+01 -0.24921975243E+02  0.19061590968E+02  0.31886040317E+02  0.00000000000E+00 0. -1.
         11    1    3    3    0    0 -0.49587910016E+01  0.11818613819E+02  0.14382201796E+02  0.19264396424E+02  0.51100000000E-03 0. -1.
        -11    1    3    3    0    0  0.39964225901E+00  0.17393942386E+02 -0.28546634041E+02  0.33430813047E+02  0.51100000000E-03 0.  1.
         12    1    3    3    0    0 -0.11215613267E+01 -0.42905809620E+01 -0.48971587230E+01  0.66067502117E+01  0.00000000000E+00 0. -1.
</event>
<event>
 7    1  0.7674040E-012  0.5930198E+02  0.7816164E-02  0.1266605E+00
        -11   -1    0    0    0    0  0.00000000000E+00  0.00000000000E+00  0.45593999997E+02  0.45594000000E+02  0.51100000000E-03 0.  1.
         11   -1    0    0    0    0 -0.00000000000E+00 -0.00000000000E+00 -0.45593999997E+02  0.45594000000E+02  0.51100000000E-03 0. -1.
    9900012    2    1    2    0    0  0.18041509372E+02  0.21250678478E+01  0.26205086047E+02  0.59301976282E+02  0.50000058825E+02 0.  0.
         12    1    1    2    0    0 -0.18041509372E+02 -0.21250678478E+01 -0.26205086047E+02  0.31886023718E+02  0.00000000000E+00 0. -1.
         11    1    3    3    0    0  0.19544914210E+02 -0.63715442157E+01  0.10489330944E+02  0.23078698210E+02  0.51100000000E-03 0. -1.
        -11    1    3    3    0    0 -0.87612247150E+01 -0.54851039983E+01  0.17545704885E+02  0.20364115118E+02  0.51100000000E-03 0.  1.
         12    1    3    3    0    0  0.72578198772E+01  0.13981716062E+02 -0.18299497812E+01  0.15859162954E+02  0.00000000000E+00 0. -1.
</event>
<event>
 7    1  0.7674040E-012  0.5930192E+02  0.7816164E-02  0.1266605E+00
        -11   -1    0    0    0    0  0.00000000000E+00  0.00000000000E+00  0.45593999997E+02  0.45594000000E+02  0.51100000000E-03 0.  1.
         11   -1    0    0    0    0 -0.00000000000E+00 -0.00000000000E+00 -0.45593999997E+02  0.45594000000E+02  0.51100000000E-03 0. -1.
    9900012    2    1    2    0    0 -0.24223599056E+02 -0.51373563099E+00  0.20728614507E+02  0.59301919418E+02  0.49999955118E+02 0.  0.
         12    1    1    2    0    0  0.24223599056E+02  0.51373563099E+00 -0.20728614507E+02  0.31886080582E+02  0.00000000000E+00 0. -1.
         11    1    3    3    0    0 -0.23523957791E+02 -0.62500545719E+01  0.23262331455E+02  0.33668617989E+02  0.51100000000E-03 0.  1.
        -11    1    3    3    0    0 -0.64584265553E+01  0.77704121046E+01 -0.11166022679E+02  0.15058905690E+02  0.51100000000E-03 0. -1.
         12    1    3    3    0    0  0.57587852904E+01 -0.20340931636E+01  0.86323057309E+01  0.10574395739E+02  0.00000000000E+00 0. -1.
</event>
<event>
 7    1  0.7674040E-012  0.5930195E+02  0.7816164E-02  0.1266605E+00
        -11   -1    0    0    0    0  0.00000000000E+00  0.00000000000E+00  0.45593999997E+02  0.45594000000E+02  0.51100000000E-03 0. -1.
         11   -1    0    0    0    0 -0.00000000000E+00 -0.00000000000E+00 -0.45593999997E+02  0.45594000000E+02  0.51100000000E-03 0.  1.
    9900012    2    1    2    0    0 -0.21678383461E+02 -0.59277225806E+01  0.22619237712E+02  0.59301951027E+02  0.50000012765E+02 0.  0.
         12    1    1    2    0    0  0.21678383461E+02  0.59277225806E+01 -0.22619237712E+02  0.31886048973E+02  0.00000000000E+00 0. -1.
         11    1    3    3    0    0 -0.65548224435E+01 -0.24429205512E+01  0.17096608323E+02  0.18472346210E+02  0.51100000000E-03 0. -1.
        -11    1    3    3    0    0  0.66442711832E+01 -0.14100692676E+02 -0.13744327145E+01  0.15648160884E+02  0.51100000000E-03 0.  1.
        -12    1    3    3    0    0 -0.21767832200E+02  0.10615890647E+02  0.68970621033E+01  0.25181443934E+02  0.00000000000E+00 0.  1.
</event>
<event>
 7    1  0.7674040E-012  0.5930197E+02  0.7816164E-02  0.1266605E+00
        -11   -1    0    0    0    0  0.00000000000E+00  0.00000000000E+00  0.45593999997E+02  0.45594000000E+02  0.51100000000E-03 0. -1.
         11   -1    0    0    0    0 -0.00000000000E+00 -0.00000000000E+00 -0.45593999997E+02  0.45594000000E+02  0.51100000000E-03 0.  1.
    9900012    2    1    2    0    0 -0.25471355924E+02  0.46705646286E+01 -0.18604155231E+02  0.59301972678E+02  0.50000052251E+02 0.  0.
         12    1    1    2    0    0  0.25471355924E+02 -0.46705646286E+01  0.18604155231E+02  0.31886027322E+02  0.00000000000E+00 0. -1.
         11    1    3    3    0    0 -0.66130156366E-01  0.22829824185E+01 -0.25030951409E+01  0.33884904406E+01  0.51100000000E-03 0. -1.
        -11    1    3    3    0    0 -0.38235033280E+02 -0.34995694814E+01 -0.16503971560E+02  0.41791695754E+02  0.51100000000E-03 0.  1.
        -12    1    3    3    0    0  0.12829807512E+02  0.58871516915E+01  0.40291147036E+00  0.14121786484E+02  0.00000000000E+00 0.  1.
</event>
<event>
 7    1  0.7674040E-012  0.5930198E+02  0.7816164E-02  0.1266605E+00
        -11   -1    0    0    0    0  0.00000000000E+00  0.00000000000E+00  0.45593999997E+02  0.45594000000E+02  0.51100000000E-03 0. -1.
         11   -1    0    0    0    0 -0.00000000000E+00 -0.00000000000E+00 -0.45593999997E+02  0.45594000000E+02  0.51100000000E-03 0.  1.
    9900012    2    1    2    0    0 -0.14245141502E+02 -0.28375373074E+02 -0.29380780747E+01  0.59301981806E+02  0.50000068898E+02 0.  0.
         12    1    1    2    0    0  0.14245141502E+02  0.28375373074E+02  0.29380780747E+01  0.31886018194E+02  0.00000000000E+00 0. -1.
         11    1    3    3    0    0 -0.20065729177E+02 -0.57906359501E+01  0.54385751617E+01  0.21581080885E+02  0.51100000000E-03 0. -1.
        -11    1    3    3    0    0  0.30037560738E+01 -0.13101355834E+01 -0.14927566870E+02  0.15283038269E+02  0.51100000000E-03 0.  1.
        -12    1    3    3    0    0  0.28168316011E+01 -0.21274601540E+02  0.65509136337E+01  0.22437862652E+02  0.00000000000E+00 0.  1.
</event>
<event>
 7    1  0.7674040E-012  0.5930186E+02  0.7816164E-02  0.1266605E+00
        -11   -1    0    0    0    0  0.00000000000E+00  0.00000000000E+00  0.45593999997E+02  0.45594000000E+02  0.51100000000E-03 0.  1.
         11   -1    0    0    0    0 -0.00000000000E+00 -0.00000000000E+00 -0.45593999997E+02  0.45594000000E+02  0.51100000000E-03 0. -1.
    9900012    2    1    2    0    0 -0.16168810756E+02  0.12046929313E+02  0.24701564082E+02  0.59301855435E+02  0.49999838429E+02 0.  0.
         12    1    1    2    0    0  0.16168810756E+02 -0.12046929313E+02 -0.24701564082E+02  0.31886144565E+02  0.00000000000E+00 0. -1.
         11    1    3    3    0    0  0.54665916793E+01 -0.84082863415E+01  0.21287899451E+02  0.23532054035E+02  0.51100000000E-03 0. -1.
        -11    1    3    3    0    0 -0.13353380998E+02  0.98638061639E+01 -0.77244394063E+01  0.18310500280E+02  0.51100000000E-03 0.  1.
         12    1    3    3    0    0 -0.82820214369E+01  0.10591409490E+02  0.11138104037E+02  0.17459301120E+02  0.00000000000E+00 0. -1.
</event>
<event>
 7    1  0.7674040E-012  0.5930196E+02  0.7816164E-02  0.1266605E+00
        -11   -1    0    0    0    0  0.00000000000E+00  0.00000000000E+00  0.45593999997E+02  0.45594000000E+02  0.51100000000E-03 0.  1.
         11   -1    0    0    0    0 -0.00000000000E+00 -0.00000000000E+00 -0.45593999997E+02  0.45594000000E+02  0.51100000000E-03 0. -1.
    9900012    2    1    2    0    0  0.23378792896E+02 -0.40193216299E+01  0.21307193838E+02  0.59301962101E+02  0.50000032961E+02 0.  0.
         12    1    1    2    0    0 -0.23378792896E+02  0.40193216299E+01 -0.21307193838E+02  0.31886037899E+02  0.00000000000E+00 0. -1.
         11    1    3    3    0    0  0.17292212316E+02 -0.63195589225E+01 -0.10175398675E+02  0.21035592937E+02  0.51100000000E-03 0. -1.
        -11    1    3    3    0    0  0.68768540014E+01  0.10798471113E+02  0.22418241159E+02  0.25816189422E+02  0.51100000000E-03 0.  1.
         12    1    3    3    0    0 -0.79027342129E+00 -0.84982338201E+01  0.90643513546E+01  0.12450179743E+02  0.00000000000E+00 0. -1.
</event>
<event>
 7    1  0.7674040E-012  0.5930206E+02  0.7816164E-02  0.1266604E+00
        -11   -1    0    0    0    0  0.00000000000E+00  0.00000000000E+00  0.45593999997E+02  0.45594000000E+02  0.51100000000E-03 0. -1.
         11   -1    0    0    0    0 -0.00000000000E+00 -0.00000000000E+00 -0.45593999997E+02  0.45594000000E+02  0.51100000000E-03 0.  1.
    9900012    2    1    2    0    0 -0.18665322846E+02 -0.24337503542E+01 -0.25737055884E+02  0.59302055396E+02  0.50000203109E+02 0.  0.
         12    1    1    2    0    0  0.18665322846E+02  0.24337503542E+01  0.25737055884E+02  0.31885944604E+02  0.00000000000E+00 0. -1.
         11    1    3    3    0    0 -0.18503974295E+02  0.67937061215E+01 -0.28993430981E+01  0.19923797285E+02  0.51100000000E-03 0. -1.
        -11    1    3    3    0    0  0.24772492887E+00 -0.14962835330E+02 -0.27937168416E+02  0.31692793946E+02  0.51100000000E-03 0.  1.
        -12    1    3    3    0    0 -0.40907347956E+00  0.57353788544E+01  0.50994556302E+01  0.76854641655E+01  0.00000000000E+00 0.  1.
</event>
<event>
 7    1  0.7674040E-012  0.5930195E+02  0.7816164E-02  0.1266605E+00
        -11   -1    0    0    0    0  0.00000000000E+00  0.00000000000E+00  0.45593999997E+02  0.45594000000E+02  0.51100000000E-03 0. -1.
         11   -1    0    0    0    0 -0.00000000000E+00 -0.00000000000E+00 -0.45593999997E+02  0.45594000000E+02  0.51100000000E-03 0.  1.
    9900012    2    1    2    0    0 -0.10658589167E+02 -0.28640756230E+02 -0.91006278059E+01  0.59301954981E+02  0.50000019976E+02 0.  0.
         12    1    1    2    0    0  0.10658589167E+02  0.28640756230E+02  0.91006278059E+01  0.31886045019E+02  0.00000000000E+00 0. -1.
         11    1    3    3    0    0  0.50871425199E+01  0.29218181221E+01 -0.14707544697E+02  0.15834390151E+02  0.51100000000E-03 0.  1.
        -11    1    3    3    0    0  0.30185877922E+00 -0.26166624720E+02  0.30628269922E+01  0.26346997503E+02  0.51100000000E-03 0. -1.
         12    1    3    3    0    0 -0.16047590466E+02 -0.53959496325E+01  0.25440898992E+01  0.17120567328E+02  0.00000000000E+00 0. -1.
</event>
<event>
 7    1  0.7674040E-012  0.5930195E+02  0.7816164E-02  0.1266605E+00
        -11   -1    0    0    0    0  0.00000000000E+00  0.00000000000E+00  0.45593999997E+02  0.45594000000E+02  0.51100000000E-03 0. -1.
         11   -1    0    0    0    0 -0.00000000000E+00 -0.00000000000E+00 -0.45593999997E+02  0.45594000000E+02  0.51100000000E-03 0.  1.
    9900012    2    1    2    0    0 -0.26455443583E+02  0.10118387863E+02 -0.14644041700E+02  0.59301949359E+02  0.50000009723E+02 0.  0.
         12    1    1    2    0    0  0.26455443583E+02 -0.10118387863E+02  0.14644041700E+02  0.31886050641E+02  0.00000000000E+00 0. -1.
         11    1    3    3    0    0 -0.29816840464E+02  0.86572670041E+01  0.76272272177E+01  0.31971344084E+02  0.51100000000E-03 0. -1.
        -11    1    3    3    0    0  0.29369716431E+00  0.79075196975E+01 -0.15907398732E+02  0.17766835972E+02  0.51100000000E-03 0.  1.
        -12    1    3    3    0    0  0.30676997164E+01 -0.64463988383E+01 -0.63638701861E+01  0.95637693029E+01  0.00000000000E+00 0.  1.
</event>
<event>
 7    1  0.7674040E-012  0.5930189E+02  0.7816164E-02  0.1266605E+00
        -11   -1    0    0    0    0  0.00000000000E+00  0.00000000000E+00  0.45593999997E+02  0.45594000000E+02  0.51100000000E-03 0.  1.
         11   -1    0    0    0    0 -0.00000000000E+00 -0.00000000000E+00 -0.45593999997E+02  0.45594000000E+02  0.51100000000E-03 0. -1.
    9900012    2    1    2    0    0 -0.11706146555E+02 -0.29140637880E+02  0.55238679213E+01  0.59301893934E+02  0.49999908640E+02 0.  0.
         12    1    1    2    0    0  0.11706146555E+02  0.29140637880E+02 -0.55238679213E+01  0.31886106066E+02  0.00000000000E+00 0. -1.
         11    1    3    3    0    0 -0.12187254571E+02  0.17090152471E+01 -0.13465877566E+02  0.18242252218E+02  0.51100000000E-03 0. -1.
        -11    1    3    3    0    0  0.18217030953E+01  0.22262317779E+01  0.34461847744E+01  0.44889753683E+01  0.51100000000E-03 0.  1.
         12    1    3    3    0    0 -0.13405950794E+01 -0.33075884905E+02  0.15543560713E+02  0.36570666347E+02  0.00000000000E+00 0. -1.
</event>
<event>
 7    1  0.7674040E-012  0.5930195E+02  0.7816164E-02  0.1266605E+00
        -11   -1    0    0    0    0  0.00000000000E+00  0.00000000000E+00  0.45593999997E+02  0.45594000000E+02  0.51100000000E-03 0.  1.
         11   -1    0    0    0    0 -0.00000000000E+00 -0.00000000000E+00 -0.45593999997E+02  0.45594000000E+02  0.51100000000E-03 0. -1.
    9900012    2    1    2    0    0 -0.11927710664E+02 -0.29343811445E+02  0.36592939772E+01  0.59301953142E+02  0.50000016622E+02 0.  0.
         12    1    1    2    0    0  0.11927710664E+02  0.29343811445E+02 -0.36592939772E+01  0.31886046858E+02  0.00000000000E+00 0. -1.
         11    1    3    3    0    0  0.77433954596E+01  0.79613055558E+01  0.94941583515E+01  0.14611009632E+02  0.51100000000E-03 0. -1.
        -11    1    3    3    0    0 -0.82898232112E+01 -0.17901655069E+02  0.40176375655E+01  0.20132854615E+02  0.51100000000E-03 0.  1.
         12    1    3    3    0    0 -0.11381282913E+02 -0.19403461932E+02 -0.98525019399E+01  0.24558088895E+02  0.00000000000E+00 0. -1.
</event>
<event>
 7    1  0.7674040E-012  0.5930198E+02  0.7816164E-02  0.1266605E+00
        -11   -1    0    0    0    0  0.00000000000E+00  0.00000000000E+00  0.45593999997E+02  0.45594000000E+02  0.51100000000E-03 0. -1.
         11   -1    0    0    0    0 -0.00000000000E+00 -0.00000000000E+00 -0.45593999997E+02  0.45594000000E+02  0.51100000000E-03 0.  1.
    9900012    2    1    2    0    0  0.20191971851E+02 -0.15523134623E+01 -0.24629110172E+02  0.59301976852E+02  0.50000059864E+02 0.  0.
         12    1    1    2    0    0 -0.20191971851E+02  0.15523134623E+01  0.24629110172E+02  0.31886023148E+02  0.00000000000E+00 0. -1.
         11    1    3    3    0    0 -0.30894283782E+01  0.16209077727E+02 -0.23649415721E+02  0.28837018443E+02  0.51100000000E-03 0. -1.
        -11    1    3    3    0    0  0.17439942593E+02 -0.94067055483E+01 -0.30899168950E+01  0.20054557925E+02  0.51100000000E-03 0.  1.
         12    1    3    3    0    0  0.58414576365E+01 -0.83546856410E+01  0.21102224434E+01  0.10410400484E+02  0.00000000000E+00 0. -1.
</event>
<event>
 7    1  0.7674040E-012  0.5930195E+02  0.7816164E-02  0.1266605E+00
        -11   -1    0    0    0    0  0.00000000000E+00  0.00000000000E+00  0.45593999997E+02  0.45594000000E+02  0.51100000000E-03 0.  1.
         11   -1    0    0    0    0 -0.00000000000E+00 -0.00000000000E+00 -0.45593999997E+02  0.45594000000E+02  0.51100000000E-03 0. -1.
    9900012    2    1    2    0    0  0.24309297070E+02  0.46628438705E+01  0.20100656546E+02  0.59301946143E+02  0.50000003857E+02 0.  0.
         12    1    1    2    0    0 -0.24309297070E+02 -0.46628438705E+01 -0.20100656546E+02  0.31886053857E+02  0.00000000000E+00 0. -1.
         11    1    3    3    0    0  0.20472670993E+01  0.19612105742E+02  0.86933893771E+01  0.21549965506E+02  0.51100000000E-03 0. -1.
        -11    1    3    3    0    0  0.21293061966E+02 -0.75792069675E+01 -0.17190181575E+01  0.22667022077E+02  0.51100000000E-03 0.  1.
         12    1    3    3    0    0  0.96896800445E+00 -0.73700549035E+01  0.13126285326E+02  0.15084958559E+02  0.00000000000E+00 0. -1.
</event>
<event>
 7    1  0.7674040E-012  0.5930188E+02  0.7816164E-02  0.1266605E+00
        -11   -1    0    0    0    0  0.00000000000E+00  0.00000000000E+00  0.45593999997E+02  0.45594000000E+02  0.51100000000E-03 0.  1.
         11   -1    0    0    0    0 -0.00000000000E+00 -0.00000000000E+00 -0.45593999997E+02  0.45594000000E+02  0.51100000000E-03 0. -1.
    9900012    2    1    2    0    0 -0.18842130012E+01 -0.17762345299E+02  0.26413509306E+02  0.59301880088E+02  0.49999883389E+02 0.  0.
         12    1    1    2    0    0  0.18842130012E+01  0.17762345299E+02 -0.26413509306E+02  0.31886119912E+02  0.00000000000E+00 0. -1.
         11    1    3    3    0    0  0.18863720396E+01  0.96101456342E+01  0.18267817606E+02  0.20727432522E+02  0.51100000000E-03 0. -1.
        -11    1    3    3    0    0  0.92430275524E+01 -0.21482403006E+02  0.58451465271E+01  0.24105869315E+02  0.51100000000E-03 0.  1.
         12    1    3    3    0    0 -0.13013612593E+02 -0.58900879273E+01  0.23005451732E+01  0.14468578251E+02  0.00000000000E+00 0. -1.
</event>
<event>
 7    1  0.7674040E-012  0.5930194E+02  0.7816164E-02  0.1266605E+00
        -11   -1    0    0    0    0  0.00000000000E+00  0.00000000000E+00  0.45593999997E+02  0.45594000000E+02  0.51100000000E-03 0. -1.
         11   -1    0    0    0    0 -0.00000000000E+00 -0.00000000000E+00 -0.45593999997E+02  0.45594000000E+02  0.51100000000E-03 0.  1.
    9900012    2    1    2    0    0 -0.23134490665E+02 -0.21934678697E+02  0.62111520876E+00  0.59301943925E+02  0.49999999813E+02 0.  0.
         12    1    1    2    0    0  0.23134490665E+02  0.21934678697E+02 -0.62111520876E+00  0.31886056075E+02  0.00000000000E+00 0. -1.
         11    1    3    3    0    0  0.48313918204E+01 -0.17458807773E+02  0.12988497262E+02  0.22290208101E+02  0.51100000000E-03 0. -1.
        -11    1    3    3    0    0 -0.29230799474E+02  0.76955637433E+00 -0.87740031028E+01  0.30528920479E+02  0.51100000000E-03 0.  1.
        -12    1    3    3    0    0  0.12649169883E+01 -0.52454272983E+01 -0.35933789504E+01  0.64828153460E+01  0.00000000000E+00 0.  1.
</event>
<event>
 7    1  0.7674040E-012  0.5930195E+02  0.7816164E-02  0.1266605E+00
        -11   -1    0    0    0    0  0.00000000000E+00  0.00000000000E+00  0.45593999997E+02  0.45594000000E+02  0.51100000000E-03 0. -1.
         11   -1    0    0    0    0 -0.00000000000E+00 -0.00000000000E+00 -0.45593999997E+02  0.45594000000E+02  0.51100000000E-03 0.  1.
    9900012    2    1    2    0    0 -0.18293194764E+02 -0.22804471765E+02  0.12729306079E+02  0.59301950693E+02  0.50000012156E+02 0.  0.
         12    1    1    2    0    0  0.18293194764E+02  0.22804471765E+02 -0.12729306079E+02  0.31886049307E+02  0.00000000000E+00 0. -1.
         11    1    3    3    0    0 -0.20031314370E+02 -0.43524152008E+01 -0.37114637387E+01  0.20831995507E+02  0.51100000000E-03 0. -1.
        -11    1    3    3    0    0 -0.33438864368E+01 -0.21003441220E+02  0.21942122785E+02  0.30557861054E+02  0.51100000000E-03 0.  1.
        -12    1    3    3    0    0  0.50820060430E+01  0.25513846565E+01 -0.55013529673E+01  0.79120941323E+01  0.00000000000E+00 0.  1.
</event>
<event>
 7    1  0.7674040E-012  0.5930211E+02  0.7816164E-02  0.1266604E+00
        -11   -1    0    0    0    0  0.00000000000E+00  0.00000000000E+00  0.45593999997E+02  0.45594000000E+02  0.51100000000E-03 0. -1.
         11   -1    0    0    0    0 -0.00000000000E+00 -0.00000000000E+00 -0.45593999997E+02  0.45594000000E+02  0.51100000000E-03 0.  1.
    9900012    2    1    2    0    0  0.31464859547E+02 -0.43806658298E+01 -0.27354311477E+01  0.59302106520E+02  0.50000296346E+02 0.  0.
         12    1    1    2    0    0 -0.31464859547E+02  0.43806658298E+01  0.27354311477E+01  0.31885893480E+02  0.00000000000E+00 0. -1.
         11    1    3    3    0    0  0.13365438514E+02 -0.20058457158E+02  0.95652861167E+01  0.25932052541E+02  0.51100000000E-03 0. -1.
        -11    1    3    3    0    0  0.44973915606E+00  0.10697636270E+02  0.94378803551E+00  0.10748600988E+02  0.51100000000E-03 0.  1.
         12    1    3    3    0    0  0.17649681878E+02  0.49801550583E+01 -0.13244505300E+02  0.22621452991E+02  0.00000000000E+00 0. -1.
</event>
<event>
 7    1  0.7674040E-012  0.5930197E+02  0.7816164E-02  0.1266605E+00
        -11   -1    0    0    0    0  0.00000000000E+00  0.00000000000E+00  0.45593999997E+02  0.45594000000E+02  0.51100000000E-03 0. -1.
         11   -1    0    0    0    0 -0.00000000000E+00 -0.00000000000E+00 -0.45593999997E+02  0.45594000000E+02  0.51100000000E-03 0.  1.
    9900012    2    1    2    0    0  0.14549510214E+02 -0.26857398540E+02 -0.91493776279E+01  0.59301965208E+02  0.50000038627E+02 0.  0.
         12    1    1    2    0    0 -0.14549510214E+02  0.26857398540E+02  0.91493776279E+01  0.31886034792E+02  0.00000000000E+00 0. -1.
         11    1    3    3    0    0 -0.11676253338E+02  0.33865565816E+01 -0.83280566653E+01  0.14736355912E+02  0.51100000000E-03 0. -1.
        -11    1    3    3    0    0  0.23460999393E+02 -0.32524563081E+02  0.17711213156E+01  0.40142279047E+02  0.51100000000E-03 0.  1.
        -12    1    3    3    0    0  0.27647641587E+01  0.22806079594E+01 -0.25924422782E+01  0.44233302481E+01  0.00000000000E+00 0.  1.
</event>
<event>
 7    1  0.9972200E-012  0.5930193E+02  0.7816164E-02  0.1266605E+00
        -11   -1    0    0    0    0  0.00000000000E+00  0.00000000000E+00  0.45593999997E+02  0.45594000000E+02  0.51100000000E-03 0. -1.
         11   -1    0    0    0    0 -0.00000000000E+00 -0.00000000000E+00 -0.45593999997E+02  0.45594000000E+02  0.51100000000E-03 0.  1.
    9900012    2    1    2    0    0 -0.64038706679E+01 -0.10074025162E+02 -0.29567308157E+02  0.59301933228E+02  0.49999980305E+02 0.  0.
         12    1    1    2    0    0  0.64038706679E+01  0.10074025162E+02  0.29567308157E+02  0.31886066772E+02  0.00000000000E+00 0. -1.
         11    1    3    3    0    0 -0.23398207348E+02 -0.36520491847E+01 -0.80495442660E+01  0.25012171707E+02  0.51100000000E-03 0. -1.
        -11    1    3    3    0    0  0.93499747672E+01 -0.13391370346E+02 -0.13829640155E+02  0.21401162935E+02  0.51100000000E-03 0.  1.
        -12    1    3    3    0    0  0.76443619132E+01  0.69693943689E+01 -0.76881237364E+01  0.12888598586E+02  0.00000000000E+00 0.  1.
</event>
<event>
 7    1  0.7674040E-012  0.5930194E+02  0.7816164E-02  0.1266605E+00
        -11   -1    0    0    0    0  0.00000000000E+00  0.00000000000E+00  0.45593999997E+02  0.45594000000E+02  0.51100000000E-03 0.  1.
         11   -1    0    0    0    0 -0.00000000000E+00 -0.00000000000E+00 -0.45593999997E+02  0.45594000000E+02  0.51100000000E-03 0. -1.
    9900012    2    1    2    0    0 -0.58888982798E+00 -0.20208352743E+02  0.24657584262E+02  0.59301940766E+02  0.49999994052E+02 0.  0.
         12    1    1    2    0    0  0.58888982798E+00  0.20208352743E+02 -0.24657584262E+02  0.31886059234E+02  0.00000000000E+00 0. -1.
         11    1    3    3    0    0  0.24479005459E+01  0.42026574235E+01 -0.96992742824E+01  0.10850367200E+02  0.51100000000E-03 0. -1.
        -11    1    3    3    0    0  0.74014932907E+01 -0.12925627430E+02  0.58669404682E+01  0.16008589511E+02  0.51100000000E-03 0.  1.
         12    1    3    3    0    0 -0.10438283665E+02 -0.11485382736E+02  0.28489918076E+02  0.32442984056E+02  0.00000000000E+00 0. -1.
</event>
<event>
 7    1  0.7674040E-012  0.5930195E+02  0.7816164E-02  0.1266605E+00
        -11   -1    0    0    0    0  0.00000000000E+00  0.00000000000E+00  0.45593999997E+02  0.45594000000E+02  0.51100000000E-03 0.  1.
         11   -1    0    0    0    0 -0.00000000000E+00 -0.00000000000E+00 -0.45593999997E+02  0.45594000000E+02  0.51100000000E-03 0. -1.
    9900012    2    1    2    0    0  0.24479268057E+02  0.16229595147E+02  0.12413124140E+02  0.59301953300E+02  0.50000016911E+02 0.  0.
         12    1    1    2    0    0 -0.24479268057E+02 -0.16229595147E+02 -0.12413124140E+02  0.31886046700E+02  0.00000000000E+00 0. -1.
         11    1    3    3    0    0  0.11927783803E+02 -0.18692849061E+01  0.25753189444E+02  0.28442802592E+02  0.51100000000E-03 0.  1.
        -11    1    3    3    0    0  0.13069154227E+02  0.48365738371E+01 -0.35900407023E+01  0.14390400661E+02  0.51100000000E-03 0. -1.
         12    1    3    3    0    0 -0.51766997397E+00  0.13262306216E+02 -0.97500246016E+01  0.16468750047E+02  0.00000000000E+00 0. -1.
</event>
<event>
 7    1  0.7674040E-012  0.5930192E+02  0.7816164E-02  0.1266605E+00
        -11   -1    0    0    0    0  0.00000000000E+00  0.00000000000E+00  0.45593999997E+02  0.45594000000E+02  0.51100000000E-03 0.  1.
         11   -1    0    0    0    0 -0.00000000000E+00 -0.00000000000E+00 -0.45593999997E+02  0.45594000000E+02  0.51100000000E-03 0. -1.
    9900012    2    1    2    0    0 -0.28096349064E+00 -0.31458741607E+02  0.51952909988E+01  0.59301915064E+02  0.49999947177E+02 0.  0.
         12    1    1    2    0    0  0.28096349064E+00  0.31458741607E+02 -0.51952909988E+01  0.31886084936E+02  0.00000000000E+00 0. -1.
         11    1    3    3    0    0 -0.16081102309E+02 -0.43002717145E+01  0.11899445809E+02  0.20461940257E+02  0.51100000000E-03 0. -1.
        -11    1    3    3    0    0  0.13674657220E+02 -0.83841672902E+01  0.47701063734E+01  0.16734527968E+02  0.51100000000E-03 0.  1.
        -12    1    3    3    0    0  0.21254815978E+01 -0.18774302602E+02 -0.11474261183E+02  0.22105446838E+02  0.00000000000E+00 0.  1.
</event>
<event>
 7    1  0.7674040E-012  0.5930194E+02  0.7816164E-02  0.1266605E+00
        -11   -1    0    0    0    0  0.00000000000E+00  0.00000000000E+00  0.45593999997E+02  0.45594000000E+02  0.51100000000E-03 0. -1.
         11   -1    0    0    0    0 -0.00000000000E+00 -0.00000000000E+00 -0.45593999997E+02  0.45594000000E+02  0.51100000000E-03 0.  1.
    9900012    2    1    2    0    0 -0.23709659995E+02  0.50242179439E-01 -0.21320648391E+02  0.59301944284E+02  0.50000000467E+02 0.  0.
         12    1    1    2    0    0  0.23709659995E+02 -0.50242179439E-01  0.21320648391E+02  0.31886055716E+02  0.00000000000E+00 0. -1.
         11    1    3    3    0    0 -0.19221295506E+01 -0.12189264094E+02 -0.22407165074E+02  0.25580339874E+02  0.51100000000E-03 0. -1.
        -11    1    3    3    0    0 -0.17658737931E+02  0.14665226032E+02 -0.72804484921E+01  0.24081212809E+02  0.51100000000E-03 0.  1.
         12    1    3    3    0    0 -0.41287925136E+01 -0.24257197589E+01  0.83669651752E+01  0.96403916005E+01  0.00000000000E+00 0. -1.
</event>
<event>
 7    1  0.7674040E-012  0.5930195E+02  0.7816164E-02  0.1266605E+00
        -11   -1    0    0    0    0  0.00000000000E+00  0.00000000000E+00  0.45593999997E+02  0.45594000000E+02  0.51100000000E-03 0. -1.
         11   -1    0    0    0    0 -0.00000000000E+00 -0.00000000000E+00 -0.45593999997E+02  0.45594000000E+02  0.51100000000E-03 0.  1.
    9900012    2    1    2    0    0 -0.62988704628E+01  0.55201119727E+01 -0.30766426975E+02  0.59301946088E+02  0.50000003757E+02 0.  0.
         12    1    1    2    0    0  0.62988704628E+01 -0.55201119727E+01  0.30766426975E+02  0.31886053912E+02  0.00000000000E+00 0. -1.
         11    1    3    3    0    0 -0.14716981896E+02 -0.44742382178E+01  0.12854216076E+01  0.15435694760E+02  0.51100000000E-03 0. -1.
        -11    1    3    3    0    0 -0.19185979409E+01  0.11573273687E+02 -0.31249477621E+02  0.33378908516E+02  0.51100000000E-03 0.  1.
        -12    1    3    3    0    0  0.10336709374E+02 -0.15789234967E+01 -0.80237096191E+00  0.10487342812E+02  0.00000000000E+00 0.  1.
</event>
<event>
 7    1  0.7674040E-012  0.5930190E+02  0.7816164E-02  0.1266605E+00
        -11   -1    0    0    0    0  0.00000000000E+00  0.00000000000E+00  0.45593999997E+02  0.45594000000E+02  0.51100000000E-03 0.  1.
         11   -1    0    0    0    0 -0.00000000000E+00 -0.00000000000E+00 -0.45593999997E+02  0.45594000000E+02  0.51100000000E-03 0. -1.
    9900012    2    1    2    0    0  0.39215800610E+01  0.27911356424E+02  0.14909754602E+02  0.59301899738E+02  0.49999919226E+02 0.  0.
         12    1    1    2    0    0 -0.39215800610E+01 -0.27911356424E+02 -0.14909754602E+02  0.31886100262E+02  0.00000000000E+00 0. -1.
         11    1    3    3    0    0  0.20633704355E+02  0.15071172905E+02  0.96225174986E+01  0.27303531849E+02  0.51100000000E-03 0. -1.
        -11    1    3    3    0    0 -0.90877834663E+01  0.77795467025E+01  0.14644975640E+02  0.18909903939E+02  0.51100000000E-03 0.  1.
         12    1    3    3    0    0 -0.76243408277E+01  0.50606368171E+01 -0.93577385367E+01  0.13088463950E+02  0.00000000000E+00 0. -1.
</event>
<event>
 7    1  0.7674040E-012  0.5930194E+02  0.7816164E-02  0.1266605E+00
        -11   -1    0    0    0    0  0.00000000000E+00  0.00000000000E+00  0.45593999997E+02  0.45594000000E+02  0.51100000000E-03 0.  1.
         11   -1    0    0    0    0 -0.00000000000E+00 -0.00000000000E+00 -0.45593999997E+02  0.45594000000E+02  0.51100000000E-03 0. -1.
    9900012    2    1    2    0    0 -0.23930198209E+02 -0.68734470532E+01  0.19920394230E+02  0.59301940868E+02  0.49999994237E+02 0.  0.
         12    1    1    2    0    0  0.23930198209E+02  0.68734470532E+01 -0.19920394230E+02  0.31886059132E+02  0.00000000000E+00 0. -1.
         11    1    3    3    0    0  0.52093341487E+01  0.97683150807E+01  0.19955578281E+02  0.22820653947E+02  0.51100000000E-03 0. -1.
        -11    1    3    3    0    0 -0.15283081177E+02 -0.14760045842E+02  0.46194959926E+01  0.21743303958E+02  0.51100000000E-03 0.  1.
         12    1    3    3    0    0 -0.13856451180E+02 -0.18817162921E+01 -0.46546800435E+01  0.14737982963E+02  0.00000000000E+00 0. -1.
</event>
<event>
 7    1  0.7674040E-012  0.5930195E+02  0.7816164E-02  0.1266605E+00
        -11   -1    0    0    0    0  0.00000000000E+00  0.00000000000E+00  0.45593999997E+02  0.45594000000E+02  0.51100000000E-03 0.  1.
         11   -1    0    0    0    0 -0.00000000000E+00 -0.00000000000E+00 -0.45593999997E+02  0.45594000000E+02  0.51100000000E-03 0. -1.
    9900012    2    1    2    0    0  0.31830245353E+02 -0.20180260511E+00 -0.18747359779E+01  0.59301954800E+02  0.50000019646E+02 0.  0.
         12    1    1    2    0    0 -0.31830245353E+02  0.20180260511E+00  0.18747359779E+01  0.31886045200E+02  0.00000000000E+00 0. -1.
         11    1    3    3    0    0  0.16670282620E+02 -0.72489349093E+01 -0.16934145573E+02  0.24843724892E+02  0.51100000000E-03 0. -1.
        -11    1    3    3    0    0  0.95935250223E+01  0.16586651204E+02  0.13175383973E+02  0.23253891365E+02  0.51100000000E-03 0.  1.
         12    1    3    3    0    0  0.55664377106E+01 -0.95395189001E+01  0.18840256225E+01  0.11204338543E+02  0.00000000000E+00 0. -1.
</event>
<event>
 7    1  0.7674040E-012  0.5930202E+02  0.7816164E-02  0.1266604E+00
        -11   -1    0    0    0    0  0.00000000000E+00  0.00000000000E+00  0.45593999997E+02  0.45594000000E+02  0.51100000000E-03 0. -1.
         11   -1    0    0    0    0 -0.00000000000E+00 -0.00000000000E+00 -0.45593999997E+02  0.45594000000E+02  0.51100000000E-03 0.  1.
    9900012    2    1    2    0    0  0.13924201091E+02 -0.26929990044E+02 -0.98796752872E+01  0.59302019953E+02  0.50000138469E+02 0.  0.
         12    1    1    2    0    0 -0.13924201091E+02  0.26929990044E+02  0.98796752872E+01  0.31885980047E+02  0.00000000000E+00 0. -1.
         11    1    3    3    0    0 -0.13389271722E+02 -0.25514333524E+02 -0.59000890698E+01  0.29411985035E+02  0.51100000000E-03 0. -1.
        -11    1    3    3    0    0  0.12026934677E+02  0.19288734414E+01  0.33172140174E+01  0.12624247288E+02  0.51100000000E-03 0.  1.
         12    1    3    3    0    0  0.15286538135E+02 -0.33445299617E+01 -0.72968002348E+01  0.17265787630E+02  0.00000000000E+00 0. -1.
</event>
<event>
 7    1  0.7674040E-012  0.5930189E+02  0.7816164E-02  0.1266605E+00
        -11   -1    0    0    0    0  0.00000000000E+00  0.00000000000E+00  0.45593999997E+02  0.45594000000E+02  0.51100000000E-03 0. -1.
         11   -1    0    0    0    0 -0.00000000000E+00 -0.00000000000E+00 -0.45593999997E+02  0.45594000000E+02  0.51100000000E-03 0.  1.
    9900012    2    1    2    0    0  0.33780586514E+01 -0.30639233625E+02 -0.81578380552E+01  0.59301886422E+02  0.49999894940E+02 0.  0.
         12    1    1    2    0    0 -0.33780586514E+01  0.30639233625E+02  0.81578380552E+01  0.31886113578E+02  0.00000000000E+00 0. -1.
         11    1    3    3    0    0  0.50385827072E+01  0.10241832344E+02  0.53204524844E+01  0.12593238677E+02  0.51100000000E-03 0. -1.
        -11    1    3    3    0    0 -0.12000466792E+01 -0.22609214556E+02 -0.16720184761E+02  0.28145715013E+02  0.51100000000E-03 0.  1.
         12    1    3    3    0    0 -0.46047737656E+00 -0.18271851413E+02  0.32418942212E+01  0.18562932732E+02  0.00000000000E+00 0. -1.
</event>
<event>
 7    1  0.7674040E-012  0.5930193E+02  0.7816164E-02  0.1266605E+00
        -11   -1    0    0    0    0  0.00000000000E+00  0.00000000000E+00  0.45593999997E+02  0.45594000000E+02  0.51100000000E-03 0.  1.
         11   -1    0    0    0    0 -0.00000000000E+00 -0.00000000000E+00 -0.45593999997E+02  0.45594000000E+02  0.51100000000E-03 0. -1.
    9900012    2    1    2    0    0  0.83311639156E+01  0.21985192355E+02  0.21539838188E+02  0.59301927739E+02  0.49999970293E+02 0.  0.
         12    1    1    2    0    0 -0.83311639156E+01 -0.21985192355E+02 -0.21539838188E+02  0.31886072261E+02  0.00000000000E+00 0. -1.
         11    1    3    3    0    0 -0.15224652728E+02  0.16991943837E+01 -0.17447980833E+01  0.15418224050E+02  0.51100000000E-03 0. -1.
        -11    1    3    3    0    0  0.79204126116E+01  0.10274357652E+02  0.21658572329E+02  0.25246566434E+02  0.51100000000E-03 0.  1.
        -12    1    3    3    0    0  0.15635404032E+02  0.10011640319E+02  0.16260639423E+01  0.18637137255E+02  0.00000000000E+00 0.  1.
</event>
<event>
 7    1  0.7674040E-012  0.5930194E+02  0.7816164E-02  0.1266605E+00
        -11   -1    0    0    0    0  0.00000000000E+00  0.00000000000E+00  0.45593999997E+02  0.45594000000E+02  0.51100000000E-03 0. -1.
         11   -1    0    0    0    0 -0.00000000000E+00 -0.00000000000E+00 -0.45593999997E+02  0.45594000000E+02  0.51100000000E-03 0.  1.
    9900012    2    1    2    0    0 -0.24219562914E+02  0.11010025297E+02  0.17575927976E+02  0.59301935191E+02  0.49999983883E+02 0.  0.
         12    1    1    2    0    0  0.24219562914E+02 -0.11010025297E+02 -0.17575927976E+02  0.31886064809E+02  0.00000000000E+00 0. -1.
         11    1    3    3    0    0 -0.15578466832E+02 -0.11045148148E+02  0.13884944694E+01  0.19147110581E+02  0.51100000000E-03 0. -1.
        -11    1    3    3    0    0  0.91159114944E+01  0.44515064951E+01  0.10320679204E+02  0.14471771555E+02  0.51100000000E-03 0.  1.
        -12    1    3    3    0    0 -0.17757007576E+02  0.17603666950E+02  0.58667543033E+01  0.25683053055E+02  0.00000000000E+00 0.  1.
</event>
<event>
 7    1  0.7674040E-012  0.5930186E+02  0.7816164E-02  0.1266605E+00
        -11   -1    0    0    0    0  0.00000000000E+00  0.00000000000E+00  0.45593999997E+02  0.45594000000E+02  0.51100000000E-03 0. -1.
         11   -1    0    0    0    0 -0.00000000000E+00 -0.00000000000E+00 -0.45593999997E+02  0.45594000000E+02  0.51100000000E-03 0.  1.
    9900012    2    1    2    0    0 -0.25561851607E+02 -0.97786654043E+01 -0.16361400065E+02  0.59301859331E+02  0.49999845534E+02 0.  0.
         12    1    1    2    0    0  0.25561851607E+02  0.97786654043E+01  0.16361400065E+02  0.31886140669E+02  0.00000000000E+00 0. -1.
         11    1    3    3    0    0 -0.15479353667E+02 -0.38726930287E+01 -0.78125613160E+01  0.17766379930E+02  0.51100000000E-03 0. -1.
        -11    1    3    3    0    0 -0.40652562159E+01  0.43785091458E+01  0.14448218299E+02  0.15634854100E+02  0.51100000000E-03 0.  1.
        -12    1    3    3    0    0 -0.60172417246E+01 -0.10284481521E+02 -0.22997057048E+02  0.25900625302E+02  0.00000000000E+00 0.  1.
</event>
<event>
 7    1  0.7674040E-012  0.5930194E+02  0.7816164E-02  0.1266605E+00
        -11   -1    0    0    0    0  0.00000000000E+00  0.00000000000E+00  0.45593999997E+02  0.45594000000E+02  0.51100000000E-03 0.  1.
         11   -1    0    0    0    0 -0.00000000000E+00 -0.00000000000E+00 -0.45593999997E+02  0.45594000000E+02  0.51100000000E-03 0. -1.
    9900012    2    1    2    0    0 -0.16026884578E+01  0.25203887847E+02  0.19465766646E+02  0.59301942796E+02  0.49999997753E+02 0.  0.
         12    1    1    2    0    0  0.16026884578E+01 -0.25203887847E+02 -0.19465766646E+02  0.31886057204E+02  0.00000000000E+00 0. -1.
         11    1    3    3    0    0  0.16229789955E+02  0.19492757389E+02  0.12276019326E+02  0.28179324395E+02  0.51100000000E-03 0. -1.
        -11    1    3    3    0    0 -0.10134455470E+02  0.14686870993E+02  0.12444229698E+01  0.17887424522E+02  0.51100000000E-03 0.  1.
         12    1    3    3    0    0 -0.76980229423E+01 -0.89757405350E+01  0.59453243506E+01  0.13235193879E+02  0.00000000000E+00 0. -1.
</event>
<event>
 7    1  0.7674040E-012  0.5930194E+02  0.7816164E-02  0.1266605E+00
        -11   -1    0    0    0    0  0.00000000000E+00  0.00000000000E+00  0.45593999997E+02  0.45594000000E+02  0.51100000000E-03 0. -1.
         11   -1    0    0    0    0 -0.00000000000E+00 -0.00000000000E+00 -0.45593999997E+02  0.45594000000E+02  0.51100000000E-03 0.  1.
    9900012    2    1    2    0    0 -0.11840527514E+02  0.16149206059E+02 -0.24813820403E+02  0.59301942998E+02  0.49999998122E+02 0.  0.
         12    1    1    2    0    0  0.11840527514E+02 -0.16149206059E+02  0.24813820403E+02  0.31886057002E+02  0.00000000000E+00 0. -1.
         11    1    3    3    0    0 -0.90223196782E+01 -0.12906421161E+02 -0.98010319993E+01  0.18548266444E+02  0.51100000000E-03 0. -1.
        -11    1    3    3    0    0 -0.52979207461E+01  0.24560212971E+02 -0.21086307432E+02  0.32800981491E+02  0.51100000000E-03 0.  1.
        -12    1    3    3    0    0  0.24797129101E+01  0.44954142483E+01  0.60735190282E+01  0.79526950631E+01  0.00000000000E+00 0.  1.
</event>
<event>
 7    1  0.7674040E-012  0.5930194E+02  0.7816164E-02  0.1266605E+00
        -11   -1    0    0    0    0  0.00000000000E+00  0.00000000000E+00  0.45593999997E+02  0.45594000000E+02  0.51100000000E-03 0.  1.
         11   -1    0    0    0    0 -0.00000000000E+00 -0.00000000000E+00 -0.45593999997E+02  0.45594000000E+02  0.51100000000E-03 0. -1.
    9900012    2    1    2    0    0  0.30917091342E+02 -0.37768470160E+01  0.68256787567E+01  0.59301937199E+02  0.49999987546E+02 0.  0.
         12    1    1    2    0    0 -0.30917091342E+02  0.37768470160E+01 -0.68256787567E+01  0.31886062801E+02  0.00000000000E+00 0. -1.
         11    1    3    3    0    0  0.75182252878E+00  0.70214915459E+01  0.12784362632E-01  0.70616389277E+01  0.51100000000E-03 0. -1.
        -11    1    3    3    0    0  0.28224997605E+02 -0.55202716909E+01  0.21893833674E+02  0.36145038975E+02  0.51100000000E-03 0.  1.
        -12    1    3    3    0    0  0.19402712089E+01 -0.52780668711E+01 -0.15080939279E+02  0.16095259296E+02  0.00000000000E+00 0.  1.
</event>
<event>
 7    1  0.7674040E-012  0.5930190E+02  0.7816164E-02  0.1266605E+00
        -11   -1    0    0    0    0  0.00000000000E+00  0.00000000000E+00  0.45593999997E+02  0.45594000000E+02  0.51100000000E-03 0.  1.
         11   -1    0    0    0    0 -0.00000000000E+00 -0.00000000000E+00 -0.45593999997E+02  0.45594000000E+02  0.51100000000E-03 0. -1.
    9900012    2    1    2    0    0  0.33689769105E+01  0.20661411316E+02  0.24051598302E+02  0.59301901087E+02  0.49999921687E+02 0.  0.
         12    1    1    2    0    0 -0.33689769105E+01 -0.20661411316E+02 -0.24051598302E+02  0.31886098913E+02  0.00000000000E+00 0. -1.
         11    1    3    3    0    0  0.25282128662E+02  0.18334656430E+02  0.93192325211E+01  0.32591314044E+02  0.51100000000E-03 0. -1.
        -11    1    3    3    0    0 -0.15948917800E+02  0.28595694430E+01  0.11790343704E+02  0.20038895212E+02  0.51100000000E-03 0.  1.
         12    1    3    3    0    0 -0.59642339519E+01 -0.53281455728E+00  0.29420220769E+01  0.66716918309E+01  0.00000000000E+00 0. -1.
</event>
<event>
 7    1  0.7674040E-012  0.5930196E+02  0.7816164E-02  0.1266605E+00
        -11   -1    0    0    0    0  0.00000000000E+00  0.00000000000E+00  0.45593999997E+02  0.45594000000E+02  0.51100000000E-03 0. -1.
         11   -1    0    0    0    0 -0.00000000000E+00 -0.00000000000E+00 -0.45593999997E+02  0.45594000000E+02  0.51100000000E-03 0.  1.
    9900012    2    1    2    0    0  0.26995546797E+02  0.33953555152E+01 -0.16626225598E+02  0.59301962874E+02  0.50000034371E+02 0.  0.
         12    1    1    2    0    0 -0.26995546797E+02 -0.33953555152E+01  0.16626225598E+02  0.31886037126E+02  0.00000000000E+00 0. -1.
         11    1    3    3    0    0 -0.16675140691E+01 -0.27534131389E+01 -0.17031905929E+02  0.17333427443E+02  0.51100000000E-03 0. -1.
        -11    1    3    3    0    0  0.22999260279E+02  0.14945120519E+02 -0.79742331803E+01  0.28564155786E+02  0.51100000000E-03 0.  1.
        -12    1    3    3    0    0  0.56638005880E+01 -0.87963518647E+01  0.83799135114E+01  0.13404379646E+02  0.00000000000E+00 0.  1.
</event>
<event>
 7    1  0.7674040E-012  0.5930195E+02  0.7816164E-02  0.1266605E+00
        -11   -1    0    0    0    0  0.00000000000E+00  0.00000000000E+00  0.45593999997E+02  0.45594000000E+02  0.51100000000E-03 0. -1.
         11   -1    0    0    0    0 -0.00000000000E+00 -0.00000000000E+00 -0.45593999997E+02  0.45594000000E+02  0.51100000000E-03 0.  1.
    9900012    2    1    2    0    0 -0.31172412863E+01  0.39411074257E+01 -0.31487631852E+02  0.59301945358E+02  0.50000002426E+02 0.  0.
         12    1    1    2    0    0  0.31172412863E+01 -0.39411074257E+01  0.31487631852E+02  0.31886054642E+02  0.00000000000E+00 0. -1.
         11    1    3    3    0    0 -0.50265623334E+01  0.13785480193E+02 -0.50551312369E+01  0.15519669621E+02  0.51100000000E-03 0. -1.
        -11    1    3    3    0    0 -0.11312897498E+02 -0.12083524476E+02 -0.25419127082E+02  0.30333566151E+02  0.51100000000E-03 0.  1.
        -12    1    3    3    0    0  0.13222218545E+02  0.22391517086E+01 -0.10133735334E+01  0.13448709586E+02  0.00000000000E+00 0.  1.
</event>
<event>
 7    1  0.7674040E-012  0.5930194E+02  0.7816164E-02  0.1266605E+00
        -11   -1    0    0    0    0  0.00000000000E+00  0.00000000000E+00  0.45593999997E+02  0.45594000000E+02  0.51100000000E-03 0.  1.
         11   -1    0    0    0    0 -0.00000000000E+00 -0.00000000000E+00 -0.45593999997E+02  0.45594000000E+02  0.51100000000E-03 0. -1.
    9900012    2    1    2    0    0  0.20563068750E+02  0.10244596899E+02  0.22111738897E+02  0.59301944128E+02  0.50000000182E+02 0.  0.
         12    1    1    2    0    0 -0.20563068750E+02 -0.10244596899E+02 -0.22111738897E+02  0.31886055872E+02  0.00000000000E+00 0. -1.
         11    1    3    3    0    0 -0.10889540586E+02 -0.89202022097E+01  0.15834308051E+02  0.21186727292E+02  0.51100000000E-03 0. -1.
        -11    1    3    3    0    0  0.26690444301E+02  0.18797765413E+02  0.66798437659E+01  0.33322006460E+02  0.51100000000E-03 0.  1.
         12    1    3    3    0    0  0.47621650349E+01  0.36703369570E+00 -0.40241291899E+00  0.47932103762E+01  0.00000000000E+00 0. -1.
</event>
<event>
 7    1  0.7674040E-012  0.5930203E+02  0.7816164E-02  0.1266604E+00
        -11   -1    0    0    0    0  0.00000000000E+00  0.00000000000E+00  0.45593999997E+02  0.45594000000E+02  0.51100000000E-03 0. -1.
         11   -1    0    0    0    0 -0.00000000000E+00 -0.00000000000E+00 -0.45593999997E+02  0.45594000000E+02  0.51100000000E-03 0.  1.
    9900012    2    1    2    0    0  0.12324458495E+02  0.28311446304E+02 -0.79551741229E+01  0.59302030290E+02  0.50000157322E+02 0.  0.
         12    1    1    2    0    0 -0.12324458495E+02 -0.28311446304E+02  0.79551741229E+01  0.31885969710E+02  0.00000000000E+00 0. -1.
         11    1    3    3    0    0  0.51739315501E+01  0.91056533984E+01  0.84606665662E+01  0.13463482852E+02  0.51100000000E-03 0. -1.
        -11    1    3    3    0    0 -0.14718796848E+02  0.91854000357E+01 -0.12691555251E+02  0.21496281758E+02  0.51100000000E-03 0.  1.
        -12    1    3    3    0    0  0.21869323793E+02  0.10020392870E+02 -0.37242854384E+01  0.24342265680E+02  0.00000000000E+00 0.  1.
</event>
<event>
 7    1  0.7674040E-012  0.5930191E+02  0.7816164E-02  0.1266605E+00
        -11   -1    0    0    0    0  0.00000000000E+00  0.00000000000E+00  0.45593999997E+02  0.45594000000E+02  0.51100000000E-03 0.  1.
         11   -1    0    0    0    0 -0.00000000000E+00 -0.00000000000E+00 -0.45593999997E+02  0.45594000000E+02  0.51100000000E-03 0. -1.
    9900012    2    1    2    0    0 -0.63193339191E+01  0.28314343675E+02  0.13232033976E+02  0.59301909584E+02  0.49999937182E+02 0.  0.
         12    1    1    2    0    0  0.63193339191E+01 -0.28314343675E+02 -0.13232033976E+02  0.31886090416E+02  0.00000000000E+00 0. -1.
         11    1    3    3    0    0 -0.12946290757E+02  0.10706553253E+02 -0.11099920920E+02  0.20135664171E+02  0.51100000000E-03 0. -1.
        -11    1    3    3    0    0  0.86101817653E+01  0.17131360546E+02  0.51185146717E+01  0.19844846608E+02  0.51100000000E-03 0.  1.
        -12    1    3    3    0    0 -0.19832249274E+01  0.47642987549E+00  0.19213440224E+02  0.19321398805E+02  0.00000000000E+00 0.  1.
</event>
<event>
 7    1  0.7674040E-012  0.5930191E+02  0.7816164E-02  0.1266605E+00
        -11   -1    0    0    0    0  0.00000000000E+00  0.00000000000E+00  0.45593999997E+02  0.45594000000E+02  0.51100000000E-03 0. -1.
         11   -1    0    0    0    0 -0.00000000000E+00 -0.00000000000E+00 -0.45593999997E+02  0.45594000000E+02  0.51100000000E-03 0.  1.
    9900012    2    1    2    0    0 -0.31708802589E+02 -0.21404715891E+01 -0.25870480557E+01  0.59301912157E+02  0.49999941876E+02 0.  0.
         12    1    1    2    0    0  0.31708802589E+02  0.21404715891E+01  0.25870480557E+01  0.31886087843E+02  0.00000000000E+00 0. -1.
         11    1    3    3    0    0  0.48556581175E+01 -0.44797238897E+01 -0.91618083308E+01  0.11295312038E+02  0.51100000000E-03 0. -1.
        -11    1    3    3    0    0 -0.38680751481E+02  0.94108035368E+01  0.33446170504E+01  0.39949345700E+02  0.51100000000E-03 0.  1.
         12    1    3    3    0    0  0.21162907744E+01 -0.70715512362E+01  0.32301432247E+01  0.80572544195E+01  0.00000000000E+00 0. -1.
</event>
<event>
 7    1  0.7674040E-012  0.5930222E+02  0.7816164E-02  0.1266604E+00
        -11   -1    0    0    0    0  0.00000000000E+00  0.00000000000E+00  0.45593999997E+02  0.45594000000E+02  0.51100000000E-03 0.  1.
         11   -1    0    0    0    0 -0.00000000000E+00 -0.00000000000E+00 -0.45593999997E+02  0.45594000000E+02  0.51100000000E-03 0. -1.
    9900012    2    1    2    0    0 -0.97196794288E+00 -0.23581570135E+02  0.21439870786E+02  0.59302215847E+02  0.50000495731E+02 0.  0.
         12    1    1    2    0    0  0.97196794288E+00  0.23581570135E+02 -0.21439870786E+02  0.31885784153E+02  0.00000000000E+00 0. -1.
         11    1    3    3    0    0 -0.47818265705E+01  0.44552738594E+01  0.55016948339E+01  0.85430660081E+01  0.51100000000E-03 0. -1.
        -11    1    3    3    0    0 -0.14100675582E+02 -0.17743519068E+02 -0.28409901805E+01  0.22841469879E+02  0.51100000000E-03 0.  1.
        -12    1    3    3    0    0  0.17910534210E+02 -0.10293324926E+02  0.18779166133E+02  0.27917679960E+02  0.00000000000E+00 0.  1.
</event>
<event>
 7    1  0.7674040E-012  0.5930195E+02  0.7816164E-02  0.1266605E+00
        -11   -1    0    0    0    0  0.00000000000E+00  0.00000000000E+00  0.45593999997E+02  0.45594000000E+02  0.51100000000E-03 0. -1.
         11   -1    0    0    0    0 -0.00000000000E+00 -0.00000000000E+00 -0.45593999997E+02  0.45594000000E+02  0.51100000000E-03 0.  1.
    9900012    2    1    2    0    0  0.19588292531E+02 -0.23151826198E+02  0.98494605829E+01  0.59301950788E+02  0.50000012329E+02 0.  0.
         12    1    1    2    0    0 -0.19588292531E+02  0.23151826198E+02 -0.98494605829E+01  0.31886049212E+02  0.00000000000E+00 0. -1.
         11    1    3    3    0    0  0.83847018355E+01 -0.21114403749E+02  0.25766196751E+02  0.34351392487E+02  0.51100000000E-03 0. -1.
        -11    1    3    3    0    0  0.11183211652E+02 -0.75870204509E+01 -0.12650224046E+02  0.18510950025E+02  0.51100000000E-03 0.  1.
        -12    1    3    3    0    0  0.20379044081E-01  0.55495980021E+01 -0.32665121222E+01  0.64396082749E+01  0.00000000000E+00 0.  1.
</event>
<event>
 7    1  0.7674040E-012  0.5930193E+02  0.7816164E-02  0.1266605E+00
        -11   -1    0    0    0    0  0.00000000000E+00  0.00000000000E+00  0.45593999997E+02  0.45594000000E+02  0.51100000000E-03 0. -1.
         11   -1    0    0    0    0 -0.00000000000E+00 -0.00000000000E+00 -0.45593999997E+02  0.45594000000E+02  0.51100000000E-03 0.  1.
    9900012    2    1    2    0    0 -0.92980007245E+00  0.22901485846E+02 -0.22167062782E+02  0.59301933223E+02  0.49999980294E+02 0.  0.
         12    1    1    2    0    0  0.92980007245E+00 -0.22901485846E+02  0.22167062782E+02  0.31886066777E+02  0.00000000000E+00 0. -1.
         11    1    3    3    0    0  0.99533112684E+01  0.88304496459E+01  0.91884225948E+01  0.16170106870E+02  0.51100000000E-03 0. -1.
        -11    1    3    3    0    0 -0.17755866011E+02  0.65256643769E+01 -0.23960995209E+02  0.30528418974E+02  0.51100000000E-03 0.  1.
        -12    1    3    3    0    0  0.68727546701E+01  0.75453718233E+01 -0.73944901680E+01  0.12603407379E+02  0.00000000000E+00 0.  1.
</event>
<event>
 7    1  0.7674040E-012  0.5930191E+02  0.7816164E-02  0.1266605E+00
        -11   -1    0    0    0    0  0.00000000000E+00  0.00000000000E+00  0.45593999997E+02  0.45594000000E+02  0.51100000000E-03 0.  1.
         11   -1    0    0    0    0 -0.00000000000E+00 -0.00000000000E+00 -0.45593999997E+02  0.45594000000E+02  0.51100000000E-03 0. -1.
    9900012    2    1    2    0    0  0.25262982133E+02 -0.18465320555E+02  0.61266886323E+01  0.59301911450E+02  0.49999940586E+02 0.  0.
         12    1    1    2    0    0 -0.25262982133E+02  0.18465320555E+02 -0.61266886323E+01  0.31886088550E+02  0.00000000000E+00 0. -1.
         11    1    3    3    0    0  0.14427493252E+02 -0.10686430969E+02 -0.16369985002E+02  0.24296682441E+02  0.51100000000E-03 0. -1.
        -11    1    3    3    0    0  0.16318989400E+02  0.52972516405E+00  0.17251380651E+02  0.23752897896E+02  0.51100000000E-03 0.  1.
         12    1    3    3    0    0 -0.54835005199E+01 -0.83086147495E+01  0.52452929830E+01  0.11252331113E+02  0.00000000000E+00 0. -1.
</event>
<event>
 7    1  0.7674040E-012  0.5930195E+02  0.7816164E-02  0.1266605E+00
        -11   -1    0    0    0    0  0.00000000000E+00  0.00000000000E+00  0.45593999997E+02  0.45594000000E+02  0.51100000000E-03 0. -1.
         11   -1    0    0    0    0 -0.00000000000E+00 -0.00000000000E+00 -0.45593999997E+02  0.45594000000E+02  0.51100000000E-03 0.  1.
    9900012    2    1    2    0    0  0.79637814620E+01 -0.30864856940E+02 -0.81166666878E+00  0.59301952708E+02  0.50000015831E+02 0.  0.
         12    1    1    2    0    0 -0.79637814620E+01  0.30864856940E+02  0.81166666878E+00  0.31886047292E+02  0.00000000000E+00 0. -1.
         11    1    3    3    0    0 -0.22602097778E+01 -0.30549181388E+01  0.37044780638E+01  0.53069983098E+01  0.51100000000E-03 0. -1.
        -11    1    3    3    0    0  0.12616190980E+02 -0.25720827315E+02 -0.22065222762E+02  0.36160797674E+02  0.51100000000E-03 0.  1.
        -12    1    3    3    0    0 -0.23921997398E+01 -0.20891114858E+01  0.17549078029E+02  0.17834156725E+02  0.00000000000E+00 0.  1.
</event>
<event>
 7    1  0.7674040E-012  0.5930206E+02  0.7816164E-02  0.1266604E+00
        -11   -1    0    0    0    0  0.00000000000E+00  0.00000000000E+00  0.45593999997E+02  0.45594000000E+02  0.51100000000E-03 0.  1.
         11   -1    0    0    0    0 -0.00000000000E+00 -0.00000000000E+00 -0.45593999997E+02  0.45594000000E+02  0.51100000000E-03 0. -1.
    9900012    2    1    2    0    0 -0.24024939835E+02  0.11520543111E+02  0.17515489119E+02  0.59302062555E+02  0.50000216165E+02 0.  0.
         12    1    1    2    0    0  0.24024939835E+02 -0.11520543111E+02 -0.17515489119E+02  0.31885937445E+02  0.00000000000E+00 0. -1.
         11    1    3    3    0    0 -0.13399247729E+01  0.10293591684E+02 -0.16360932232E+01  0.10508578850E+02  0.51100000000E-03 0. -1.
        -11    1    3    3    0    0 -0.17627919841E+02 -0.22267214409E+01  0.30843279573E+02  0.35595080297E+02  0.51100000000E-03 0.  1.
        -12    1    3    3    0    0 -0.50570952216E+01  0.34536728677E+01 -0.11691697231E+02  0.13198403407E+02  0.00000000000E+00 0.  1.
</event>
<event>
 7    1  0.7674040E-012  0.5930188E+02  0.7816164E-02  0.1266605E+00
        -11   -1    0    0    0    0  0.00000000000E+00  0.00000000000E+00  0.45593999997E+02  0.45594000000E+02  0.51100000000E-03 0.  1.
         11   -1    0    0    0    0 -0.00000000000E+00 -0.00000000000E+00 -0.45593999997E+02  0.45594000000E+02  0.51100000000E-03 0. -1.
    9900012    2    1    2    0    0  0.14478906174E+02 -0.17625356457E+02  0.22280763409E+02  0.59301884960E+02  0.49999892275E+02 0.  0.
         12    1    1    2    0    0 -0.14478906174E+02  0.17625356457E+02 -0.22280763409E+02  0.31886115040E+02  0.00000000000E+00 0. -1.
         11    1    3    3    0    0 -0.11341808591E+02 -0.19419409478E+01  0.21480384971E+02  0.24368313350E+02  0.51100000000E-03 0. -1.
        -11    1    3    3    0    0  0.15403954076E+01  0.33870309797E+01 -0.14130454541E+01  0.39801375084E+01  0.51100000000E-03 0.  1.
         12    1    3    3    0    0  0.24280319357E+02 -0.19070446489E+02  0.22134238922E+01  0.30953434102E+02  0.00000000000E+00 0. -1.
</event>
<event>
 7    1  0.7674040E-012  0.5930194E+02  0.7816164E-02  0.1266605E+00
        -11   -1    0    0    0    0  0.00000000000E+00  0.00000000000E+00  0.45593999997E+02  0.45594000000E+02  0.51100000000E-03 0.  1.
         11   -1    0    0    0    0 -0.00000000000E+00 -0.00000000000E+00 -0.45593999997E+02  0.45594000000E+02  0.51100000000E-03 0. -1.
    9900012    2    1    2    0    0  0.16755246605E+02 -0.20436554664E+02  0.17841791154E+02  0.59301944005E+02  0.49999999959E+02 0.  0.
         12    1    1    2    0    0 -0.16755246605E+02  0.20436554664E+02 -0.17841791154E+02  0.31886055995E+02  0.00000000000E+00 0. -1.
         11    1    3    3    0    0 -0.80891400730E+01 -0.38103825191E+01 -0.77168568296E+01  0.11811142267E+02  0.51100000000E-03 0. -1.
        -11    1    3    3    0    0  0.30002425232E+02 -0.15216870589E+02  0.17776470208E+02  0.38048673612E+02  0.51100000000E-03 0.  1.
         12    1    3    3    0    0 -0.51580385546E+01 -0.14093015558E+01  0.77821777758E+01  0.94421281256E+01  0.00000000000E+00 0. -1.
</event>
<event>
 7    1  0.7674040E-012  0.5930197E+02  0.7816164E-02  0.1266605E+00
        -11   -1    0    0    0    0  0.00000000000E+00  0.00000000000E+00  0.45593999997E+02  0.45594000000E+02  0.51100000000E-03 0. -1.
         11   -1    0    0    0    0 -0.00000000000E+00 -0.00000000000E+00 -0.45593999997E+02  0.45594000000E+02  0.51100000000E-03 0.  1.
    9900012    2    1    2    0    0  0.18548432783E+02  0.16918351880E+02 -0.19658171326E+02  0.59301973453E+02  0.50000053665E+02 0.  0.
         12    1    1    2    0    0 -0.18548432783E+02 -0.16918351880E+02  0.19658171326E+02  0.31886026547E+02  0.00000000000E+00 0. -1.
         11    1    3    3    0    0 -0.11547984950E+01  0.23534099974E+02 -0.94465862647E+01  0.25385535517E+02  0.51100000000E-03 0. -1.
        -11    1    3    3    0    0  0.37829925054E+01 -0.10536248001E+02 -0.13138849278E+02  0.17261312663E+02  0.51100000000E-03 0.  1.
        -12    1    3    3    0    0  0.15920238772E+02  0.39204999066E+01  0.29272642170E+01  0.16655125274E+02  0.00000000000E+00 0.  1.
</event>
<event>
 7    1  0.7674040E-012  0.5930194E+02  0.7816164E-02  0.1266605E+00
        -11   -1    0    0    0    0  0.00000000000E+00  0.00000000000E+00  0.45593999997E+02  0.45594000000E+02  0.51100000000E-03 0. -1.
         11   -1    0    0    0    0 -0.00000000000E+00 -0.00000000000E+00 -0.45593999997E+02  0.45594000000E+02  0.51100000000E-03 0.  1.
    9900012    2    1    2    0    0 -0.27541509945E+02 -0.15200926431E+02 -0.52074664928E+01  0.59301942833E+02  0.49999997821E+02 0.  0.
         12    1    1    2    0    0  0.27541509945E+02  0.15200926431E+02  0.52074664928E+01  0.31886057167E+02  0.00000000000E+00 0. -1.
         11    1    3    3    0    0 -0.33098539396E+01  0.95457857398E+01  0.18590276919E+01  0.10272932527E+02  0.51100000000E-03 0. -1.
        -11    1    3    3    0    0 -0.79278406216E+01 -0.20297358342E+02 -0.18533118048E+02  0.28606116084E+02  0.51100000000E-03 0.  1.
        -12    1    3    3    0    0 -0.16303815384E+02 -0.44493538284E+01  0.11466623863E+02  0.20422894221E+02  0.00000000000E+00 0.  1.
</event>
<event>
 7    1  0.7674040E-012  0.5930193E+02  0.7816164E-02  0.1266605E+00
        -11   -1    0    0    0    0  0.00000000000E+00  0.00000000000E+00  0.45593999997E+02  0.45594000000E+02  0.51100000000E-03 0. -1.
         11   -1    0    0    0    0 -0.00000000000E+00 -0.00000000000E+00 -0.45593999997E+02  0.45594000000E+02  0.51100000000E-03 0.  1.
    9900012    2    1    2    0    0  0.91824477048E+01  0.28370454358E+02 -0.11292530277E+02  0.59301933037E+02  0.49999979955E+02 0.  0.
         12    1    1    2    0    0 -0.91824477048E+01 -0.28370454358E+02  0.11292530277E+02  0.31886066963E+02  0.00000000000E+00 0. -1.
         11    1    3    3    0    0  0.62702908969E+01  0.33431277167E+01  0.15610926207E+02  0.17152086408E+02  0.51100000000E-03 0. -1.
        -11    1    3    3    0    0 -0.22330539328E+00  0.12664806907E+02 -0.26520445848E+02  0.29390155623E+02  0.51100000000E-03 0.  1.
         12    1    3    3    0    0  0.31354622011E+01  0.12362519735E+02 -0.38301063517E+00  0.12759691005E+02  0.00000000000E+00 0. -1.
</event>
<event>
 7    1  0.7674040E-012  0.5930192E+02  0.7816164E-02  0.1266605E+00
        -11   -1    0    0    0    0  0.00000000000E+00  0.00000000000E+00  0.45593999997E+02  0.45594000000E+02  0.51100000000E-03 0.  1.
         11   -1    0    0    0    0 -0.00000000000E+00 -0.00000000000E+00 -0.45593999997E+02  0.45594000000E+02  0.51100000000E-03 0. -1.
    9900012    2    1    2    0    0 -0.15556334222E+01  0.22950672734E+02  0.22080964058E+02  0.59301916075E+02  0.49999949022E+02 0.  0.
         12    1    1    2    0    0  0.15556334222E+01 -0.22950672734E+02 -0.22080964058E+02  0.31886083925E+02  0.00000000000E+00 0. -1.
         11    1    3    3    0    0  0.97557417139E+01  0.61741631618E+01 -0.97664356151E+01  0.15122104748E+02  0.51100000000E-03 0. -1.
        -11    1    3    3    0    0  0.23978963482E+01  0.16693247107E+02  0.18767505948E+02  0.25231600933E+02  0.51100000000E-03 0.  1.
         12    1    3    3    0    0 -0.13709271484E+02  0.83262465470E-01  0.13079893725E+02  0.18948210394E+02  0.00000000000E+00 0. -1.
</event>
<event>
 7    1  0.7674040E-012  0.5930201E+02  0.7816164E-02  0.1266605E+00
        -11   -1    0    0    0    0  0.00000000000E+00  0.00000000000E+00  0.45593999997E+02  0.45594000000E+02  0.51100000000E-03 0.  1.
         11   -1    0    0    0    0 -0.00000000000E+00 -0.00000000000E+00 -0.45593999997E+02  0.45594000000E+02  0.51100000000E-03 0. -1.
    9900012    2    1    2    0    0  0.16210314083E+02  0.17358217567E+02  0.21275208822E+02  0.59302007618E+02  0.50000115973E+02 0.  0.
         12    1    1    2    0    0 -0.16210314083E+02 -0.17358217567E+02 -0.21275208822E+02  0.31885992382E+02  0.00000000000E+00 0. -1.
         11    1    3    3    0    0  0.10537895130E+02 -0.91414199212E+01  0.17462774893E+02  0.22350867973E+02  0.51100000000E-03 0. -1.
        -11    1    3    3    0    0 -0.52895180955E+01  0.14041580855E+02 -0.75917264551E+01  0.16816043097E+02  0.51100000000E-03 0.  1.
        -12    1    3    3    0    0  0.10961937048E+02  0.12458056633E+02  0.11404160385E+02  0.20135096548E+02  0.00000000000E+00 0.  1.
</event>
<event>
 7    1  0.7674040E-012  0.5930194E+02  0.7816164E-02  0.1266605E+00
        -11   -1    0    0    0    0  0.00000000000E+00  0.00000000000E+00  0.45593999997E+02  0.45594000000E+02  0.51100000000E-03 0.  1.
         11   -1    0    0    0    0 -0.00000000000E+00 -0.00000000000E+00 -0.45593999997E+02  0.45594000000E+02  0.51100000000E-03 0. -1.
    9900012    2    1    2    0    0  0.13298950811E+02  0.19381989446E+02  0.21545235756E+02  0.59301940486E+02  0.49999993540E+02 0.  0.
         12    1    1    2    0    0 -0.13298950811E+02 -0.19381989446E+02 -0.21545235756E+02  0.31886059514E+02  0.00000000000E+00 0. -1.
         11    1    3    3    0    0 -0.85534929978E+01 -0.10162741423E+02  0.19025226410E+01  0.13418761059E+02  0.51100000000E-03 0. -1.
        -11    1    3    3    0    0  0.19189461771E+02  0.14321951623E+02  0.18733936721E+02  0.30402534872E+02  0.51100000000E-03 0.  1.
         12    1    3    3    0    0  0.26629820381E+01  0.15222779246E+02  0.90877639465E+00  0.15480644555E+02  0.00000000000E+00 0. -1.
</event>
<event>
 7    1  0.7674040E-012  0.5930195E+02  0.7816164E-02  0.1266605E+00
        -11   -1    0    0    0    0  0.00000000000E+00  0.00000000000E+00  0.45593999997E+02  0.45594000000E+02  0.51100000000E-03 0. -1.
         11   -1    0    0    0    0 -0.00000000000E+00 -0.00000000000E+00 -0.45593999997E+02  0.45594000000E+02  0.51100000000E-03 0.  1.
    9900012    2    1    2    0    0  0.32053555666E+01  0.21362962185E+02 -0.23453558946E+02  0.59301954700E+02  0.50000019464E+02 0.  0.
         12    1    1    2    0    0 -0.32053555666E+01 -0.21362962185E+02  0.23453558946E+02  0.31886045300E+02  0.00000000000E+00 0. -1.
         11    1    3    3    0    0 -0.59971130906E+01  0.17684174392E+02  0.29970277928E+00  0.18675792122E+02  0.51100000000E-03 0. -1.
        -11    1    3    3    0    0  0.93552476803E+01 -0.50328793334E+01 -0.28702721498E+02  0.30605502041E+02  0.51100000000E-03 0.  1.
        -12    1    3    3    0    0 -0.15277902318E+00  0.87116671266E+01  0.49494597732E+01  0.10020660537E+02  0.00000000000E+00 0.  1.
</event>
<event>
 7    1  0.7674040E-012  0.5930195E+02  0.7816164E-02  0.1266605E+00
        -11   -1    0    0    0    0  0.00000000000E+00  0.00000000000E+00  0.45593999997E+02  0.45594000000E+02  0.51100000000E-03 0.  1.
         11   -1    0    0    0    0 -0.00000000000E+00 -0.00000000000E+00 -0.45593999997E+02  0.45594000000E+02  0.51100000000E-03 0. -1.
    9900012    2    1    2    0    0  0.31818001695E+02 -0.64036824898E+00  0.19811652883E+01  0.59301947889E+02  0.50000007041E+02 0.  0.
         12    1    1    2    0    0 -0.31818001695E+02  0.64036824898E+00 -0.19811652883E+01  0.31886052111E+02  0.00000000000E+00 0. -1.
         11    1    3    3    0    0  0.14348414589E+01 -0.13944076684E+01  0.18278319637E+02  0.18387498790E+02  0.51100000000E-03 0. -1.
        -11    1    3    3    0    0  0.24802494274E+02 -0.37172459744E+01 -0.22854095583E+01  0.25183421868E+02  0.51100000000E-03 0.  1.
         12    1    3    3    0    0  0.55806659618E+01  0.44712853938E+01 -0.14011744790E+02  0.15731027230E+02  0.00000000000E+00 0. -1.
</event>
<event>
 7    1  0.7674040E-012  0.5930200E+02  0.7816164E-02  0.1266605E+00
        -11   -1    0    0    0    0  0.00000000000E+00  0.00000000000E+00  0.45593999997E+02  0.45594000000E+02  0.51100000000E-03 0.  1.
         11   -1    0    0    0    0 -0.00000000000E+00 -0.00000000000E+00 -0.45593999997E+02  0.45594000000E+02  0.51100000000E-03 0. -1.
    9900012    2    1    2    0    0  0.21937915623E+02  0.13092394151E+01  0.23102614649E+02  0.59301999101E+02  0.50000100440E+02 0.  0.
         12    1    1    2    0    0 -0.21937915623E+02 -0.13092394151E+01 -0.23102614649E+02  0.31886000899E+02  0.00000000000E+00 0. -1.
         11    1    3    3    0    0  0.86181859240E+01 -0.14856853148E+02  0.48899610097E+01  0.17858077529E+02  0.51100000000E-03 0. -1.
        -11    1    3    3    0    0  0.10540386668E+02  0.16998588990E+02 -0.28314859634E+01  0.20200720081E+02  0.51100000000E-03 0.  1.
        -12    1    3    3    0    0  0.27793430304E+01 -0.83249642637E+00  0.21044139603E+02  0.21243201492E+02  0.00000000000E+00 0.  1.
</event>
<event>
 7    1  0.7674040E-012  0.5930196E+02  0.7816164E-02  0.1266605E+00
        -11   -1    0    0    0    0  0.00000000000E+00  0.00000000000E+00  0.45593999997E+02  0.45594000000E+02  0.51100000000E-03 0.  1.
         11   -1    0    0    0    0 -0.00000000000E+00 -0.00000000000E+00 -0.45593999997E+02  0.45594000000E+02  0.51100000000E-03 0. -1.
    9900012    2    1    2    0    0  0.11232236186E+02  0.14108872587E+02  0.26296312408E+02  0.59301961336E+02  0.50000031566E+02 0.  0.
         12    1    1    2    0    0 -0.11232236186E+02 -0.14108872587E+02 -0.26296312408E+02  0.31886038664E+02  0.00000000000E+00 0. -1.
         11    1    3    3    0    0  0.16745120751E+02  0.11385166632E+02 -0.40820178790E+01  0.20656329743E+02  0.51100000000E-03 0. -1.
        -11    1    3    3    0    0 -0.12238384178E+02  0.38008656697E+01  0.76636287216E+01  0.14931705615E+02  0.51100000000E-03 0.  1.
         12    1    3    3    0    0  0.67254996130E+01 -0.10771597138E+01  0.22714701565E+02  0.23713925978E+02  0.00000000000E+00 0. -1.
</event>
<event>
 7    1  0.7674040E-012  0.5930192E+02  0.7816164E-02  0.1266605E+00
        -11   -1    0    0    0    0  0.00000000000E+00  0.00000000000E+00  0.45593999997E+02  0.45594000000E+02  0.51100000000E-03 0. -1.
         11   -1    0    0    0    0 -0.00000000000E+00 -0.00000000000E+00 -0.45593999997E+02  0.45594000000E+02  0.51100000000E-03 0.  1.
    9900012    2    1    2    0    0 -0.12400442062E+01  0.22864831129E+02 -0.22189723259E+02  0.59301921055E+02  0.49999958103E+02 0.  0.
         12    1    1    2    0    0  0.12400442062E+01 -0.22864831129E+02  0.22189723259E+02  0.31886078945E+02  0.00000000000E+00 0. -1.
         11    1    3    3    0    0 -0.17013967843E+02  0.77082523323E+01 -0.25867875986E+02  0.31906727567E+02  0.51100000000E-03 0. -1.
        -11    1    3    3    0    0  0.87459287353E+01  0.17532522108E+02  0.38815478821E+01  0.19973658031E+02  0.51100000000E-03 0.  1.
         12    1    3    3    0    0  0.70279949011E+01 -0.23759433117E+01 -0.20339515522E+00  0.74215354570E+01  0.00000000000E+00 0. -1.
</event>
<event>
 7    1  0.7674040E-012  0.5930194E+02  0.7816164E-02  0.1266605E+00
        -11   -1    0    0    0    0  0.00000000000E+00  0.00000000000E+00  0.45593999997E+02  0.45594000000E+02  0.51100000000E-03 0. -1.
         11   -1    0    0    0    0 -0.00000000000E+00 -0.00000000000E+00 -0.45593999997E+02  0.45594000000E+02  0.51100000000E-03 0.  1.
    9900012    2    1    2    0    0 -0.16582700024E+00 -0.23509138044E+02 -0.21540980951E+02  0.59301938304E+02  0.49999989560E+02 0.  0.
         12    1    1    2    0    0  0.16582700024E+00  0.23509138044E+02  0.21540980951E+02  0.31886061696E+02  0.00000000000E+00 0. -1.
         11    1    3    3    0    0 -0.73696799901E+01 -0.13258763832E+01 -0.25651422614E+02  0.26722006169E+02  0.51100000000E-03 0. -1.
        -11    1    3    3    0    0  0.85358073623E+01 -0.19895421276E+02 -0.57258696424E+01  0.22393601285E+02  0.51100000000E-03 0.  1.
         12    1    3    3    0    0 -0.13319543724E+01 -0.22878403846E+01  0.98363113051E+01  0.10186330849E+02  0.00000000000E+00 0. -1.
</event>
<event>
 7    1  0.7674040E-012  0.5930193E+02  0.7816164E-02  0.1266605E+00
        -11   -1    0    0    0    0  0.00000000000E+00  0.00000000000E+00  0.45593999997E+02  0.45594000000E+02  0.51100000000E-03 0.  1.
         11   -1    0    0    0    0 -0.00000000000E+00 -0.00000000000E+00 -0.45593999997E+02  0.45594000000E+02  0.51100000000E-03 0. -1.
    9900012    2    1    2    0    0 -0.32603218758E+01 -0.99985720709E+01  0.30101833403E+02  0.59301929116E+02  0.49999972805E+02 0.  0.
         12    1    1    2    0    0  0.32603218758E+01  0.99985720709E+01 -0.30101833403E+02  0.31886070884E+02  0.00000000000E+00 0. -1.
         11    1    3    3    0    0  0.83874715664E+01  0.20123849594E+01  0.25346509322E+02  0.26773959505E+02  0.51100000000E-03 0. -1.
        -11    1    3    3    0    0 -0.15157486796E+02 -0.52631562366E+01  0.13478022462E+02  0.20954887480E+02  0.51100000000E-03 0.  1.
         12    1    3    3    0    0  0.35096933539E+01 -0.67478007937E+01 -0.87226983807E+01  0.11573082132E+02  0.00000000000E+00 0. -1.
</event>
<event>
 7    1  0.7674040E-012  0.5930194E+02  0.7816164E-02  0.1266605E+00
        -11   -1    0    0    0    0  0.00000000000E+00  0.00000000000E+00  0.45593999997E+02  0.45594000000E+02  0.51100000000E-03 0. -1.
         11   -1    0    0    0    0 -0.00000000000E+00 -0.00000000000E+00 -0.45593999997E+02  0.45594000000E+02  0.51100000000E-03 0.  1.
    9900012    2    1    2    0    0 -0.13206753403E+01  0.19345611495E+02 -0.25312522597E+02  0.59301942425E+02  0.49999997077E+02 0.  0.
         12    1    1    2    0    0  0.13206753403E+01 -0.19345611495E+02  0.25312522597E+02  0.31886057575E+02  0.00000000000E+00 0. -1.
         11    1    3    3    0    0  0.17440424404E+02  0.16805469264E+02 -0.14439928700E+02  0.28197583969E+02  0.51100000000E-03 0. -1.
        -11    1    3    3    0    0 -0.90569724287E+00 -0.81104106021E+01 -0.46967541480E+01  0.94158667906E+01  0.51100000000E-03 0.  1.
         12    1    3    3    0    0 -0.17855402501E+02  0.10650552833E+02 -0.61758397482E+01  0.21688491665E+02  0.00000000000E+00 0. -1.
</event>
<event>
 7    1  0.7674040E-012  0.5930192E+02  0.7816164E-02  0.1266605E+00
        -11   -1    0    0    0    0  0.00000000000E+00  0.00000000000E+00  0.45593999997E+02  0.45594000000E+02  0.51100000000E-03 0.  1.
         11   -1    0    0    0    0 -0.00000000000E+00 -0.00000000000E+00 -0.45593999997E+02  0.45594000000E+02  0.51100000000E-03 0. -1.
    9900012    2    1    2    0    0 -0.13803484232E+02  0.11684311428E+02  0.26261432158E+02  0.59301919503E+02  0.49999955273E+02 0.  0.
         12    1    1    2    0    0  0.13803484232E+02 -0.11684311428E+02 -0.26261432158E+02  0.31886080497E+02  0.00000000000E+00 0. -1.
         11    1    3    3    0    0  0.72293356837E+01 -0.10454761869E+02  0.13709313482E+02  0.18695203036E+02  0.51100000000E-03 0. -1.
        -11    1    3    3    0    0 -0.22326227828E+02  0.26043023121E+02  0.12451030352E+02  0.36492843948E+02  0.51100000000E-03 0.  1.
        -12    1    3    3    0    0  0.12934079122E+01 -0.39039498241E+01  0.10108832420E+00  0.41138725194E+01  0.00000000000E+00 0.  1.
</event>
<event>
 7    1  0.7674040E-012  0.5930197E+02  0.7816164E-02  0.1266605E+00
        -11   -1    0    0    0    0  0.00000000000E+00  0.00000000000E+00  0.45593999997E+02  0.45594000000E+02  0.51100000000E-03 0.  1.
         11   -1    0    0    0    0 -0.00000000000E+00 -0.00000000000E+00 -0.45593999997E+02  0.45594000000E+02  0.51100000000E-03 0. -1.
    9900012    2    1    2    0    0  0.55345503263E+01  0.30856833789E+02 -0.58261259254E+01  0.59301965720E+02  0.50000039562E+02 0.  0.
         12    1    1    2    0    0 -0.55345503263E+01 -0.30856833789E+02  0.58261259254E+01  0.31886034280E+02  0.00000000000E+00 0. -1.
         11    1    3    3    0    0  0.80507021656E+01  0.33534839768E+02  0.14264786237E+01  0.34517156968E+02  0.51100000000E-03 0. -1.
        -11    1    3    3    0    0 -0.40114145402E+01 -0.28551153867E+01 -0.15571159903E+02  0.16331079311E+02  0.51100000000E-03 0.  1.
        -12    1    3    3    0    0  0.14952627008E+01  0.17710940808E+00  0.83185553539E+01  0.84537294411E+01  0.00000000000E+00 0.  1.
</event>
<event>
 7    1  0.7674040E-012  0.5930194E+02  0.7816164E-02  0.1266605E+00
        -11   -1    0    0    0    0  0.00000000000E+00  0.00000000000E+00  0.45593999997E+02  0.45594000000E+02  0.51100000000E-03 0.  1.
         11   -1    0    0    0    0 -0.00000000000E+00 -0.00000000000E+00 -0.45593999997E+02  0.45594000000E+02  0.51100000000E-03 0. -1.
    9900012    2    1    2    0    0 -0.12705752692E+02  0.14717180927E+02  0.25272308112E+02  0.59301935282E+02  0.49999984050E+02 0.  0.
         12    1    1    2    0    0  0.12705752692E+02 -0.14717180927E+02 -0.25272308112E+02  0.31886064718E+02  0.00000000000E+00 0. -1.
         11    1    3    3    0    0 -0.90374442182E+01  0.20768300962E+02 -0.36568362104E+01  0.22942758644E+02  0.51100000000E-03 0. -1.
        -11    1    3    3    0    0 -0.87928361205E+01  0.18164201762E+01  0.24269849474E+02  0.25877382847E+02  0.51100000000E-03 0.  1.
         12    1    3    3    0    0  0.51245276467E+01 -0.78675402117E+01  0.46592948484E+01  0.10481793791E+02  0.00000000000E+00 0. -1.
</event>
<event>
 7    1  0.7674040E-012  0.5930193E+02  0.7816164E-02  0.1266605E+00
        -11   -1    0    0    0    0  0.00000000000E+00  0.00000000000E+00  0.45593999997E+02  0.45594000000E+02  0.51100000000E-03 0. -1.
         11   -1    0    0    0    0 -0.00000000000E+00 -0.00000000000E+00 -0.45593999997E+02  0.45594000000E+02  0.51100000000E-03 0.  1.
    9900012    2    1    2    0    0 -0.40756969959E+01  0.15970459158E+02 -0.27295685725E+02  0.59301932025E+02  0.49999978109E+02 0.  0.
         12    1    1    2    0    0  0.40756969959E+01 -0.15970459158E+02  0.27295685725E+02  0.31886067975E+02  0.00000000000E+00 0. -1.
         11    1    3    3    0    0 -0.10213285329E+02  0.79363682910E+01 -0.52381295960E+00  0.12944941836E+02  0.51100000000E-03 0. -1.
        -11    1    3    3    0    0  0.65536133780E+01 -0.46415443407E+01 -0.31736961728E+02  0.32737265038E+02  0.51100000000E-03 0.  1.
        -12    1    3    3    0    0 -0.41602504449E+00  0.12675635208E+02  0.49650889625E+01  0.13619725150E+02  0.00000000000E+00 0.  1.
</event>
<event>
 7    1  0.7674040E-012  0.5930195E+02  0.7816164E-02  0.1266605E+00
        -11   -1    0    0    0    0  0.00000000000E+00  0.00000000000E+00  0.45593999997E+02  0.45594000000E+02  0.51100000000E-03 0.  1.
         11   -1    0    0    0    0 -0.00000000000E+00 -0.00000000000E+00 -0.45593999997E+02  0.45594000000E+02  0.51100000000E-03 0. -1.
    9900012    2    1    2    0    0 -0.27025430575E+02 -0.10888965667E+02  0.12952870530E+02  0.59301947782E+02  0.50000006847E+02 0.  0.
         12    1    1    2    0    0  0.27025430575E+02  0.10888965667E+02 -0.12952870530E+02  0.31886052218E+02  0.00000000000E+00 0. -1.
         11    1    3    3    0    0  0.98527737610E+01  0.80368953804E+01  0.19219452549E+01  0.12859343372E+02  0.51100000000E-03 0. -1.
        -11    1    3    3    0    0 -0.24419784074E+02 -0.46282599609E+01  0.73825615780E+00  0.24865471379E+02  0.51100000000E-03 0.  1.
        -12    1    3    3    0    0 -0.12458420262E+02 -0.14297601087E+02  0.10292669117E+02  0.21577133031E+02  0.00000000000E+00 0.  1.
</event>
<event>
 7    1  0.7674040E-012  0.5930195E+02  0.7816164E-02  0.1266605E+00
        -11   -1    0    0    0    0  0.00000000000E+00  0.00000000000E+00  0.45593999997E+02  0.45594000000E+02  0.51100000000E-03 0.  1.
         11   -1    0    0    0    0 -0.00000000000E+00 -0.00000000000E+00 -0.45593999997E+02  0.45594000000E+02  0.51100000000E-03 0. -1.
    9900012    2    1    2    0    0  0.23507526243E+02  0.59789609874E+01  0.20697060085E+02  0.59301951943E+02  0.50000014435E+02 0.  0.
         12    1    1    2    0    0 -0.23507526243E+02 -0.59789609874E+01 -0.20697060085E+02  0.31886048057E+02  0.00000000000E+00 0. -1.
         11    1    3    3    0    0  0.22168790052E+00 -0.54146137219E+01 -0.12951076253E+02  0.14039143979E+02  0.51100000000E-03 0. -1.
        -11    1    3    3    0    0  0.10886004163E+02 -0.29358815676E+01  0.11313889114E+02  0.15972744735E+02  0.51100000000E-03 0.  1.
         12    1    3    3    0    0  0.12399834179E+02  0.14329456277E+02  0.22334247225E+02  0.29290063229E+02  0.00000000000E+00 0. -1.
</event>
<event>
 7    1  0.7674040E-012  0.5930194E+02  0.7816164E-02  0.1266605E+00
        -11   -1    0    0    0    0  0.00000000000E+00  0.00000000000E+00  0.45593999997E+02  0.45594000000E+02  0.51100000000E-03 0. -1.
         11   -1    0    0    0    0 -0.00000000000E+00 -0.00000000000E+00 -0.45593999997E+02  0.45594000000E+02  0.51100000000E-03 0.  1.
    9900012    2    1    2    0    0 -0.13700318891E+01 -0.37139297910E+01 -0.31639383958E+02  0.59301939110E+02  0.49999991031E+02 0.  0.
         12    1    1    2    0    0  0.13700318891E+01  0.37139297910E+01  0.31639383958E+02  0.31886060890E+02  0.00000000000E+00 0. -1.
         11    1    3    3    0    0  0.93086343487E+01  0.54811587625E+00 -0.18393054214E+01  0.95044278705E+01  0.51100000000E-03 0. -1.
        -11    1    3    3    0    0 -0.24010973125E+02 -0.83659991049E+01 -0.15291579201E+02  0.29670678559E+02  0.51100000000E-03 0.  1.
        -12    1    3    3    0    0  0.13332306888E+02  0.41039534377E+01 -0.14508499336E+02  0.20126832680E+02  0.00000000000E+00 0.  1.
</event>
<event>
 7    1  0.7674040E-012  0.5930160E+02  0.7816164E-02  0.1266606E+00
        -11   -1    0    0    0    0  0.00000000000E+00  0.00000000000E+00  0.45593999997E+02  0.45594000000E+02  0.51100000000E-03 0.  1.
         11   -1    0    0    0    0 -0.00000000000E+00 -0.00000000000E+00 -0.45593999997E+02  0.45594000000E+02  0.51100000000E-03 0. -1.
    9900012    2    1    2    0    0 -0.25377629260E+02 -0.16812671163E+02  0.94895931098E+01  0.59301602337E+02  0.49999376835E+02 0.  0.
         12    1    1    2    0    0  0.25377629260E+02  0.16812671163E+02 -0.94895931098E+01  0.31886397663E+02  0.00000000000E+00 0. -1.
         11    1    3    3    0    0  0.52869031618E+01  0.12732985065E+02  0.73753542209E+01  0.15635731638E+02  0.51100000000E-03 0. -1.
        -11    1    3    3    0    0 -0.17095754943E+02 -0.99523127359E+01  0.93080288265E+00  0.19803528982E+02  0.51100000000E-03 0.  1.
         12    1    3    3    0    0 -0.13568777480E+02 -0.19593343492E+02  0.11834360063E+01  0.23862341718E+02  0.00000000000E+00 0. -1.
</event>
<event>
 7    1  0.7674040E-012  0.5930193E+02  0.7816164E-02  0.1266605E+00
        -11   -1    0    0    0    0  0.00000000000E+00  0.00000000000E+00  0.45593999997E+02  0.45594000000E+02  0.51100000000E-03 0.  1.
         11   -1    0    0    0    0 -0.00000000000E+00 -0.00000000000E+00 -0.45593999997E+02  0.45594000000E+02  0.51100000000E-03 0. -1.
    9900012    2    1    2    0    0 -0.79368099550E+01 -0.17065803658E+02  0.25738826050E+02  0.59301925090E+02  0.49999965462E+02 0.  0.
         12    1    1    2    0    0  0.79368099550E+01  0.17065803658E+02 -0.25738826050E+02  0.31886074910E+02  0.00000000000E+00 0. -1.
         11    1    3    3    0    0 -0.17131075970E+02 -0.26751693282E+02  0.25988136646E+02  0.41042783823E+02  0.51100000000E-03 0. -1.
        -11    1    3    3    0    0 -0.30414553019E+01  0.17018954557E+01  0.91290918292E+00  0.36028186095E+01  0.51100000000E-03 0.  1.
         12    1    3    3    0    0  0.12235721317E+02  0.79839941690E+01 -0.11622197792E+01  0.14656322658E+02  0.00000000000E+00 0. -1.
</event>
<event>
 7    1  0.7674040E-012  0.5930198E+02  0.7816164E-02  0.1266605E+00
        -11   -1    0    0    0    0  0.00000000000E+00  0.00000000000E+00  0.45593999997E+02  0.45594000000E+02  0.51100000000E-03 0.  1.
         11   -1    0    0    0    0 -0.00000000000E+00 -0.00000000000E+00 -0.45593999997E+02  0.45594000000E+02  0.51100000000E-03 0. -1.
    9900012    2    1    2    0    0 -0.33803005074E+01 -0.19282527014E+02  0.25168951390E+02  0.59301978084E+02  0.50000062110E+02 0.  0.
         12    1    1    2    0    0  0.33803005074E+01  0.19282527014E+02 -0.25168951390E+02  0.31886021916E+02  0.00000000000E+00 0. -1.
         11    1    3    3    0    0 -0.12988184231E+02  0.68969850340E+00  0.16413360768E+02  0.20941991920E+02  0.51100000000E-03 0.  1.
        -11    1    3    3    0    0  0.15538238861E+02 -0.25077252851E+02  0.74467027037E+01  0.30426285657E+02  0.51100000000E-03 0. -1.
         12    1    3    3    0    0 -0.59303551380E+01  0.51050273338E+01  0.13088879188E+01  0.79337005064E+01  0.00000000000E+00 0. -1.
</event>
<event>
 7    1  0.7674040E-012  0.5930197E+02  0.7816164E-02  0.1266605E+00
        -11   -1    0    0    0    0  0.00000000000E+00  0.00000000000E+00  0.45593999997E+02  0.45594000000E+02  0.51100000000E-03 0.  1.
         11   -1    0    0    0    0 -0.00000000000E+00 -0.00000000000E+00 -0.45593999997E+02  0.45594000000E+02  0.51100000000E-03 0. -1.
    9900012    2    1    2    0    0 -0.25102723147E+02 -0.30620241677E+01  0.19421538109E+02  0.59301971023E+02  0.50000049233E+02 0.  0.
         12    1    1    2    0    0  0.25102723147E+02  0.30620241677E+01 -0.19421538109E+02  0.31886028977E+02  0.00000000000E+00 0. -1.
         11    1    3    3    0    0 -0.38133598427E+01 -0.75817032206E+01 -0.89898471873E+01  0.12362899730E+02  0.51100000000E-03 0. -1.
        -11    1    3    3    0    0 -0.12205465672E+02 -0.75345747444E+01  0.28431995991E+02  0.31845276026E+02  0.51100000000E-03 0.  1.
         12    1    3    3    0    0 -0.90838976317E+01  0.12054253797E+02 -0.20610694266E-01  0.15093795268E+02  0.00000000000E+00 0. -1.
</event>
<event>
 7    1  0.7674040E-012  0.5930195E+02  0.7816164E-02  0.1266605E+00
        -11   -1    0    0    0    0  0.00000000000E+00  0.00000000000E+00  0.45593999997E+02  0.45594000000E+02  0.51100000000E-03 0. -1.
         11   -1    0    0    0    0 -0.00000000000E+00 -0.00000000000E+00 -0.45593999997E+02  0.45594000000E+02  0.51100000000E-03 0.  1.
    9900012    2    1    2    0    0 -0.25009085789E+02 -0.11754325543E+02 -0.15909172205E+02  0.59301948172E+02  0.50000007557E+02 0.  0.
         12    1    1    2    0    0  0.25009085789E+02  0.11754325543E+02  0.15909172205E+02  0.31886051828E+02  0.00000000000E+00 0. -1.
         11    1    3    3    0    0 -0.18476234573E+02 -0.76014818264E+01 -0.59850820776E+01  0.20856053742E+02  0.51100000000E-03 0. -1.
        -11    1    3    3    0    0  0.98213776455E+01 -0.11282250079E+02 -0.13615917660E+02  0.20227254873E+02  0.51100000000E-03 0.  1.
        -12    1    3    3    0    0 -0.16354228862E+02  0.71294063631E+01  0.36918275334E+01  0.18218639557E+02  0.00000000000E+00 0.  1.
</event>
<event>
 7    1  0.7674040E-012  0.5930195E+02  0.7816164E-02  0.1266605E+00
        -11   -1    0    0    0    0  0.00000000000E+00  0.00000000000E+00  0.45593999997E+02  0.45594000000E+02  0.51100000000E-03 0. -1.
         11   -1    0    0    0    0 -0.00000000000E+00 -0.00000000000E+00 -0.45593999997E+02  0.45594000000E+02  0.51100000000E-03 0.  1.
    9900012    2    1    2    0    0  0.24686019414E+02  0.14613851954E+02  0.13919624404E+02  0.59301950276E+02  0.50000011395E+02 0.  0.
         12    1    1    2    0    0 -0.24686019414E+02 -0.14613851954E+02 -0.13919624404E+02  0.31886049724E+02  0.00000000000E+00 0. -1.
         11    1    3    3    0    0  0.23371619854E+02 -0.49443767313E+01  0.78072857185E+01  0.25132313591E+02  0.51100000000E-03 0. -1.
        -11    1    3    3    0    0 -0.45420887543E+00  0.14037151460E+02 -0.98716480094E+01  0.17166751629E+02  0.51100000000E-03 0.  1.
        -12    1    3    3    0    0  0.17686084353E+01  0.55210772253E+01  0.15983986695E+02  0.17002885055E+02  0.00000000000E+00 0.  1.
</event>
<event>
 7    1  0.7674040E-012  0.5930193E+02  0.7816164E-02  0.1266605E+00
        -11   -1    0    0    0    0  0.00000000000E+00  0.00000000000E+00  0.45593999997E+02  0.45594000000E+02  0.51100000000E-03 0. -1.
         11   -1    0    0    0    0 -0.00000000000E+00 -0.00000000000E+00 -0.45593999997E+02  0.45594000000E+02  0.51100000000E-03 0.  1.
    9900012    2    1    2    0    0  0.19126992027E+02 -0.18520372360E+02  0.17546379936E+02  0.59301929919E+02  0.49999974269E+02 0.  0.
         12    1    1    2    0    0 -0.19126992027E+02  0.18520372360E+02 -0.17546379936E+02  0.31886070081E+02  0.00000000000E+00 0. -1.
         11    1    3    3    0    0 -0.14432868980E+00 -0.20592898454E+02  0.21611605361E+02  0.29852131985E+02  0.51100000000E-03 0. -1.
        -11    1    3    3    0    0  0.17954530373E+02  0.59595301619E+01  0.49411961549E+01  0.19552406000E+02  0.51100000000E-03 0.  1.
         12    1    3    3    0    0  0.13167903432E+01 -0.38870040681E+01 -0.90064215799E+01  0.98973919346E+01  0.00000000000E+00 0. -1.
</event>
<event>
 7    1  0.7674040E-012  0.5930191E+02  0.7816164E-02  0.1266605E+00
        -11   -1    0    0    0    0  0.00000000000E+00  0.00000000000E+00  0.45593999997E+02  0.45594000000E+02  0.51100000000E-03 0.  1.
         11   -1    0    0    0    0 -0.00000000000E+00 -0.00000000000E+00 -0.45593999997E+02  0.45594000000E+02  0.51100000000E-03 0. -1.
    9900012    2    1    2    0    0  0.16218269670E+02 -0.25780010760E+02  0.94382924335E+01  0.59301912282E+02  0.49999942104E+02 0.  0.
         12    1    1    2    0    0 -0.16218269670E+02  0.25780010760E+02 -0.94382924335E+01  0.31886087718E+02  0.00000000000E+00 0. -1.
         11    1    3    3    0    0  0.61865642038E+01  0.33589138237E+01 -0.13747162759E+02  0.15444751953E+02  0.51100000000E-03 0. -1.
        -11    1    3    3    0    0  0.15445902433E+02 -0.24503513559E+02  0.13834887634E+02  0.32099878424E+02  0.51100000000E-03 0.  1.
         12    1    3    3    0    0 -0.54141969664E+01 -0.46354110246E+01  0.93505675577E+01  0.11757281906E+02  0.00000000000E+00 0. -1.
</event>
<event>
 7    1  0.7674040E-012  0.5930195E+02  0.7816164E-02  0.1266605E+00
        -11   -1    0    0    0    0  0.00000000000E+00  0.00000000000E+00  0.45593999997E+02  0.45594000000E+02  0.51100000000E-03 0.  1.
         11   -1    0    0    0    0 -0.00000000000E+00 -0.00000000000E+00 -0.45593999997E+02  0.45594000000E+02  0.51100000000E-03 0. -1.
    9900012    2    1    2    0    0  0.18663804743E+02  0.50273307557E+01  0.25359582076E+02  0.59301951874E+02  0.50000014310E+02 0.  0.
         12    1    1    2    0    0 -0.18663804743E+02 -0.50273307557E+01 -0.25359582076E+02  0.31886048126E+02  0.00000000000E+00 0. -1.
         11    1    3    3    0    0  0.63111789559E+01  0.11514869692E+02 -0.10081627087E+02  0.16554830377E+02  0.51100000000E-03 0. -1.
        -11    1    3    3    0    0  0.14270103464E+02  0.23472904336E+01  0.17889270490E+02  0.23003730657E+02  0.51100000000E-03 0.  1.
         12    1    3    3    0    0 -0.19174776765E+01 -0.88348293702E+01  0.17551938673E+02  0.19743390839E+02  0.00000000000E+00 0. -1.
</event>
<event>
 7    1  0.7674040E-012  0.5930194E+02  0.7816164E-02  0.1266605E+00
        -11   -1    0    0    0    0  0.00000000000E+00  0.00000000000E+00  0.45593999997E+02  0.45594000000E+02  0.51100000000E-03 0. -1.
         11   -1    0    0    0    0 -0.00000000000E+00 -0.00000000000E+00 -0.45593999997E+02  0.45594000000E+02  0.51100000000E-03 0.  1.
    9900012    2    1    2    0    0  0.87157371966E+00 -0.30701403605E+02 -0.85665141086E+01  0.59301937401E+02  0.49999987915E+02 0.  0.
         12    1    1    2    0    0 -0.87157371966E+00  0.30701403605E+02  0.85665141086E+01  0.31886062599E+02  0.00000000000E+00 0. -1.
         11    1    3    3    0    0  0.47587543229E+01  0.82610737177E+01  0.79841712902E+01  0.12435355770E+02  0.51100000000E-03 0. -1.
        -11    1    3    3    0    0 -0.44521898738E+01 -0.41165930650E+02 -0.14713158247E+02  0.43942381215E+02  0.51100000000E-03 0.  1.
        -12    1    3    3    0    0  0.56500927054E+00  0.22034533273E+01 -0.18375271515E+01  0.29242004162E+01  0.00000000000E+00 0.  1.
</event>
<event>
 7    1  0.7674040E-012  0.5930194E+02  0.7816164E-02  0.1266605E+00
        -11   -1    0    0    0    0  0.00000000000E+00  0.00000000000E+00  0.45593999997E+02  0.45594000000E+02  0.51100000000E-03 0.  1.
         11   -1    0    0    0    0 -0.00000000000E+00 -0.00000000000E+00 -0.45593999997E+02  0.45594000000E+02  0.51100000000E-03 0. -1.
    9900012    2    1    2    0    0  0.20491277852E+02  0.41709737119E+01  0.24071380673E+02  0.59301939453E+02  0.49999991656E+02 0.  0.
         12    1    1    2    0    0 -0.20491277852E+02 -0.41709737119E+01 -0.24071380673E+02  0.31886060547E+02  0.00000000000E+00 0. -1.
         11    1    3    3    0    0  0.16223048068E+02  0.56386522247E+01 -0.34855853503E+01  0.17525153153E+02  0.51100000000E-03 0. -1.
        -11    1    3    3    0    0  0.69005619884E+01 -0.14197256925E+02  0.23212041324E+02  0.28070958705E+02  0.51100000000E-03 0.  1.
        -12    1    3    3    0    0 -0.26323322047E+01  0.12729578412E+02  0.43449247000E+01  0.13705827594E+02  0.00000000000E+00 0.  1.
</event>
<event>
 7    1  0.7674040E-012  0.5930194E+02  0.7816164E-02  0.1266605E+00
        -11   -1    0    0    0    0  0.00000000000E+00  0.00000000000E+00  0.45593999997E+02  0.45594000000E+02  0.51100000000E-03 0. -1.
         11   -1    0    0    0    0 -0.00000000000E+00 -0.00000000000E+00 -0.45593999997E+02  0.45594000000E+02  0.51100000000E-03 0.  1.
    9900012    2    1    2    0    0  0.86801597448E+01 -0.29011854879E+02 -0.99843992865E+01  0.59301935241E+02  0.49999983975E+02 0.  0.
         12    1    1    2    0    0 -0.86801597448E+01  0.29011854879E+02  0.99843992865E+01  0.31886064759E+02  0.00000000000E+00 0. -1.
         11    1    3    3    0    0  0.23570201033E+02 -0.23161700478E+02 -0.15068985738E+02  0.36319320990E+02  0.51100000000E-03 0.  1.
        -11    1    3    3    0    0 -0.67975424568E+01  0.47507493750E+01  0.49243054788E+01  0.96449462303E+01  0.51100000000E-03 0. -1.
        -12    1    3    3    0    0 -0.80924988319E+01 -0.10600903776E+02  0.16028097309E+00  0.13337668020E+02  0.00000000000E+00 0.  1.
</event>
<event>
 7    1  0.7674040E-012  0.5930197E+02  0.7816164E-02  0.1266605E+00
        -11   -1    0    0    0    0  0.00000000000E+00  0.00000000000E+00  0.45593999997E+02  0.45594000000E+02  0.51100000000E-03 0.  1.
         11   -1    0    0    0    0 -0.00000000000E+00 -0.00000000000E+00 -0.45593999997E+02  0.45594000000E+02  0.51100000000E-03 0. -1.
    9900012    2    1    2    0    0 -0.50887405699E+01 -0.27212614098E+02  0.15820784279E+02  0.59301970742E+02  0.50000048721E+02 0.  0.
         12    1    1    2    0    0  0.50887405699E+01  0.27212614098E+02 -0.15820784279E+02  0.31886029258E+02  0.00000000000E+00 0. -1.
         11    1    3    3    0    0 -0.16916881374E+02 -0.40739792211E+01  0.10172400084E+02  0.20155790876E+02  0.51100000000E-03 0. -1.
        -11    1    3    3    0    0  0.56411041288E+01 -0.95560358727E+01 -0.11791215136E+02  0.16191745799E+02  0.51100000000E-03 0.  1.
        -12    1    3    3    0    0  0.61870366753E+01 -0.13582599004E+02  0.17439599330E+02  0.22954434067E+02  0.00000000000E+00 0.  1.
</event>
<event>
 7    1  0.7674040E-012  0.5930196E+02  0.7816164E-02  0.1266605E+00
        -11   -1    0    0    0    0  0.00000000000E+00  0.00000000000E+00  0.45593999997E+02  0.45594000000E+02  0.51100000000E-03 0. -1.
         11   -1    0    0    0    0 -0.00000000000E+00 -0.00000000000E+00 -0.45593999997E+02  0.45594000000E+02  0.51100000000E-03 0.  1.
    9900012    2    1    2    0    0  0.15862516445E+02  0.20074138061E+02 -0.19029690634E+02  0.59301959599E+02  0.50000028398E+02 0.  0.
         12    1    1    2    0    0 -0.15862516445E+02 -0.20074138061E+02  0.19029690634E+02  0.31886040401E+02  0.00000000000E+00 0. -1.
         11    1    3    3    0    0  0.98905310427E+01  0.17766644175E+02 -0.19590621017E+02  0.28235946622E+02  0.51100000000E-03 0. -1.
        -11    1    3    3    0    0 -0.47564437466E+01 -0.12152526795E+02  0.52257414389E+00  0.13060656516E+02  0.51100000000E-03 0.  1.
         12    1    3    3    0    0  0.10728429148E+02  0.14460020681E+02  0.38356239636E-01  0.18005356461E+02  0.00000000000E+00 0. -1.
</event>
<event>
 7    1  0.7674040E-012  0.5930194E+02  0.7816164E-02  0.1266605E+00
        -11   -1    0    0    0    0  0.00000000000E+00  0.00000000000E+00  0.45593999997E+02  0.45594000000E+02  0.51100000000E-03 0. -1.
         11   -1    0    0    0    0 -0.00000000000E+00 -0.00000000000E+00 -0.45593999997E+02  0.45594000000E+02  0.51100000000E-03 0.  1.
    9900012    2    1    2    0    0  0.46576098096E+01  0.20468737324E+01 -0.31477576505E+02  0.59301939663E+02  0.49999992039E+02 0.  0.
         12    1    1    2    0    0 -0.46576098096E+01 -0.20468737324E+01  0.31477576505E+02  0.31886060337E+02  0.00000000000E+00 0. -1.
         11    1    3    3    0    0  0.15211063297E+01  0.40476037652E+01 -0.21662184516E+01  0.48362550953E+01  0.51100000000E-03 0. -1.
        -11    1    3    3    0    0 -0.17366854208E+02 -0.11476004172E+02 -0.22984120272E+02  0.31009290249E+02  0.51100000000E-03 0.  1.
        -12    1    3    3    0    0  0.20503357687E+02  0.94752741392E+01 -0.63272377809E+01  0.23456394318E+02  0.00000000000E+00 0.  1.
</event>
<event>
 7    1  0.7674040E-012  0.5930192E+02  0.7816164E-02  0.1266605E+00
        -11   -1    0    0    0    0  0.00000000000E+00  0.00000000000E+00  0.45593999997E+02  0.45594000000E+02  0.51100000000E-03 0. -1.
         11   -1    0    0    0    0 -0.00000000000E+00 -0.00000000000E+00 -0.45593999997E+02  0.45594000000E+02  0.51100000000E-03 0.  1.
    9900012    2    1    2    0    0  0.19759997314E+02  0.24890761332E+02 -0.25912141649E+01  0.59301923346E+02  0.49999962282E+02 0.  0.
         12    1    1    2    0    0 -0.19759997314E+02 -0.24890761332E+02  0.25912141649E+01  0.31886076654E+02  0.00000000000E+00 0. -1.
         11    1    3    3    0    0 -0.10253184701E+02 -0.24359831761E+01  0.95549846102E+01  0.14225313414E+02  0.51100000000E-03 0. -1.
        -11    1    3    3    0    0  0.23810944987E+02  0.26637493409E+02 -0.14287245971E+02  0.38479118415E+02  0.51100000000E-03 0.  1.
         12    1    3    3    0    0  0.62022370283E+01  0.68925109858E+00  0.21410471962E+01  0.65974915178E+01  0.00000000000E+00 0. -1.
</event>
<event>
 7    1  0.7674040E-012  0.5930162E+02  0.7816164E-02  0.1266606E+00
        -11   -1    0    0    0    0  0.00000000000E+00  0.00000000000E+00  0.45593999997E+02  0.45594000000E+02  0.51100000000E-03 0. -1.
         11   -1    0    0    0    0 -0.00000000000E+00 -0.00000000000E+00 -0.45593999997E+02  0.45594000000E+02  0.51100000000E-03 0.  1.
    9900012    2    1    2    0    0  0.49000345832E+01  0.39043322643E+01 -0.31264786924E+02  0.59301622803E+02  0.49999414161E+02 0.  0.
         12    1    1    2    0    0 -0.49000345832E+01 -0.39043322643E+01  0.31264786924E+02  0.31886377197E+02  0.00000000000E+00 0. -1.
         11    1    3    3    0    0  0.17970104146E+02  0.19508166396E+02 -0.76935320624E+01  0.27616727450E+02  0.51100000000E-03 0. -1.
        -11    1    3    3    0    0 -0.70880409050E+01 -0.92071532506E+01 -0.17582877399E+02  0.21075330905E+02  0.51100000000E-03 0.  1.
         12    1    3    3    0    0 -0.59820286581E+01 -0.63966808815E+01 -0.59883774618E+01  0.10609564449E+02  0.00000000000E+00 0. -1.
</event>
<event>
 7    1  0.7674040E-012  0.5930195E+02  0.7816164E-02  0.1266605E+00
        -11   -1    0    0    0    0  0.00000000000E+00  0.00000000000E+00  0.45593999997E+02  0.45594000000E+02  0.51100000000E-03 0. -1.
         11   -1    0    0    0    0 -0.00000000000E+00 -0.00000000000E+00 -0.45593999997E+02  0.45594000000E+02  0.51100000000E-03 0.  1.
    9900012    2    1    2    0    0 -0.71929490170E+01 -0.27641152552E+02  0.14175635434E+02  0.59301945526E+02  0.50000002733E+02 0.  0.
         12    1    1    2    0    0  0.71929490170E+01  0.27641152552E+02 -0.14175635434E+02  0.31886054474E+02  0.00000000000E+00 0. -1.
         11    1    3    3    0    0  0.34380263048E+00 -0.10450896043E+02  0.13359408325E+02  0.16965058779E+02  0.51100000000E-03 0. -1.
        -11    1    3    3    0    0 -0.40685498018E+01  0.87875669788E+00 -0.16532621747E+02  0.17048545185E+02  0.51100000000E-03 0.  1.
        -12    1    3    3    0    0 -0.34682018456E+01 -0.18069013207E+02  0.17348848857E+02  0.25288341562E+02  0.00000000000E+00 0.  1.
</event>
<event>
 7    1  0.7674040E-012  0.5930195E+02  0.7816164E-02  0.1266605E+00
        -11   -1    0    0    0    0  0.00000000000E+00  0.00000000000E+00  0.45593999997E+02  0.45594000000E+02  0.51100000000E-03 0.  1.
         11   -1    0    0    0    0 -0.00000000000E+00 -0.00000000000E+00 -0.45593999997E+02  0.45594000000E+02  0.51100000000E-03 0. -1.
    9900012    2    1    2    0    0 -0.43522376273E+00  0.31308777193E+02  0.60242412253E+01  0.59301946131E+02  0.50000003835E+02 0.  0.
         12    1    1    2    0    0  0.43522376273E+00 -0.31308777193E+02 -0.60242412253E+01  0.31886053869E+02  0.00000000000E+00 0. -1.
         11    1    3    3    0    0  0.20917985823E+02  0.65669881820E+01  0.80115883541E+01  0.23342515136E+02  0.51100000000E-03 0. -1.
        -11    1    3    3    0    0 -0.15529127991E+01  0.12286837590E+02 -0.21342811871E+01  0.12567142578E+02  0.51100000000E-03 0.  1.
         12    1    3    3    0    0 -0.19800296787E+02  0.12454951421E+02  0.14693405840E+00  0.23392288416E+02  0.00000000000E+00 0. -1.
</event>
<event>
 7    1  0.7674040E-012  0.5930203E+02  0.7816164E-02  0.1266604E+00
        -11   -1    0    0    0    0  0.00000000000E+00  0.00000000000E+00  0.45593999997E+02  0.45594000000E+02  0.51100000000E-03 0.  1.
         11   -1    0    0    0    0 -0.00000000000E+00 -0.00000000000E+00 -0.45593999997E+02  0.45594000000E+02  0.51100000000E-03 0. -1.
    9900012    2    1    2    0    0  0.28181696674E+02  0.12801681029E+02 -0.76566322541E+01  0.59302030012E+02  0.50000156814E+02 0.  0.
         12    1    1    2    0    0 -0.28181696674E+02 -0.12801681029E+02  0.76566322541E+01  0.31885969988E+02  0.00000000000E+00 0. -1.
         11    1    3    3    0    0 -0.14296442528E+01 -0.14077771366E+01 -0.46052536019E+01  0.50233534770E+01  0.51100000000E-03 0. -1.
        -11    1    3    3    0    0  0.27034919986E+02 -0.41971348684E+01  0.12467421526E+02  0.30065585635E+02  0.51100000000E-03 0.  1.
        -12    1    3    3    0    0  0.25764209408E+01  0.18406593034E+02 -0.15518800178E+02  0.24213090900E+02  0.00000000000E+00 0.  1.
</event>
<event>
 7    1  0.7674040E-012  0.5930198E+02  0.7816164E-02  0.1266605E+00
        -11   -1    0    0    0    0  0.00000000000E+00  0.00000000000E+00  0.45593999997E+02  0.45594000000E+02  0.51100000000E-03 0. -1.
         11   -1    0    0    0    0 -0.00000000000E+00 -0.00000000000E+00 -0.45593999997E+02  0.45594000000E+02  0.51100000000E-03 0.  1.
    9900012    2    1    2    0    0 -0.11248435117E+02 -0.19008973763E+02 -0.22996730128E+02  0.59301984685E+02  0.50000074148E+02 0.  0.
         12    1    1    2    0    0  0.11248435117E+02  0.19008973763E+02  0.22996730128E+02  0.31886015315E+02  0.00000000000E+00 0. -1.
         11    1    3    3    0    0 -0.34875703107E+01 -0.10411761997E+02 -0.19158214309E+01  0.11146223870E+02  0.51100000000E-03 0. -1.
        -11    1    3    3    0    0  0.36786118713E+01  0.58851485096E+01  0.99024373810E+01  0.12092370513E+02  0.51100000000E-03 0.  1.
        -12    1    3    3    0    0 -0.11439476678E+02 -0.14482360276E+02 -0.30983346078E+02  0.36063390301E+02  0.00000000000E+00 0.  1.
</event>
<event>
 7    1  0.7674040E-012  0.5930200E+02  0.7816164E-02  0.1266605E+00
        -11   -1    0    0    0    0  0.00000000000E+00  0.00000000000E+00  0.45593999997E+02  0.45594000000E+02  0.51100000000E-03 0. -1.
         11   -1    0    0    0    0 -0.00000000000E+00 -0.00000000000E+00 -0.45593999997E+02  0.45594000000E+02  0.51100000000E-03 0.  1.
    9900012    2    1    2    0    0  0.23493601344E+02  0.17934515592E+02  0.11963307032E+02  0.59302001995E+02  0.50000105719E+02 0.  0.
         12    1    1    2    0    0 -0.23493601344E+02 -0.17934515592E+02 -0.11963307032E+02  0.31885998005E+02  0.00000000000E+00 0. -1.
         11    1    3    3    0    0  0.16690408713E+02  0.18679931978E+02  0.19880967848E+02  0.31980657975E+02  0.51100000000E-03 0. -1.
        -11    1    3    3    0    0  0.13889169913E+02  0.36765083016E+01 -0.11331283781E+02  0.18298189708E+02  0.51100000000E-03 0.  1.
        -12    1    3    3    0    0 -0.70859772824E+01 -0.44219246880E+01  0.34136229661E+01  0.90231543125E+01  0.00000000000E+00 0.  1.
</event>
<event>
 7    1  0.7674040E-012  0.5930195E+02  0.7816164E-02  0.1266605E+00
        -11   -1    0    0    0    0  0.00000000000E+00  0.00000000000E+00  0.45593999997E+02  0.45594000000E+02  0.51100000000E-03 0. -1.
         11   -1    0    0    0    0 -0.00000000000E+00 -0.00000000000E+00 -0.45593999997E+02  0.45594000000E+02  0.51100000000E-03 0.  1.
    9900012    2    1    2    0    0  0.45657760037E+01  0.15470248792E+02 -0.27505373884E+02  0.59301945043E+02  0.50000001852E+02 0.  0.
         12    1    1    2    0    0 -0.45657760037E+01 -0.15470248792E+02  0.27505373884E+02  0.31886054957E+02  0.00000000000E+00 0. -1.
         11    1    3    3    0    0  0.14358608911E+02  0.94660047143E+01  0.41739036195E+00  0.17203171512E+02  0.51100000000E-03 0. -1.
        -11    1    3    3    0    0 -0.17325303478E+02  0.11923536713E+02 -0.23530749873E+02  0.31559991417E+02  0.51100000000E-03 0.  1.
        -12    1    3    3    0    0  0.75324705710E+01 -0.59192926350E+01 -0.43920143728E+01  0.10538782114E+02  0.00000000000E+00 0.  1.
</event>
<event>
 7    1  0.7674040E-012  0.5930195E+02  0.7816164E-02  0.1266605E+00
        -11   -1    0    0    0    0  0.00000000000E+00  0.00000000000E+00  0.45593999997E+02  0.45594000000E+02  0.51100000000E-03 0. -1.
         11   -1    0    0    0    0 -0.00000000000E+00 -0.00000000000E+00 -0.45593999997E+02  0.45594000000E+02  0.51100000000E-03 0.  1.
    9900012    2    1    2    0    0 -0.27388139498E+02 -0.10968168633E+02 -0.12095846088E+02  0.59301946608E+02  0.50000004706E+02 0.  0.
         12    1    1    2    0    0  0.27388139498E+02  0.10968168633E+02  0.12095846088E+02  0.31886053392E+02  0.00000000000E+00 0. -1.
         11    1    3    3    0    0  0.66821220519E+01  0.86401524554E+01 -0.11250666201E+02  0.15680576514E+02  0.51100000000E-03 0. -1.
        -11    1    3    3    0    0 -0.15111833221E+02 -0.62983804097E+01 -0.94585172395E+01  0.18907687529E+02  0.51100000000E-03 0.  1.
         12    1    3    3    0    0 -0.18958428329E+02 -0.13309940679E+02  0.86133373524E+01  0.24713682565E+02  0.00000000000E+00 0. -1.
</event>
<event>
 7    1  0.7674040E-012  0.5930189E+02  0.7816164E-02  0.1266605E+00
        -11   -1    0    0    0    0  0.00000000000E+00  0.00000000000E+00  0.45593999997E+02  0.45594000000E+02  0.51100000000E-03 0. -1.
         11   -1    0    0    0    0 -0.00000000000E+00 -0.00000000000E+00 -0.45593999997E+02  0.45594000000E+02  0.51100000000E-03 0.  1.
    9900012    2    1    2    0    0 -0.27458867127E+02 -0.92080607840E+01 -0.13339638755E+02  0.59301894415E+02  0.49999909517E+02 0.  0.
         12    1    1    2    0    0  0.27458867127E+02  0.92080607840E+01  0.13339638755E+02  0.31886105585E+02  0.00000000000E+00 0. -1.
         11    1    3    3    0    0 -0.11421942428E+02  0.48245759527E+01 -0.19339359676E+02  0.22972769421E+02  0.51100000000E-03 0.  1.
        -11    1    3    3    0    0  0.60075029290E+01 -0.12171618788E+02  0.76264624638E+00  0.13594852883E+02  0.51100000000E-03 0. -1.
        -12    1    3    3    0    0 -0.22044427628E+02 -0.18610179491E+01  0.52370746740E+01  0.22734272110E+02  0.00000000000E+00 0.  1.
</event>
<event>
 7    1  0.7674040E-012  0.5930194E+02  0.7816164E-02  0.1266605E+00
        -11   -1    0    0    0    0  0.00000000000E+00  0.00000000000E+00  0.45593999997E+02  0.45594000000E+02  0.51100000000E-03 0. -1.
         11   -1    0    0    0    0 -0.00000000000E+00 -0.00000000000E+00 -0.45593999997E+02  0.45594000000E+02  0.51100000000E-03 0.  1.
    9900012    2    1    2    0    0 -0.21770129390E+01 -0.70550170966E+01 -0.31019481983E+02  0.59301938561E+02  0.49999990030E+02 0.  0.
         12    1    1    2    0    0  0.21770129390E+01  0.70550170966E+01  0.31019481983E+02  0.31886061439E+02  0.00000000000E+00 0. -1.
         11    1    3    3    0    0 -0.12255291126E+02  0.87401839314E+01  0.14160311192E+01  0.15119130932E+02  0.51100000000E-03 0. -1.
        -11    1    3    3    0    0  0.92675325034E+01 -0.19286630355E+02 -0.14393633044E+02  0.25788329562E+02  0.51100000000E-03 0.  1.
        -12    1    3    3    0    0  0.81074568374E+00  0.34914293269E+01 -0.18041880059E+02  0.18394478067E+02  0.00000000000E+00 0.  1.
</event>
<event>
 7    1  0.7674040E-012  0.5930193E+02  0.7816164E-02  0.1266605E+00
        -11   -1    0    0    0    0  0.00000000000E+00  0.00000000000E+00  0.45593999997E+02  0.45594000000E+02  0.51100000000E-03 0.  1.
         11   -1    0    0    0    0 -0.00000000000E+00 -0.00000000000E+00 -0.45593999997E+02  0.45594000000E+02  0.51100000000E-03 0. -1.
    9900012    2    1    2    0    0 -0.13041770014E+02  0.12210383995E+02  0.26410986865E+02  0.59301929851E+02  0.49999974144E+02 0.  0.
         12    1    1    2    0    0  0.13041770014E+02 -0.12210383995E+02 -0.26410986865E+02  0.31886070149E+02  0.00000000000E+00 0. -1.
         11    1    3    3    0    0 -0.23038285567E+01  0.50487621647E+01 -0.14286071069E+02  0.15326103623E+02  0.51100000000E-03 0. -1.
        -11    1    3    3    0    0 -0.96225151244E+01  0.16756632850E+01  0.33276979200E+02  0.34680801457E+02  0.51100000000E-03 0.  1.
         12    1    3    3    0    0 -0.11154263328E+01  0.54859585456E+01  0.74200787333E+01  0.92950247701E+01  0.00000000000E+00 0. -1.
</event>
<event>
 7    1  0.7674040E-012  0.5930193E+02  0.7816164E-02  0.1266605E+00
        -11   -1    0    0    0    0  0.00000000000E+00  0.00000000000E+00  0.45593999997E+02  0.45594000000E+02  0.51100000000E-03 0. -1.
         11   -1    0    0    0    0 -0.00000000000E+00 -0.00000000000E+00 -0.45593999997E+02  0.45594000000E+02  0.51100000000E-03 0.  1.
    9900012    2    1    2    0    0 -0.12427779678E+01 -0.31125722001E+02 -0.68092792914E+01  0.59301931700E+02  0.49999977517E+02 0.  0.
         12    1    1    2    0    0  0.12427779678E+01  0.31125722001E+02  0.68092792914E+01  0.31886068300E+02  0.00000000000E+00 0. -1.
         11    1    3    3    0    0 -0.16189865822E+02 -0.39166692051E+01  0.10051885834E+02  0.19454882731E+02  0.51100000000E-03 0. -1.
        -11    1    3    3    0    0  0.27293958988E+01 -0.18060553227E+02 -0.16445402647E+02  0.24578129573E+02  0.51100000000E-03 0.  1.
        -12    1    3    3    0    0  0.12217691955E+02 -0.91484995689E+01 -0.41576247884E+00  0.15268919396E+02  0.00000000000E+00 0.  1.
</event>
<event>
 7    1  0.7674040E-012  0.5930180E+02  0.7816164E-02  0.1266605E+00
        -11   -1    0    0    0    0  0.00000000000E+00  0.00000000000E+00  0.45593999997E+02  0.45594000000E+02  0.51100000000E-03 0. -1.
         11   -1    0    0    0    0 -0.00000000000E+00 -0.00000000000E+00 -0.45593999997E+02  0.45594000000E+02  0.51100000000E-03 0.  1.
    9900012    2    1    2    0    0 -0.25493568880E+02 -0.19143523483E+02  0.57699256568E+00  0.59301804460E+02  0.49999745461E+02 0.  0.
         12    1    1    2    0    0  0.25493568880E+02  0.19143523483E+02 -0.57699256568E+00  0.31886195540E+02  0.00000000000E+00 0. -1.
         11    1    3    3    0    0 -0.18096128562E+02 -0.24912948869E+02  0.36766998340E+01  0.31010369430E+02  0.51100000000E-03 0. -1.
        -11    1    3    3    0    0  0.78725259037E+01  0.14322743015E+01 -0.83564439962E+01  0.11569711764E+02  0.51100000000E-03 0.  1.
         12    1    3    3    0    0 -0.15269966222E+02  0.43371510843E+01  0.52567367279E+01  0.16721723266E+02  0.00000000000E+00 0. -1.
</event>
<event>
 7    1  0.7674040E-012  0.5930193E+02  0.7816164E-02  0.1266605E+00
        -11   -1    0    0    0    0  0.00000000000E+00  0.00000000000E+00  0.45593999997E+02  0.45594000000E+02  0.51100000000E-03 0.  1.
         11   -1    0    0    0    0 -0.00000000000E+00 -0.00000000000E+00 -0.45593999997E+02  0.45594000000E+02  0.51100000000E-03 0. -1.
    9900012    2    1    2    0    0 -0.20258694386E+01 -0.77756966413E+01  0.30857020395E+02  0.59301932307E+02  0.49999978625E+02 0.  0.
         12    1    1    2    0    0  0.20258694386E+01  0.77756966413E+01 -0.30857020395E+02  0.31886067693E+02  0.00000000000E+00 0. -1.
         11    1    3    3    0    0 -0.87630377950E+01  0.48459059264E+01 -0.39846046082E+01  0.10777323870E+02  0.51100000000E-03 0. -1.
        -11    1    3    3    0    0  0.13575193644E+02 -0.16096741724E+02  0.35007541926E+02  0.40852404685E+02  0.51100000000E-03 0.  1.
        -12    1    3    3    0    0 -0.68380252879E+01  0.34751391562E+01 -0.16591692313E+00  0.76722037524E+01  0.00000000000E+00 0.  1.
</event>
<event>
 7    1  0.7674040E-012  0.5930188E+02  0.7816164E-02  0.1266605E+00
        -11   -1    0    0    0    0  0.00000000000E+00  0.00000000000E+00  0.45593999997E+02  0.45594000000E+02  0.51100000000E-03 0.  1.
         11   -1    0    0    0    0 -0.00000000000E+00 -0.00000000000E+00 -0.45593999997E+02  0.45594000000E+02  0.51100000000E-03 0. -1.
    9900012    2    1    2    0    0 -0.14740821145E+02  0.89212164895E+01  0.26829919001E+02  0.59301882875E+02  0.49999888473E+02 0.  0.
         12    1    1    2    0    0  0.14740821145E+02 -0.89212164895E+01 -0.26829919001E+02  0.31886117125E+02  0.00000000000E+00 0. -1.
         11    1    3    3    0    0  0.15395891817E+02  0.12746643568E+02  0.26705329895E+01  0.20165370163E+02  0.51100000000E-03 0. -1.
        -11    1    3    3    0    0 -0.25062787317E+02 -0.20256816352E+01  0.21717536548E+02  0.33224961823E+02  0.51100000000E-03 0.  1.
         12    1    3    3    0    0 -0.50739256448E+01 -0.17997454438E+01  0.24418494642E+01  0.59115508893E+01  0.00000000000E+00 0. -1.
</event>
<event>
 7    1  0.7674040E-012  0.5930194E+02  0.7816164E-02  0.1266605E+00
        -11   -1    0    0    0    0  0.00000000000E+00  0.00000000000E+00  0.45593999997E+02  0.45594000000E+02  0.51100000000E-03 0. -1.
         11   -1    0    0    0    0 -0.00000000000E+00 -0.00000000000E+00 -0.45593999997E+02  0.45594000000E+02  0.51100000000E-03 0.  1.
    9900012    2    1    2    0    0  0.10600497380E+01 -0.45578142529E+01 -0.31540820061E+02  0.59301941819E+02  0.49999995971E+02 0.  0.
         12    1    1    2    0    0 -0.10600497380E+01  0.45578142529E+01  0.31540820061E+02  0.31886058181E+02  0.00000000000E+00 0. -1.
         11    1    3    3    0    0 -0.21806201496E+01 -0.40428388951E-01  0.11463000559E+02  0.11668638342E+02  0.51100000000E-03 0. -1.
        -11    1    3    3    0    0  0.76745928238E+01 -0.86841689524E+01 -0.14890355634E+02  0.18868938936E+02  0.51100000000E-03 0.  1.
         12    1    3    3    0    0 -0.44339229362E+01  0.41667830884E+01 -0.28113464986E+02  0.28764364540E+02  0.00000000000E+00 0. -1.
</event>
<event>
 7    1  0.7674040E-012  0.5930196E+02  0.7816164E-02  0.1266605E+00
        -11   -1    0    0    0    0  0.00000000000E+00  0.00000000000E+00  0.45593999997E+02  0.45594000000E+02  0.51100000000E-03 0. -1.
         11   -1    0    0    0    0 -0.00000000000E+00 -0.00000000000E+00 -0.45593999997E+02  0.45594000000E+02  0.51100000000E-03 0.  1.
    9900012    2    1    2    0    0 -0.17756505069E+02 -0.86336340971E+01 -0.25037701917E+02  0.59301958739E+02  0.50000026831E+02 0.  0.
         12    1    1    2    0    0  0.17756505069E+02  0.86336340971E+01  0.25037701917E+02  0.31886041261E+02  0.00000000000E+00 0. -1.
         11    1    3    3    0    0  0.64155128464E+01 -0.11095959601E+02 -0.93514362174E+01  0.15865953616E+02  0.51100000000E-03 0. -1.
        -11    1    3    3    0    0 -0.24770999335E+02  0.56529921375E+01  0.19696810677E+01  0.25484080755E+02  0.51100000000E-03 0.  1.
        -12    1    3    3    0    0  0.59898141895E+00 -0.31906666335E+01 -0.17655946767E+02  0.17951924369E+02  0.00000000000E+00 0.  1.
</event>
<event>
 7    1  0.7674040E-012  0.5930193E+02  0.7816164E-02  0.1266605E+00
        -11   -1    0    0    0    0  0.00000000000E+00  0.00000000000E+00  0.45593999997E+02  0.45594000000E+02  0.51100000000E-03 0. -1.
         11   -1    0    0    0    0 -0.00000000000E+00 -0.00000000000E+00 -0.45593999997E+02  0.45594000000E+02  0.51100000000E-03 0.  1.
    9900012    2    1    2    0    0  0.14988903923E+02  0.27751649575E+02  0.46797718819E+01  0.59301928435E+02  0.49999971563E+02 0.  0.
         12    1    1    2    0    0 -0.14988903923E+02 -0.27751649575E+02 -0.46797718819E+01  0.31886071565E+02  0.00000000000E+00 0. -1.
         11    1    3    3    0    0 -0.60518745516E+01  0.58594510680E+01  0.10668534584E+01  0.84909674931E+01  0.51100000000E-03 0. -1.
        -11    1    3    3    0    0  0.24405774249E+02  0.11975159018E+02 -0.13803069874E+02  0.30488866631E+02  0.51100000000E-03 0.  1.
        -12    1    3    3    0    0 -0.33649957746E+01  0.99170394897E+01  0.17415988298E+02  0.20322094311E+02  0.00000000000E+00 0.  1.
</event>
<event>
 7    1  0.7674040E-012  0.5930195E+02  0.7816164E-02  0.1266605E+00
        -11   -1    0    0    0    0  0.00000000000E+00  0.00000000000E+00  0.45593999997E+02  0.45594000000E+02  0.51100000000E-03 0.  1.
         11   -1    0    0    0    0 -0.00000000000E+00 -0.00000000000E+00 -0.45593999997E+02  0.45594000000E+02  0.51100000000E-03 0. -1.
    9900012    2    1    2    0    0 -0.15088201963E+02  0.10442420282E+02  0.26077230734E+02  0.59301953795E+02  0.50000017814E+02 0.  0.
         12    1    1    2    0    0  0.15088201963E+02 -0.10442420282E+02 -0.26077230734E+02  0.31886046205E+02  0.00000000000E+00 0. -1.
         11    1    3    3    0    0 -0.18848036923E+02 -0.58514195908E+01 -0.21062480596E+00  0.19736564294E+02  0.51100000000E-03 0. -1.
        -11    1    3    3    0    0  0.74971112820E+01  0.37296513417E+01  0.25034000784E+02  0.26397313731E+02  0.51100000000E-03 0.  1.
         12    1    3    3    0    0 -0.37372763227E+01  0.12564188531E+02  0.12538547560E+01  0.13168075770E+02  0.00000000000E+00 0. -1.
</event>
<event>
 7    1  0.7674040E-012  0.5930193E+02  0.7816164E-02  0.1266605E+00
        -11   -1    0    0    0    0  0.00000000000E+00  0.00000000000E+00  0.45593999997E+02  0.45594000000E+02  0.51100000000E-03 0.  1.
         11   -1    0    0    0    0 -0.00000000000E+00 -0.00000000000E+00 -0.45593999997E+02  0.45594000000E+02  0.51100000000E-03 0. -1.
    9900012    2    1    2    0    0 -0.28964444301E+02 -0.23175686030E+01  0.13130557274E+02  0.59301926359E+02  0.49999967777E+02 0.  0.
         12    1    1    2    0    0  0.28964444301E+02  0.23175686030E+01 -0.13130557274E+02  0.31886073641E+02  0.00000000000E+00 0. -1.
         11    1    3    3    0    0  0.10250795371E+02 -0.11284653286E+01 -0.54865958722E+01  0.11681394363E+02  0.51100000000E-03 0. -1.
        -11    1    3    3    0    0 -0.38906535379E+02  0.22501607166E+01  0.13104753111E+02  0.41115888325E+02  0.51100000000E-03 0.  1.
        -12    1    3    3    0    0 -0.30870429285E+00 -0.34392639910E+01  0.55124000354E+01  0.65046436713E+01  0.00000000000E+00 0.  1.
</event>
<event>
 7    1  0.7674040E-012  0.5930190E+02  0.7816164E-02  0.1266605E+00
        -11   -1    0    0    0    0  0.00000000000E+00  0.00000000000E+00  0.45593999997E+02  0.45594000000E+02  0.51100000000E-03 0.  1.
         11   -1    0    0    0    0 -0.00000000000E+00 -0.00000000000E+00 -0.45593999997E+02  0.45594000000E+02  0.51100000000E-03 0. -1.
    9900012    2    1    2    0    0 -0.28942589776E+02  0.62832792117E+01  0.11813986904E+02  0.59301899782E+02  0.49999919306E+02 0.  0.
         12    1    1    2    0    0  0.28942589776E+02 -0.62832792117E+01 -0.11813986904E+02  0.31886100218E+02  0.00000000000E+00 0. -1.
         11    1    3    3    0    0 -0.17432227330E+02  0.78423240373E+01 -0.42883992369E+01  0.19590175197E+02  0.51100000000E-03 0. -1.
        -11    1    3    3    0    0  0.20087337133E+01 -0.11673447646E+02 -0.48531920400E+01  0.12800697806E+02  0.51100000000E-03 0.  1.
        -12    1    3    3    0    0 -0.13519096159E+02  0.10114402821E+02  0.20955578180E+02  0.26911026778E+02  0.00000000000E+00 0.  1.
</event>
<event>
 7    1  0.7674040E-012  0.5930178E+02  0.7816164E-02  0.1266605E+00
        -11   -1    0    0    0    0  0.00000000000E+00  0.00000000000E+00  0.45593999997E+02  0.45594000000E+02  0.51100000000E-03 0.  1.
         11   -1    0    0    0    0 -0.00000000000E+00 -0.00000000000E+00 -0.45593999997E+02  0.45594000000E+02  0.51100000000E-03 0. -1.
    9900012    2    1    2    0    0 -0.58405678415E+00  0.22593597555E+02  0.22492650417E+02  0.59301778907E+02  0.49999698859E+02 0.  0.
         12    1    1    2    0    0  0.58405678415E+00 -0.22593597555E+02 -0.22492650417E+02  0.31886221093E+02  0.00000000000E+00 0. -1.
         11    1    3    3    0    0 -0.66523861022E+01 -0.96530059638E+01 -0.53012227712E+01  0.12866146592E+02  0.51100000000E-03 0. -1.
        -11    1    3    3    0    0  0.14151508346E+01  0.20164054571E+02  0.26634368810E+02  0.33436228119E+02  0.51100000000E-03 0.  1.
         12    1    3    3    0    0  0.46531784835E+01  0.12082548947E+02  0.11595043783E+01  0.12999404197E+02  0.00000000000E+00 0. -1.
</event>
<event>
 7    1  0.7674040E-012  0.5930191E+02  0.7816164E-02  0.1266605E+00
        -11   -1    0    0    0    0  0.00000000000E+00  0.00000000000E+00  0.45593999997E+02  0.45594000000E+02  0.51100000000E-03 0.  1.
         11   -1    0    0    0    0 -0.00000000000E+00 -0.00000000000E+00 -0.45593999997E+02  0.45594000000E+02  0.51100000000E-03 0. -1.
    9900012    2    1    2    0    0  0.17523092861E+02  0.11366645465E+02  0.24092804740E+02  0.59301911297E+02  0.49999940307E+02 0.  0.
         12    1    1    2    0    0 -0.17523092861E+02 -0.11366645465E+02 -0.24092804740E+02  0.31886088703E+02  0.00000000000E+00 0. -1.
         11    1    3    3    0    0 -0.27040402697E+01 -0.15880295305E+02  0.17395756116E+02  0.23708815742E+02  0.51100000000E-03 0. -1.
        -11    1    3    3    0    0  0.24242762657E+01  0.81694822790E+01 -0.46464746078E+00  0.85342517916E+01  0.51100000000E-03 0.  1.
         12    1    3    3    0    0  0.17802856864E+02  0.19077458491E+02  0.71616960845E+01  0.27058843764E+02  0.00000000000E+00 0. -1.
</event>
<event>
 7    1  0.7674040E-012  0.5930194E+02  0.7816164E-02  0.1266605E+00
        -11   -1    0    0    0    0  0.00000000000E+00  0.00000000000E+00  0.45593999997E+02  0.45594000000E+02  0.51100000000E-03 0. -1.
         11   -1    0    0    0    0 -0.00000000000E+00 -0.00000000000E+00 -0.45593999997E+02  0.45594000000E+02  0.51100000000E-03 0.  1.
    9900012    2    1    2    0    0 -0.29445114757E+02  0.11830383194E+02  0.31221516731E+01  0.59301943790E+02  0.49999999566E+02 0.  0.
         12    1    1    2    0    0  0.29445114757E+02 -0.11830383194E+02 -0.31221516731E+01  0.31886056210E+02  0.00000000000E+00 0. -1.
         11    1    3    3    0    0 -0.45554796009E+01  0.16745445353E+02 -0.96035470889E+00  0.17380581575E+02  0.51100000000E-03 0. -1.
        -11    1    3    3    0    0 -0.17340658641E+02 -0.10008945515E+02  0.16898038300E+02  0.26199639904E+02  0.51100000000E-03 0.  1.
        -12    1    3    3    0    0 -0.75489765150E+01  0.50938833561E+01 -0.12815531918E+02  0.15721722311E+02  0.00000000000E+00 0.  1.
</event>
<event>
 7    1  0.7674040E-012  0.5930196E+02  0.7816164E-02  0.1266605E+00
        -11   -1    0    0    0    0  0.00000000000E+00  0.00000000000E+00  0.45593999997E+02  0.45594000000E+02  0.51100000000E-03 0.  1.
         11   -1    0    0    0    0 -0.00000000000E+00 -0.00000000000E+00 -0.45593999997E+02  0.45594000000E+02  0.51100000000E-03 0. -1.
    9900012    2    1    2    0    0 -0.23136052317E+02 -0.21170011816E+02  0.57683067647E+01  0.59301957912E+02  0.50000025321E+02 0.  0.
         12    1    1    2    0    0  0.23136052317E+02  0.21170011816E+02 -0.57683067647E+01  0.31886042088E+02  0.00000000000E+00 0. -1.
         11    1    3    3    0    0 -0.90018530944E+01 -0.32173586768E+02  0.95758129610E+00  0.33422896446E+02  0.51100000000E-03 0. -1.
        -11    1    3    3    0    0 -0.40537895721E+00  0.11276684866E+02  0.44880183814E+01  0.12143733484E+02  0.51100000000E-03 0.  1.
        -12    1    3    3    0    0 -0.13728820266E+02 -0.27310991465E+00  0.32270708719E+00  0.13735327982E+02  0.00000000000E+00 0.  1.
</event>
<event>
 7    1  0.7674040E-012  0.5930194E+02  0.7816164E-02  0.1266605E+00
        -11   -1    0    0    0    0  0.00000000000E+00  0.00000000000E+00  0.45593999997E+02  0.45594000000E+02  0.51100000000E-03 0.  1.
         11   -1    0    0    0    0 -0.00000000000E+00 -0.00000000000E+00 -0.45593999997E+02  0.45594000000E+02  0.51100000000E-03 0. -1.
    9900012    2    1    2    0    0  0.20480876401E+02 -0.18219683074E+02  0.16287957300E+02  0.59301941880E+02  0.49999996083E+02 0.  0.
         12    1    1    2    0    0 -0.20480876401E+02  0.18219683074E+02 -0.16287957300E+02  0.31886058120E+02  0.00000000000E+00 0. -1.
         11    1    3    3    0    0 -0.26758900638E+01 -0.13965183623E+02  0.15642098952E+01  0.14305016397E+02  0.51100000000E-03 0. -1.
        -11    1    3    3    0    0  0.27244920852E+02 -0.60735579140E+01  0.22615160406E+02  0.35925190304E+02  0.51100000000E-03 0.  1.
        -12    1    3    3    0    0 -0.40881543872E+01  0.18190584634E+01 -0.78914130015E+01  0.90717351784E+01  0.00000000000E+00 0.  1.
</event>
<event>
 7    1  0.7674040E-012  0.5930200E+02  0.7816164E-02  0.1266605E+00
        -11   -1    0    0    0    0  0.00000000000E+00  0.00000000000E+00  0.45593999997E+02  0.45594000000E+02  0.51100000000E-03 0. -1.
         11   -1    0    0    0    0 -0.00000000000E+00 -0.00000000000E+00 -0.45593999997E+02  0.45594000000E+02  0.51100000000E-03 0.  1.
    9900012    2    1    2    0    0 -0.28833045176E+02 -0.13070749958E+02 -0.38115594281E+01  0.59302000190E+02  0.50000102426E+02 0.  0.
         12    1    1    2    0    0  0.28833045176E+02  0.13070749958E+02  0.38115594281E+01  0.31885999810E+02  0.00000000000E+00 0. -1.
         11    1    3    3    0    0 -0.20885639696E+02 -0.17637746317E+02 -0.89955509719E+00  0.27351585700E+02  0.51100000000E-03 0. -1.
        -11    1    3    3    0    0  0.70219845620E+00  0.39471579061E+01 -0.15864377697E+02  0.16363117618E+02  0.51100000000E-03 0.  1.
         12    1    3    3    0    0 -0.86496039360E+01  0.61983845256E+00  0.12952373366E+02  0.15587296872E+02  0.00000000000E+00 0. -1.
</event>
<event>
 7    1  0.7674040E-012  0.5930195E+02  0.7816164E-02  0.1266605E+00
        -11   -1    0    0    0    0  0.00000000000E+00  0.00000000000E+00  0.45593999997E+02  0.45594000000E+02  0.51100000000E-03 0.  1.
         11   -1    0    0    0    0 -0.00000000000E+00 -0.00000000000E+00 -0.45593999997E+02  0.45594000000E+02  0.51100000000E-03 0. -1.
    9900012    2    1    2    0    0  0.29101905235E+02  0.46279804855E+01  0.12181167139E+02  0.59301954078E+02  0.50000018330E+02 0.  0.
         12    1    1    2    0    0 -0.29101905235E+02 -0.46279804855E+01 -0.12181167139E+02  0.31886045922E+02  0.00000000000E+00 0. -1.
         11    1    3    3    0    0 -0.74315062630E+01 -0.10474354157E+02 -0.65372237405E+01  0.14410922067E+02  0.51100000000E-03 0. -1.
        -11    1    3    3    0    0  0.22632983193E+02  0.11130857372E+02  0.67145833697E+01  0.26100451033E+02  0.51100000000E-03 0.  1.
         12    1    3    3    0    0  0.13900428305E+02  0.39714772703E+01  0.12003807509E+02  0.18790580978E+02  0.00000000000E+00 0. -1.
</event>
<event>
 7    1  0.7674040E-012  0.5930195E+02  0.7816164E-02  0.1266605E+00
        -11   -1    0    0    0    0  0.00000000000E+00  0.00000000000E+00  0.45593999997E+02  0.45594000000E+02  0.51100000000E-03 0.  1.
         11   -1    0    0    0    0 -0.00000000000E+00 -0.00000000000E+00 -0.45593999997E+02  0.45594000000E+02  0.51100000000E-03 0. -1.
    9900012    2    1    2    0    0 -0.10953185526E+02  0.25179388620E+02  0.16209448407E+02  0.59301951294E+02  0.50000013252E+02 0.  0.
         12    1    1    2    0    0  0.10953185526E+02 -0.25179388620E+02 -0.16209448407E+02  0.31886048706E+02  0.00000000000E+00 0. -1.
         11    1    3    3    0    0 -0.19840137619E+00  0.53846267481E+01  0.13241370230E+02  0.14295714538E+02  0.51100000000E-03 0. -1.
        -11    1    3    3    0    0  0.97990913797E+01  0.18942305738E+02 -0.65912263827E+01  0.22322128125E+02  0.51100000000E-03 0.  1.
        -12    1    3    3    0    0 -0.20553875529E+02  0.85245613380E+00  0.95593045594E+01  0.22684108631E+02  0.00000000000E+00 0.  1.
</event>
<event>
 7    1  0.7674040E-012  0.5930195E+02  0.7816164E-02  0.1266605E+00
        -11   -1    0    0    0    0  0.00000000000E+00  0.00000000000E+00  0.45593999997E+02  0.45594000000E+02  0.51100000000E-03 0.  1.
         11   -1    0    0    0    0 -0.00000000000E+00 -0.00000000000E+00 -0.45593999997E+02  0.45594000000E+02  0.51100000000E-03 0. -1.
    9900012    2    1    2    0    0 -0.26911516758E+02 -0.94193037654E+01  0.14274705787E+02  0.59301949085E+02  0.50000009223E+02 0.  0.
         12    1    1    2    0    0  0.26911516758E+02  0.94193037654E+01 -0.14274705787E+02  0.31886050915E+02  0.00000000000E+00 0. -1.
         11    1    3    3    0    0 -0.15778603081E+02 -0.10635892790E+01 -0.34168452892E+00  0.15818099946E+02  0.51100000000E-03 0. -1.
        -11    1    3    3    0    0  0.12093463382E+02  0.61039799723E+01  0.38604725077E+01  0.14085938957E+02  0.51100000000E-03 0.  1.
        -12    1    3    3    0    0 -0.23226377059E+02 -0.14459694459E+02  0.10755917809E+02  0.29397910181E+02  0.00000000000E+00 0.  1.
</event>
<event>
 7    1  0.7674040E-012  0.5930196E+02  0.7816164E-02  0.1266605E+00
        -11   -1    0    0    0    0  0.00000000000E+00  0.00000000000E+00  0.45593999997E+02  0.45594000000E+02  0.51100000000E-03 0. -1.
         11   -1    0    0    0    0 -0.00000000000E+00 -0.00000000000E+00 -0.45593999997E+02  0.45594000000E+02  0.51100000000E-03 0.  1.
    9900012    2    1    2    0    0  0.21480068482E+02 -0.12690929773E+02 -0.19856145908E+02  0.59301959625E+02  0.50000028445E+02 0.  0.
         12    1    1    2    0    0 -0.21480068482E+02  0.12690929773E+02  0.19856145908E+02  0.31886040375E+02  0.00000000000E+00 0. -1.
         11    1    3    3    0    0  0.36105110427E+02 -0.34920676350E+01 -0.80264319888E+01  0.37151004644E+02  0.51100000000E-03 0. -1.
        -11    1    3    3    0    0 -0.91175071847E+01 -0.89308345293E+01 -0.59221077724E+01  0.14069829543E+02  0.51100000000E-03 0.  1.
         12    1    3    3    0    0 -0.55075347610E+01 -0.26802760856E+00 -0.59076061472E+01  0.80811254373E+01  0.00000000000E+00 0. -1.
</event>
<event>
 7    1  0.7674040E-012  0.5930195E+02  0.7816164E-02  0.1266605E+00
        -11   -1    0    0    0    0  0.00000000000E+00  0.00000000000E+00  0.45593999997E+02  0.45594000000E+02  0.51100000000E-03 0. -1.
         11   -1    0    0    0    0 -0.00000000000E+00 -0.00000000000E+00 -0.45593999997E+02  0.45594000000E+02  0.51100000000E-03 0.  1.
    9900012    2    1    2    0    0 -0.29844017588E+02 -0.31710954217E+01 -0.10770267421E+02  0.59301954583E+02  0.50000019251E+02 0.  0.
         12    1    1    2    0    0  0.29844017588E+02  0.31710954217E+01  0.10770267421E+02  0.31886045417E+02  0.00000000000E+00 0. -1.
         11    1    3    3    0    0  0.10929650201E+01 -0.42737518070E+01  0.16854982646E+02  0.17422685421E+02  0.51100000000E-03 0. -1.
        -11    1    3    3    0    0 -0.19550400514E+02 -0.90510914102E-01 -0.13807963434E+02  0.23935041403E+02  0.51100000000E-03 0.  1.
         12    1    3    3    0    0 -0.11386582094E+02  0.11931672994E+01 -0.13817286633E+02  0.17944227759E+02  0.00000000000E+00 0. -1.
</event>
<event>
 7    1  0.7674040E-012  0.5930194E+02  0.7816164E-02  0.1266605E+00
        -11   -1    0    0    0    0  0.00000000000E+00  0.00000000000E+00  0.45593999997E+02  0.45594000000E+02  0.51100000000E-03 0.  1.
         11   -1    0    0    0    0 -0.00000000000E+00 -0.00000000000E+00 -0.45593999997E+02  0.45594000000E+02  0.51100000000E-03 0. -1.
    9900012    2    1    2    0    0  0.10562520729E+02  0.24610646675E+02  0.17305209894E+02  0.59301936220E+02  0.49999985760E+02 0.  0.
         12    1    1    2    0    0 -0.10562520729E+02 -0.24610646675E+02 -0.17305209894E+02  0.31886063780E+02  0.00000000000E+00 0. -1.
         11    1    3    3    0    0 -0.81432075356E+01 -0.19092083044E+01  0.12015926182E+02  0.14640334272E+02  0.51100000000E-03 0. -1.
        -11    1    3    3    0    0  0.12355533689E+02  0.34925888776E+01 -0.10022729125E+02  0.16288415797E+02  0.51100000000E-03 0.  1.
        -12    1    3    3    0    0  0.63501945762E+01  0.23027266102E+02  0.15312012837E+02  0.28373186152E+02  0.00000000000E+00 0.  1.
</event>
<event>
 7    1  0.7674040E-012  0.5930195E+02  0.7816164E-02  0.1266605E+00
        -11   -1    0    0    0    0  0.00000000000E+00  0.00000000000E+00  0.45593999997E+02  0.45594000000E+02  0.51100000000E-03 0. -1.
         11   -1    0    0    0    0 -0.00000000000E+00 -0.00000000000E+00 -0.45593999997E+02  0.45594000000E+02  0.51100000000E-03 0.  1.
    9900012    2    1    2    0    0 -0.75258198880E+01  0.14980841877E+02 -0.27122993989E+02  0.59301946760E+02  0.50000004982E+02 0.  0.
         12    1    1    2    0    0  0.75258198880E+01 -0.14980841877E+02  0.27122993989E+02  0.31886053240E+02  0.00000000000E+00 0. -1.
         11    1    3    3    0    0  0.12809882326E+02  0.56150472798E+01 -0.55867403357E+01  0.15060992962E+02  0.51100000000E-03 0. -1.
        -11    1    3    3    0    0 -0.14935567387E+02 -0.27354708249E+01 -0.26125342272E+02  0.30217337456E+02  0.51100000000E-03 0.  1.
        -12    1    3    3    0    0 -0.54001348270E+01  0.12101265422E+02  0.45890886193E+01  0.14023616342E+02  0.00000000000E+00 0.  1.
</event>
<event>
 7    1  0.7674040E-012  0.5930196E+02  0.7816164E-02  0.1266605E+00
        -11   -1    0    0    0    0  0.00000000000E+00  0.00000000000E+00  0.45593999997E+02  0.45594000000E+02  0.51100000000E-03 0. -1.
         11   -1    0    0    0    0 -0.00000000000E+00 -0.00000000000E+00 -0.45593999997E+02  0.45594000000E+02  0.51100000000E-03 0.  1.
    9900012    2    1    2    0    0  0.26493907304E+02 -0.11410692181E+01 -0.17705664117E+02  0.59301957520E+02  0.50000024607E+02 0.  0.
         12    1    1    2    0    0 -0.26493907304E+02  0.11410692181E+01  0.17705664117E+02  0.31886042480E+02  0.00000000000E+00 0. -1.
         11    1    3    3    0    0 -0.74412095932E+01 -0.76110358072E+01 -0.11186250183E+02  0.15441232454E+02  0.51100000000E-03 0. -1.
        -11    1    3    3    0    0  0.16266014422E+02 -0.93441963945E+01  0.15249930948E+01  0.18820808580E+02  0.51100000000E-03 0.  1.
         12    1    3    3    0    0  0.17669102476E+02  0.15814162984E+02 -0.80444070291E+01  0.25039916486E+02  0.00000000000E+00 0. -1.
</event>
<event>
 7    1  0.7674040E-012  0.5930196E+02  0.7816164E-02  0.1266605E+00
        -11   -1    0    0    0    0  0.00000000000E+00  0.00000000000E+00  0.45593999997E+02  0.45594000000E+02  0.51100000000E-03 0.  1.
         11   -1    0    0    0    0 -0.00000000000E+00 -0.00000000000E+00 -0.45593999997E+02  0.45594000000E+02  0.51100000000E-03 0. -1.
    9900012    2    1    2    0    0  0.25651901099E+02 -0.13592179343E+02 -0.13189098140E+02  0.59301957928E+02  0.50000025351E+02 0.  0.
         12    1    1    2    0    0 -0.25651901099E+02  0.13592179343E+02  0.13189098140E+02  0.31886042072E+02  0.00000000000E+00 0. -1.
         11    1    3    3    0    0  0.20198348616E+02  0.11024097116E+02 -0.20557006448E+02  0.30856028883E+02  0.51100000000E-03 0. -1.
        -11    1    3    3    0    0  0.27933510735E+01 -0.64130864368E+01  0.72143460156E+01  0.10048745024E+02  0.51100000000E-03 0.  1.
         12    1    3    3    0    0  0.26602014092E+01 -0.18203190022E+02  0.15356229292E+00  0.18397184021E+02  0.00000000000E+00 0. -1.
</event>
<event>
 7    1  0.7674040E-012  0.5930194E+02  0.7816164E-02  0.1266605E+00
        -11   -1    0    0    0    0  0.00000000000E+00  0.00000000000E+00  0.45593999997E+02  0.45594000000E+02  0.51100000000E-03 0.  1.
         11   -1    0    0    0    0 -0.00000000000E+00 -0.00000000000E+00 -0.45593999997E+02  0.45594000000E+02  0.51100000000E-03 0. -1.
    9900012    2    1    2    0    0 -0.27405355669E+01  0.28236373231E+02  0.14557389292E+02  0.59301938917E+02  0.49999990679E+02 0.  0.
         12    1    1    2    0    0  0.27405355669E+01 -0.28236373231E+02 -0.14557389292E+02  0.31886061083E+02  0.00000000000E+00 0. -1.
         11    1    3    3    0    0 -0.15468862013E+02 -0.21085608604E+01  0.15710837342E+02  0.22148637230E+02  0.51100000000E-03 0. -1.
        -11    1    3    3    0    0  0.79205039457E+01  0.80250123872E+01  0.65707014566E+01  0.13050261471E+02  0.51100000000E-03 0.  1.
         12    1    3    3    0    0  0.48078225001E+01  0.22319921704E+02 -0.77241495074E+01  0.24103040216E+02  0.00000000000E+00 0. -1.
</event>
<event>
 7    1  0.7674040E-012  0.5930199E+02  0.7816164E-02  0.1266605E+00
        -11   -1    0    0    0    0  0.00000000000E+00  0.00000000000E+00  0.45593999997E+02  0.45594000000E+02  0.51100000000E-03 0.  1.
         11   -1    0    0    0    0 -0.00000000000E+00 -0.00000000000E+00 -0.45593999997E+02  0.45594000000E+02  0.51100000000E-03 0. -1.
    9900012    2    1    2    0    0 -0.12750224314E+02  0.21584111959E+02  0.19704708195E+02  0.59301989993E+02  0.50000083830E+02 0.  0.
         12    1    1    2    0    0  0.12750224314E+02 -0.21584111959E+02 -0.19704708195E+02  0.31886010007E+02  0.00000000000E+00 0. -1.
         11    1    3    3    0    0  0.61416294117E+00 -0.48373242031E+01  0.10766927956E+02  0.11819629412E+02  0.51100000000E-03 0. -1.
        -11    1    3    3    0    0 -0.22076256237E+02  0.62181611403E+01 -0.17894534573E+01  0.23004972535E+02  0.51100000000E-03 0.  1.
        -12    1    3    3    0    0  0.87118689820E+01  0.20203275022E+02  0.10727233696E+02  0.24477388046E+02  0.00000000000E+00 0.  1.
</event>
<event>
 7    1  0.7674040E-012  0.5930183E+02  0.7816164E-02  0.1266605E+00
        -11   -1    0    0    0    0  0.00000000000E+00  0.00000000000E+00  0.45593999997E+02  0.45594000000E+02  0.51100000000E-03 0.  1.
         11   -1    0    0    0    0 -0.00000000000E+00 -0.00000000000E+00 -0.45593999997E+02  0.45594000000E+02  0.51100000000E-03 0. -1.
    9900012    2    1    2    0    0  0.44112395474E+00  0.22047922693E+02  0.23030896396E+02  0.59301832557E+02  0.49999796703E+02 0.  0.
         12    1    1    2    0    0 -0.44112395474E+00 -0.22047922693E+02 -0.23030896396E+02  0.31886167443E+02  0.00000000000E+00 0. -1.
         11    1    3    3    0    0  0.52564357687E+01  0.18037928704E+02 -0.74947437677E+01  0.20227905806E+02  0.51100000000E-03 0. -1.
        -11    1    3    3    0    0  0.80022297256E+01  0.76433145047E+01  0.14166492588E+02  0.17976246819E+02  0.51100000000E-03 0.  1.
         12    1    3    3    0    0 -0.12817541540E+02 -0.36333205151E+01  0.16359147576E+02  0.21097679931E+02  0.00000000000E+00 0. -1.
</event>
<event>
 7    1  0.7674040E-012  0.5930197E+02  0.7816164E-02  0.1266605E+00
        -11   -1    0    0    0    0  0.00000000000E+00  0.00000000000E+00  0.45593999997E+02  0.45594000000E+02  0.51100000000E-03 0.  1.
         11   -1    0    0    0    0 -0.00000000000E+00 -0.00000000000E+00 -0.45593999997E+02  0.45594000000E+02  0.51100000000E-03 0. -1.
    9900012    2    1    2    0    0  0.23891548578E+02 -0.16856247036E+02  0.12719268813E+02  0.59301969254E+02  0.50000046007E+02 0.  0.
         12    1    1    2    0    0 -0.23891548578E+02  0.16856247036E+02 -0.12719268813E+02  0.31886030746E+02  0.00000000000E+00 0. -1.
         11    1    3    3    0    0  0.70238115158E+01 -0.42618820954E+01 -0.16468330043E+02  0.18403898007E+02  0.51100000000E-03 0. -1.
        -11    1    3    3    0    0  0.68367861206E+00 -0.10013427736E+02  0.19310915527E+02  0.21763446653E+02  0.51100000000E-03 0.  1.
        -12    1    3    3    0    0  0.16184058450E+02 -0.25809372047E+01  0.98766833291E+01  0.19134624594E+02  0.00000000000E+00 0.  1.
</event>
<event>
 7    1  0.7674040E-012  0.5930191E+02  0.7816164E-02  0.1266605E+00
        -11   -1    0    0    0    0  0.00000000000E+00  0.00000000000E+00  0.45593999997E+02  0.45594000000E+02  0.51100000000E-03 0. -1.
         11   -1    0    0    0    0 -0.00000000000E+00 -0.00000000000E+00 -0.45593999997E+02  0.45594000000E+02  0.51100000000E-03 0.  1.
    9900012    2    1    2    0    0  0.28219498264E+01 -0.25792988159E+02 -0.18533237170E+02  0.59301913395E+02  0.49999944132E+02 0.  0.
         12    1    1    2    0    0 -0.28219498264E+01  0.25792988159E+02  0.18533237170E+02  0.31886086605E+02  0.00000000000E+00 0. -1.
         11    1    3    3    0    0  0.20833948662E+00  0.55949651852E+01  0.37568060462E+01  0.67424500513E+01  0.51100000000E-03 0. -1.
        -11    1    3    3    0    0  0.28536709799E+01 -0.39408529118E+02 -0.19521345352E+02  0.44071062274E+02  0.51100000000E-03 0.  1.
        -12    1    3    3    0    0 -0.24006064011E+00  0.80205757738E+01 -0.27686978643E+01  0.84884010696E+01  0.00000000000E+00 0.  1.
</event>
<event>
 7    1  0.7674040E-012  0.5930190E+02  0.7816164E-02  0.1266605E+00
        -11   -1    0    0    0    0  0.00000000000E+00  0.00000000000E+00  0.45593999997E+02  0.45594000000E+02  0.51100000000E-03 0.  1.
         11   -1    0    0    0    0 -0.00000000000E+00 -0.00000000000E+00 -0.45593999997E+02  0.45594000000E+02  0.51100000000E-03 0. -1.
    9900012    2    1    2    0    0 -0.12596838673E+01 -0.25063994634E+02 -0.19670604562E+02  0.59301900924E+02  0.49999921389E+02 0.  0.
         12    1    1    2    0    0  0.12596838673E+01  0.25063994634E+02  0.19670604562E+02  0.31886099076E+02  0.00000000000E+00 0. -1.
         11    1    3    3    0    0 -0.52904365298E+01  0.21649095046E+01 -0.48908841271E+00  0.57371386227E+01  0.51100000000E-03 0. -1.
        -11    1    3    3    0    0  0.20343182146E+00 -0.31482913891E+02  0.20746190588E+01  0.31551850913E+02  0.51100000000E-03 0.  1.
        -12    1    3    3    0    0  0.38273208411E+01  0.42540097526E+01 -0.21256135208E+02  0.22012911388E+02  0.00000000000E+00 0.  1.
</event>
<event>
 7    1  0.7674040E-012  0.5930197E+02  0.7816164E-02  0.1266605E+00
        -11   -1    0    0    0    0  0.00000000000E+00  0.00000000000E+00  0.45593999997E+02  0.45594000000E+02  0.51100000000E-03 0. -1.
         11   -1    0    0    0    0 -0.00000000000E+00 -0.00000000000E+00 -0.45593999997E+02  0.45594000000E+02  0.51100000000E-03 0.  1.
    9900012    2    1    2    0    0  0.25021190753E+02 -0.94646792522E+01 -0.17351627199E+02  0.59301966906E+02  0.50000041724E+02 0.  0.
         12    1    1    2    0    0 -0.25021190753E+02  0.94646792522E+01  0.17351627199E+02  0.31886033094E+02  0.00000000000E+00 0. -1.
         11    1    3    3    0    0 -0.95222897650E+01  0.16440219553E+01  0.56020173122E+01  0.11169575139E+02  0.51100000000E-03 0. -1.
        -11    1    3    3    0    0  0.33472765985E+02 -0.16117803116E+02 -0.20782171717E+02  0.42568865400E+02  0.51100000000E-03 0.  1.
        -12    1    3    3    0    0  0.10707145329E+01  0.50091019080E+01 -0.21714727940E+01  0.55635263665E+01  0.00000000000E+00 0.  1.
</event>
<event>
 7    1  0.7674040E-012  0.5930198E+02  0.7816164E-02  0.1266605E+00
        -11   -1    0    0    0    0  0.00000000000E+00  0.00000000000E+00  0.45593999997E+02  0.45594000000E+02  0.51100000000E-03 0. -1.
         11   -1    0    0    0    0 -0.00000000000E+00 -0.00000000000E+00 -0.45593999997E+02  0.45594000000E+02  0.51100000000E-03 0.  1.
    9900012    2    1    2    0    0  0.95142692891E+01 -0.28322619035E+02  0.11136699404E+02  0.59301982018E+02  0.50000069286E+02 0.  0.
         12    1    1    2    0    0 -0.95142692891E+01  0.28322619035E+02 -0.11136699404E+02  0.31886017982E+02  0.00000000000E+00 0. -1.
         11    1    3    3    0    0  0.19143573599E+02 -0.26149457754E+02 -0.11603950374E+02  0.34422699132E+02  0.51100000000E-03 0.  1.
        -11    1    3    3    0    0 -0.83736299573E+01 -0.11159112439E+01  0.18832226690E+02  0.20640147745E+02  0.51100000000E-03 0. -1.
        -12    1    3    3    0    0 -0.12556743521E+01 -0.10572500368E+01  0.39084230881E+01  0.42391351422E+01  0.00000000000E+00 0.  1.
</event>
<event>
 7    1  0.7674040E-012  0.5930193E+02  0.7816164E-02  0.1266605E+00
        -11   -1    0    0    0    0  0.00000000000E+00  0.00000000000E+00  0.45593999997E+02  0.45594000000E+02  0.51100000000E-03 0.  1.
         11   -1    0    0    0    0 -0.00000000000E+00 -0.00000000000E+00 -0.45593999997E+02  0.45594000000E+02  0.51100000000E-03 0. -1.
    9900012    2    1    2    0    0  0.16165383529E+02 -0.26723973524E+02 -0.64211233294E+01  0.59301933915E+02  0.49999981556E+02 0.  0.
         12    1    1    2    0    0 -0.16165383529E+02  0.26723973524E+02  0.64211233294E+01  0.31886066085E+02  0.00000000000E+00 0. -1.
         11    1    3    3    0    0  0.43835179307E+01 -0.59483127684E+01 -0.19495786338E+02  0.20849060877E+02  0.51100000000E-03 0. -1.
        -11    1    3    3    0    0  0.11958178547E+02  0.23953279605E+01  0.84155285955E+01  0.14817447554E+02  0.51100000000E-03 0.  1.
        -12    1    3    3    0    0 -0.17631294852E+00 -0.23170988717E+02  0.46591344131E+01  0.23635425485E+02  0.00000000000E+00 0.  1.
</event>
<event>
 7    1  0.7674040E-012  0.5930191E+02  0.7816164E-02  0.1266605E+00
        -11   -1    0    0    0    0  0.00000000000E+00  0.00000000000E+00  0.45593999997E+02  0.45594000000E+02  0.51100000000E-03 0.  1.
         11   -1    0    0    0    0 -0.00000000000E+00 -0.00000000000E+00 -0.45593999997E+02  0.45594000000E+02  0.51100000000E-03 0. -1.
    9900012    2    1    2    0    0  0.12816494944E+02  0.81607788437E+01  0.28033228093E+02  0.59301910066E+02  0.49999938062E+02 0.  0.
         12    1    1    2    0    0 -0.12816494944E+02 -0.81607788437E+01 -0.28033228093E+02  0.31886089934E+02  0.00000000000E+00 0. -1.
         11    1    3    3    0    0 -0.12764401589E+02  0.65129584309E+01  0.80399576602E+01  0.16431357062E+02  0.51100000000E-03 0. -1.
        -11    1    3    3    0    0  0.15819734388E+02  0.13497936833E+02  0.49508590122E+01  0.21376840274E+02  0.51100000000E-03 0.  1.
         12    1    3    3    0    0  0.97611621451E+01 -0.11850116420E+02  0.15042411420E+02  0.21493712730E+02  0.00000000000E+00 0. -1.
</event>
<event>
 7    1  0.7674040E-012  0.5930227E+02  0.7816164E-02  0.1266604E+00
        -11   -1    0    0    0    0  0.00000000000E+00  0.00000000000E+00  0.45593999997E+02  0.45594000000E+02  0.51100000000E-03 0. -1.
         11   -1    0    0    0    0 -0.00000000000E+00 -0.00000000000E+00 -0.45593999997E+02  0.45594000000E+02  0.51100000000E-03 0.  1.
    9900012    2    1    2    0    0  0.98274586658E+01  0.27983769728E+02  0.11705968551E+02  0.59302266329E+02  0.50000587797E+02 0.  0.
         12    1    1    2    0    0 -0.98274586658E+01 -0.27983769728E+02 -0.11705968551E+02  0.31885733671E+02  0.00000000000E+00 0. -1.
         11    1    3    3    0    0 -0.50604010789E+00 -0.28027113790E+01  0.12295726268E+02  0.12621257955E+02  0.51100000000E-03 0. -1.
        -11    1    3    3    0    0  0.18727545217E+02  0.10283575625E+02 -0.87275253475E+01  0.23079050596E+02  0.51100000000E-03 0.  1.
        -12    1    3    3    0    0 -0.83940464432E+01  0.20502905482E+02  0.81377676308E+01  0.23601957777E+02  0.00000000000E+00 0.  1.
</event>
<event>
 7    1  0.7674040E-012  0.5930193E+02  0.7816164E-02  0.1266605E+00
        -11   -1    0    0    0    0  0.00000000000E+00  0.00000000000E+00  0.45593999997E+02  0.45594000000E+02  0.51100000000E-03 0.  1.
         11   -1    0    0    0    0 -0.00000000000E+00 -0.00000000000E+00 -0.45593999997E+02  0.45594000000E+02  0.51100000000E-03 0. -1.
    9900012    2    1    2    0    0  0.15380718987E+02 -0.22922996077E+02  0.15959057216E+02  0.59301925094E+02  0.49999965469E+02 0.  0.
         12    1    1    2    0    0 -0.15380718987E+02  0.22922996077E+02 -0.15959057216E+02  0.31886074906E+02  0.00000000000E+00 0. -1.
         11    1    3    3    0    0  0.95663669835E+01  0.93944727457E+01  0.15368576078E+02  0.20395210868E+02  0.51100000000E-03 0. -1.
        -11    1    3    3    0    0 -0.43580060437E+01 -0.22467382237E+02 -0.54278020690E+01  0.23520980354E+02  0.51100000000E-03 0.  1.
         12    1    3    3    0    0  0.10172358048E+02 -0.98500865854E+01  0.60182832069E+01  0.15385733871E+02  0.00000000000E+00 0. -1.
</event>
<event>
 7    1  0.7674040E-012  0.5930172E+02  0.7816164E-02  0.1266606E+00
        -11   -1    0    0    0    0  0.00000000000E+00  0.00000000000E+00  0.45593999997E+02  0.45594000000E+02  0.51100000000E-03 0.  1.
         11   -1    0    0    0    0 -0.00000000000E+00 -0.00000000000E+00 -0.45593999997E+02  0.45594000000E+02  0.51100000000E-03 0. -1.
    9900012    2    1    2    0    0 -0.25202220811E+02  0.14828803606E+02  0.12715720440E+02  0.59301719306E+02  0.49999590159E+02 0.  0.
         12    1    1    2    0    0  0.25202220811E+02 -0.14828803606E+02 -0.12715720440E+02  0.31886280694E+02  0.00000000000E+00 0. -1.
         11    1    3    3    0    0 -0.24402603665E+02 -0.12934654563E+02 -0.59332755633E+00  0.27625068184E+02  0.51100000000E-03 0. -1.
        -11    1    3    3    0    0 -0.30633065348E+01  0.19713918386E+02  0.11802624590E+02  0.23180258250E+02  0.51100000000E-03 0.  1.
         12    1    3    3    0    0  0.22636893889E+01  0.80495397826E+01  0.15064234063E+01  0.84963928723E+01  0.00000000000E+00 0. -1.
</event>
<event>
 7    1  0.7674040E-012  0.5930195E+02  0.7816164E-02  0.1266605E+00
        -11   -1    0    0    0    0  0.00000000000E+00  0.00000000000E+00  0.45593999997E+02  0.45594000000E+02  0.51100000000E-03 0.  1.
         11   -1    0    0    0    0 -0.00000000000E+00 -0.00000000000E+00 -0.45593999997E+02  0.45594000000E+02  0.51100000000E-03 0. -1.
    9900012    2    1    2    0    0  0.62509822153E+01  0.28161719831E+01  0.31140242332E+02  0.59301948256E+02  0.50000007712E+02 0.  0.
         12    1    1    2    0    0 -0.62509822153E+01 -0.28161719831E+01 -0.31140242332E+02  0.31886051744E+02  0.00000000000E+00 0. -1.
         11    1    3    3    0    0  0.17825203628E+02 -0.13129579802E+01 -0.94448745747E+00  0.17898430095E+02  0.51100000000E-03 0. -1.
        -11    1    3    3    0    0 -0.10666971024E+02  0.12515746781E+01  0.35357178122E+02  0.36952412032E+02  0.51100000000E-03 0.  1.
         12    1    3    3    0    0 -0.90725038878E+00  0.28775552853E+01 -0.32724483319E+01  0.44511061291E+01  0.00000000000E+00 0. -1.
</event>
<event>
 7    1  0.7674040E-012  0.5930204E+02  0.7816164E-02  0.1266604E+00
        -11   -1    0    0    0    0  0.00000000000E+00  0.00000000000E+00  0.45593999997E+02  0.45594000000E+02  0.51100000000E-03 0.  1.
         11   -1    0    0    0    0 -0.00000000000E+00 -0.00000000000E+00 -0.45593999997E+02  0.45594000000E+02  0.51100000000E-03 0. -1.
    9900012    2    1    2    0    0  0.10934900028E+02  0.27626340615E+02  0.11572713032E+02  0.59302040373E+02  0.50000175710E+02 0.  0.
         12    1    1    2    0    0 -0.10934900028E+02 -0.27626340615E+02 -0.11572713032E+02  0.31885959627E+02  0.00000000000E+00 0. -1.
         11    1    3    3    0    0  0.13592374199E+02  0.30567836090E+02  0.12529776025E+02  0.35723109147E+02  0.51100000000E-03 0. -1.
        -11    1    3    3    0    0 -0.75017500498E+01  0.79190798249E+00  0.90927165547E+01  0.11814434674E+02  0.51100000000E-03 0.  1.
         12    1    3    3    0    0  0.48442758786E+01 -0.37334034577E+01 -0.10049779548E+02  0.11764496552E+02  0.00000000000E+00 0. -1.
</event>
<event>
 7    1  0.7674040E-012  0.5930196E+02  0.7816164E-02  0.1266605E+00
        -11   -1    0    0    0    0  0.00000000000E+00  0.00000000000E+00  0.45593999997E+02  0.45594000000E+02  0.51100000000E-03 0.  1.
         11   -1    0    0    0    0 -0.00000000000E+00 -0.00000000000E+00 -0.45593999997E+02  0.45594000000E+02  0.51100000000E-03 0. -1.
    9900012    2    1    2    0    0 -0.20414508098E+02  0.23317505000E+02  0.75007469834E+01  0.59301962528E+02  0.50000033741E+02 0.  0.
         12    1    1    2    0    0  0.20414508098E+02 -0.23317505000E+02 -0.75007469834E+01  0.31886037472E+02  0.00000000000E+00 0. -1.
         11    1    3    3    0    0  0.64230745591E+01 -0.58142168250E+00  0.32982829388E+01  0.72437979383E+01  0.51100000000E-03 0. -1.
        -11    1    3    3    0    0 -0.32836761340E+02  0.69119203575E+01 -0.12879607512E-01  0.33556336279E+02  0.51100000000E-03 0.  1.
        -12    1    3    3    0    0  0.59991786824E+01  0.16987006325E+02  0.42153436521E+01  0.18501828311E+02  0.00000000000E+00 0.  1.
</event>
<event>
 7    1  0.7674040E-012  0.5930195E+02  0.7816164E-02  0.1266605E+00
        -11   -1    0    0    0    0  0.00000000000E+00  0.00000000000E+00  0.45593999997E+02  0.45594000000E+02  0.51100000000E-03 0.  1.
         11   -1    0    0    0    0 -0.00000000000E+00 -0.00000000000E+00 -0.45593999997E+02  0.45594000000E+02  0.51100000000E-03 0. -1.
    9900012    2    1    2    0    0 -0.67108864016E+01 -0.58286740520E+01  0.30622065694E+02  0.59301947487E+02  0.50000006309E+02 0.  0.
         12    1    1    2    0    0  0.67108864016E+01  0.58286740520E+01 -0.30622065694E+02  0.31886052513E+02  0.00000000000E+00 0. -1.
         11    1    3    3    0    0  0.18582512455E+02 -0.42237460444E+01  0.16676897384E+02  0.25323283879E+02  0.51100000000E-03 0. -1.
        -11    1    3    3    0    0 -0.55313080515E+01  0.52943136048E+01  0.10136329011E+02  0.12703160685E+02  0.51100000000E-03 0.  1.
         12    1    3    3    0    0 -0.19762090805E+02 -0.68992416124E+01  0.38088392990E+01  0.21275502923E+02  0.00000000000E+00 0. -1.
</event>
<event>
 7    1  0.7674040E-012  0.5930194E+02  0.7816164E-02  0.1266605E+00
        -11   -1    0    0    0    0  0.00000000000E+00  0.00000000000E+00  0.45593999997E+02  0.45594000000E+02  0.51100000000E-03 0. -1.
         11   -1    0    0    0    0 -0.00000000000E+00 -0.00000000000E+00 -0.45593999997E+02  0.45594000000E+02  0.51100000000E-03 0.  1.
    9900012    2    1    2    0    0  0.10227551442E+02  0.29945436344E+02 -0.39228689868E+01  0.59301939293E+02  0.49999991365E+02 0.  0.
         12    1    1    2    0    0 -0.10227551442E+02 -0.29945436344E+02  0.39228689868E+01  0.31886060707E+02  0.00000000000E+00 0. -1.
         11    1    3    3    0    0 -0.96837546551E+01  0.16089842749E+02 -0.11263654065E+02  0.21898128849E+02  0.51100000000E-03 0. -1.
        -11    1    3    3    0    0  0.21954779925E+02  0.18959669065E+02  0.10196498460E+01  0.29026213991E+02  0.51100000000E-03 0.  1.
        -12    1    3    3    0    0 -0.20434738276E+01 -0.51040754706E+01  0.63211352325E+01  0.83775964525E+01  0.00000000000E+00 0.  1.
</event>
<event>
 7    1  0.7674040E-012  0.5930194E+02  0.7816164E-02  0.1266605E+00
        -11   -1    0    0    0    0  0.00000000000E+00  0.00000000000E+00  0.45593999997E+02  0.45594000000E+02  0.51100000000E-03 0.  1.
         11   -1    0    0    0    0 -0.00000000000E+00 -0.00000000000E+00 -0.45593999997E+02  0.45594000000E+02  0.51100000000E-03 0. -1.
    9900012    2    1    2    0    0 -0.97900757719E+01 -0.13965070672E+02  0.26941640893E+02  0.59301940405E+02  0.49999993393E+02 0.  0.
         12    1    1    2    0    0  0.97900757719E+01  0.13965070672E+02 -0.26941640893E+02  0.31886059595E+02  0.00000000000E+00 0. -1.
         11    1    3    3    0    0 -0.71876307006E+01 -0.28931774891E+01  0.23142550284E+01  0.80863024720E+01  0.51100000000E-03 0. -1.
        -11    1    3    3    0    0 -0.95320304706E+01  0.13759196660E+02  0.18036221947E+02  0.24606511333E+02  0.51100000000E-03 0.  1.
        -12    1    3    3    0    0  0.69295853993E+01 -0.24831089843E+02  0.65911639180E+01  0.26609126600E+02  0.00000000000E+00 0.  1.
</event>
<event>
 7    1  0.7674040E-012  0.5930181E+02  0.7816164E-02  0.1266605E+00
        -11   -1    0    0    0    0  0.00000000000E+00  0.00000000000E+00  0.45593999997E+02  0.45594000000E+02  0.51100000000E-03 0.  1.
         11   -1    0    0    0    0 -0.00000000000E+00 -0.00000000000E+00 -0.45593999997E+02  0.45594000000E+02  0.51100000000E-03 0. -1.
    9900012    2    1    2    0    0 -0.24793361187E+02  0.13658287342E+02  0.14678872701E+02  0.59301813714E+02  0.49999762339E+02 0.  0.
         12    1    1    2    0    0  0.24793361187E+02 -0.13658287342E+02 -0.14678872701E+02  0.31886186286E+02  0.00000000000E+00 0. -1.
         11    1    3    3    0    0 -0.20888477105E+02  0.10225696883E+02 -0.13858206127E+01  0.23298365856E+02  0.51100000000E-03 0. -1.
        -11    1    3    3    0    0  0.12151118664E+02  0.90545368385E+01  0.65182942674E+01  0.16496135382E+02  0.51100000000E-03 0.  1.
        -12    1    3    3    0    0 -0.16056002746E+02 -0.56219463798E+01  0.95463990463E+01  0.19507312476E+02  0.00000000000E+00 0.  1.
</event>
<event>
 7    1  0.7674040E-012  0.5930199E+02  0.7816164E-02  0.1266605E+00
        -11   -1    0    0    0    0  0.00000000000E+00  0.00000000000E+00  0.45593999997E+02  0.45594000000E+02  0.51100000000E-03 0.  1.
         11   -1    0    0    0    0 -0.00000000000E+00 -0.00000000000E+00 -0.45593999997E+02  0.45594000000E+02  0.51100000000E-03 0. -1.
    9900012    2    1    2    0    0 -0.10489088808E+02 -0.19555358689E+02  0.22897262397E+02  0.59301989545E+02  0.50000083012E+02 0.  0.
         12    1    1    2    0    0  0.10489088808E+02  0.19555358689E+02 -0.22897262397E+02  0.31886010455E+02  0.00000000000E+00 0. -1.
         11    1    3    3    0    0 -0.64471884658E+01  0.63335466917E+01 -0.26524754251E+01  0.94189000925E+01  0.51100000000E-03 0. -1.
        -11    1    3    3    0    0  0.98968846433E+01 -0.26093381093E+02  0.11789024895E+02  0.30295114635E+02  0.51100000000E-03 0.  1.
        -12    1    3    3    0    0 -0.13938784986E+02  0.20447571192E+00  0.13760712927E+02  0.19587974817E+02  0.00000000000E+00 0.  1.
</event>
<event>
 7    1  0.7674040E-012  0.5930192E+02  0.7816164E-02  0.1266605E+00
        -11   -1    0    0    0    0  0.00000000000E+00  0.00000000000E+00  0.45593999997E+02  0.45594000000E+02  0.51100000000E-03 0.  1.
         11   -1    0    0    0    0 -0.00000000000E+00 -0.00000000000E+00 -0.45593999997E+02  0.45594000000E+02  0.51100000000E-03 0. -1.
    9900012    2    1    2    0    0 -0.21277986585E+02  0.74764365250E+01  0.22540454332E+02  0.59301923137E+02  0.49999961900E+02 0.  0.
         12    1    1    2    0    0  0.21277986585E+02 -0.74764365250E+01 -0.22540454332E+02  0.31886076863E+02  0.00000000000E+00 0. -1.
         11    1    3    3    0    0 -0.14474136303E+02  0.77110211739E+01 -0.11303802361E+02  0.19918243329E+02  0.51100000000E-03 0. -1.
        -11    1    3    3    0    0 -0.12495944814E+02  0.33282117869E+01  0.26139180670E+02  0.29163031339E+02  0.51100000000E-03 0.  1.
         12    1    3    3    0    0  0.56920945317E+01 -0.35627964359E+01  0.77050760233E+01  0.10220648469E+02  0.00000000000E+00 0. -1.
</event>
<event>
 7    1  0.7674040E-012  0.5930194E+02  0.7816164E-02  0.1266605E+00
        -11   -1    0    0    0    0  0.00000000000E+00  0.00000000000E+00  0.45593999997E+02  0.45594000000E+02  0.51100000000E-03 0. -1.
         11   -1    0    0    0    0 -0.00000000000E+00 -0.00000000000E+00 -0.45593999997E+02  0.45594000000E+02  0.51100000000E-03 0.  1.
    9900012    2    1    2    0    0 -0.38383102106E+01 -0.35118522082E+01 -0.31458787706E+02  0.59301936349E+02  0.49999985996E+02 0.  0.
         12    1    1    2    0    0  0.38383102106E+01  0.35118522082E+01  0.31458787706E+02  0.31886063651E+02  0.00000000000E+00 0. -1.
         11    1    3    3    0    0 -0.13992742028E+02  0.38068762857E+01 -0.40855403265E+01  0.15065881207E+02  0.51100000000E-03 0. -1.
        -11    1    3    3    0    0  0.64986734029E+01  0.11715708218E+01 -0.32839535472E+02  0.33496871860E+02  0.51100000000E-03 0.  1.
         12    1    3    3    0    0  0.36557584147E+01 -0.84902993156E+01  0.54662880919E+01  0.10739183282E+02  0.00000000000E+00 0. -1.
</event>
<event>
 7    1  0.7674040E-012  0.5930189E+02  0.7816164E-02  0.1266605E+00
        -11   -1    0    0    0    0  0.00000000000E+00  0.00000000000E+00  0.45593999997E+02  0.45594000000E+02  0.51100000000E-03 0. -1.
         11   -1    0    0    0    0 -0.00000000000E+00 -0.00000000000E+00 -0.45593999997E+02  0.45594000000E+02  0.51100000000E-03 0.  1.
    9900012    2    1    2    0    0 -0.12504352013E+02 -0.19542541638E+02 -0.21873593355E+02  0.59301892693E+02  0.49999906377E+02 0.  0.
         12    1    1    2    0    0  0.12504352013E+02  0.19542541638E+02  0.21873593355E+02  0.31886107307E+02  0.00000000000E+00 0. -1.
         11    1    3    3    0    0  0.69644689034E+01  0.56281847956E+01  0.56028602970E+01  0.10562780646E+02  0.51100000000E-03 0. -1.
        -11    1    3    3    0    0 -0.92089388567E+01  0.74454618366E+00 -0.16245972848E+02  0.18689316144E+02  0.51100000000E-03 0.  1.
        -12    1    3    3    0    0 -0.10259882060E+02 -0.25915272618E+02 -0.11230480804E+02  0.30049795903E+02  0.00000000000E+00 0.  1.
</event>
<event>
 7    1  0.7674040E-012  0.5930188E+02  0.7816164E-02  0.1266605E+00
        -11   -1    0    0    0    0  0.00000000000E+00  0.00000000000E+00  0.45593999997E+02  0.45594000000E+02  0.51100000000E-03 0. -1.
         11   -1    0    0    0    0 -0.00000000000E+00 -0.00000000000E+00 -0.45593999997E+02  0.45594000000E+02  0.51100000000E-03 0.  1.
    9900012    2    1    2    0    0 -0.80929987150E+01  0.23591128834E+02 -0.19866719580E+02  0.59301881786E+02  0.49999886486E+02 0.  0.
         12    1    1    2    0    0  0.80929987150E+01 -0.23591128834E+02  0.19866719580E+02  0.31886118214E+02  0.00000000000E+00 0. -1.
         11    1    3    3    0    0 -0.12887685191E+02  0.15979192799E+02 -0.57404704102E+01  0.21316191801E+02  0.51100000000E-03 0. -1.
        -11    1    3    3    0    0  0.12102199286E+02 -0.43179306685E+01 -0.19200877231E+02  0.23103710514E+02  0.51100000000E-03 0.  1.
         12    1    3    3    0    0 -0.73075128096E+01  0.11929866703E+02  0.50746280610E+01  0.14881979471E+02  0.00000000000E+00 0. -1.
</event>
<event>
 7    1  0.7674040E-012  0.5930196E+02  0.7816164E-02  0.1266605E+00
        -11   -1    0    0    0    0  0.00000000000E+00  0.00000000000E+00  0.45593999997E+02  0.45594000000E+02  0.51100000000E-03 0. -1.
         11   -1    0    0    0    0 -0.00000000000E+00 -0.00000000000E+00 -0.45593999997E+02  0.45594000000E+02  0.51100000000E-03 0.  1.
    9900012    2    1    2    0    0 -0.18416327657E+02  0.97146513755E-01 -0.26029766231E+02  0.59301963999E+02  0.50000036423E+02 0.  0.
         12    1    1    2    0    0  0.18416327657E+02 -0.97146513755E-01  0.26029766231E+02  0.31886036001E+02  0.00000000000E+00 0. -1.
         11    1    3    3    0    0 -0.26235701541E+01  0.85834049779E+01  0.89391096242E+01  0.12667503405E+02  0.51100000000E-03 0. -1.
        -11    1    3    3    0    0 -0.21594825774E+02 -0.42974316380E+01 -0.18798864028E+02  0.28951713384E+02  0.51100000000E-03 0.  1.
        -12    1    3    3    0    0  0.58020682714E+01 -0.41888268262E+01 -0.16170011827E+02  0.17682747210E+02  0.00000000000E+00 0.  1.
</event>
<event>
 7    1  0.7674040E-012  0.5930187E+02  0.7816164E-02  0.1266605E+00
        -11   -1    0    0    0    0  0.00000000000E+00  0.00000000000E+00  0.45593999997E+02  0.45594000000E+02  0.51100000000E-03 0.  1.
         11   -1    0    0    0    0 -0.00000000000E+00 -0.00000000000E+00 -0.45593999997E+02  0.45594000000E+02  0.51100000000E-03 0. -1.
    9900012    2    1    2    0    0 -0.92080940841E+01  0.35969811263E+01  0.30314975463E+02  0.59301874377E+02  0.49999872974E+02 0.  0.
         12    1    1    2    0    0  0.92080940841E+01 -0.35969811263E+01 -0.30314975463E+02  0.31886125623E+02  0.00000000000E+00 0. -1.
         11    1    3    3    0    0  0.84834283815E+01  0.11788488766E+01 -0.77041889834E+01  0.11520102861E+02  0.51100000000E-03 0. -1.
        -11    1    3    3    0    0 -0.19027031820E+02 -0.33222582895E+01  0.37086470407E+02  0.41814729791E+02  0.51100000000E-03 0.  1.
        -12    1    3    3    0    0  0.13355093541E+01  0.57403905391E+01  0.93269403985E+00  0.59670417251E+01  0.00000000000E+00 0.  1.
</event>
<event>
 7    1  0.7674040E-012  0.5930194E+02  0.7816164E-02  0.1266605E+00
        -11   -1    0    0    0    0  0.00000000000E+00  0.00000000000E+00  0.45593999997E+02  0.45594000000E+02  0.51100000000E-03 0.  1.
         11   -1    0    0    0    0 -0.00000000000E+00 -0.00000000000E+00 -0.45593999997E+02  0.45594000000E+02  0.51100000000E-03 0. -1.
    9900012    2    1    2    0    0 -0.83361514001E+01  0.16076688831E+01  0.30735072835E+02  0.59301941580E+02  0.49999995536E+02 0.  0.
         12    1    1    2    0    0  0.83361514001E+01 -0.16076688831E+01 -0.30735072835E+02  0.31886058420E+02  0.00000000000E+00 0. -1.
         11    1    3    3    0    0  0.10156676045E+02  0.30792009557E+01 -0.38247823796E+01  0.11281334465E+02  0.51100000000E-03 0. -1.
        -11    1    3    3    0    0 -0.12188900701E+02 -0.52444746387E+01  0.37747715821E+02  0.40012046492E+02  0.51100000000E-03 0.  1.
        -12    1    3    3    0    0 -0.63039267444E+01  0.37729425661E+01 -0.31878606062E+01  0.80085606228E+01  0.00000000000E+00 0.  1.
</event>
<event>
 7    1  0.7674040E-012  0.5930197E+02  0.7816164E-02  0.1266605E+00
        -11   -1    0    0    0    0  0.00000000000E+00  0.00000000000E+00  0.45593999997E+02  0.45594000000E+02  0.51100000000E-03 0. -1.
         11   -1    0    0    0    0 -0.00000000000E+00 -0.00000000000E+00 -0.45593999997E+02  0.45594000000E+02  0.51100000000E-03 0.  1.
    9900012    2    1    2    0    0  0.23256533454E+02  0.20412092801E+02 -0.76941069192E+01  0.59301966034E+02  0.50000040133E+02 0.  0.
         12    1    1    2    0    0 -0.23256533454E+02 -0.20412092801E+02  0.76941069192E+01  0.31886033966E+02  0.00000000000E+00 0. -1.
         11    1    3    3    0    0  0.13316494279E+02  0.29601584350E+02  0.12566216186E+02  0.34806502344E+02  0.51100000000E-03 0. -1.
        -11    1    3    3    0    0  0.59615428508E+01 -0.39416514369E+01 -0.11418642726E+02  0.13470783614E+02  0.51100000000E-03 0.  1.
         12    1    3    3    0    0  0.39784963244E+01 -0.52478401123E+01 -0.88416803789E+01  0.11024680076E+02  0.00000000000E+00 0. -1.
</event>
<event>
 7    1  0.7674040E-012  0.5930194E+02  0.7816164E-02  0.1266605E+00
        -11   -1    0    0    0    0  0.00000000000E+00  0.00000000000E+00  0.45593999997E+02  0.45594000000E+02  0.51100000000E-03 0.  1.
         11   -1    0    0    0    0 -0.00000000000E+00 -0.00000000000E+00 -0.45593999997E+02  0.45594000000E+02  0.51100000000E-03 0. -1.
    9900012    2    1    2    0    0  0.16287434932E+02 -0.10294430987E+02  0.25405997562E+02  0.59301944143E+02  0.50000000210E+02 0.  0.
         12    1    1    2    0    0 -0.16287434932E+02  0.10294430987E+02 -0.25405997562E+02  0.31886055857E+02  0.00000000000E+00 0. -1.
         11    1    3    3    0    0 -0.12697603745E+02 -0.12676713394E+02  0.70854767866E+01  0.19290727951E+02  0.51100000000E-03 0. -1.
        -11    1    3    3    0    0  0.84528613808E+01  0.78225632322E+01 -0.64570884168E+00  0.11535176688E+02  0.51100000000E-03 0.  1.
         12    1    3    3    0    0  0.20532177296E+02 -0.54402808247E+01  0.18966229617E+02  0.28476039504E+02  0.00000000000E+00 0. -1.
</event>
<event>
 7    1  0.7674040E-012  0.5930192E+02  0.7816164E-02  0.1266605E+00
        -11   -1    0    0    0    0  0.00000000000E+00  0.00000000000E+00  0.45593999997E+02  0.45594000000E+02  0.51100000000E-03 0.  1.
         11   -1    0    0    0    0 -0.00000000000E+00 -0.00000000000E+00 -0.45593999997E+02  0.45594000000E+02  0.51100000000E-03 0. -1.
    9900012    2    1    2    0    0 -0.28910584190E+02 -0.83766925962E+01  0.10522876907E+02  0.59301924740E+02  0.49999964824E+02 0.  0.
         12    1    1    2    0    0  0.28910584190E+02  0.83766925962E+01 -0.10522876907E+02  0.31886075260E+02  0.00000000000E+00 0. -1.
         11    1    3    3    0    0 -0.18149985483E+02  0.13019447815E+02  0.16345720097E+02  0.27678702285E+02  0.51100000000E-03 0. -1.
        -11    1    3    3    0    0 -0.13556616242E+02 -0.10534270553E+02  0.29038400816E+01  0.17412208002E+02  0.51100000000E-03 0.  1.
         12    1    3    3    0    0  0.27960175349E+01 -0.10861869858E+02 -0.87266832709E+01  0.14211014453E+02  0.00000000000E+00 0. -1.
</event>
<event>
 7    1  0.7674040E-012  0.5930196E+02  0.7816164E-02  0.1266605E+00
        -11   -1    0    0    0    0  0.00000000000E+00  0.00000000000E+00  0.45593999997E+02  0.45594000000E+02  0.51100000000E-03 0.  1.
         11   -1    0    0    0    0 -0.00000000000E+00 -0.00000000000E+00 -0.45593999997E+02  0.45594000000E+02  0.51100000000E-03 0. -1.
    9900012    2    1    2    0    0  0.16143013047E+02  0.72748821362E+01  0.26517897276E+02  0.59301958284E+02  0.50000026001E+02 0.  0.
         12    1    1    2    0    0 -0.16143013047E+02 -0.72748821362E+01 -0.26517897276E+02  0.31886041716E+02  0.00000000000E+00 0. -1.
         11    1    3    3    0    0 -0.98248588270E+01  0.18205576521E+02  0.11150278628E+02  0.23501054895E+02  0.51100000000E-03 0. -1.
        -11    1    3    3    0    0  0.27599544810E+02 -0.81609285812E+01  0.12111773544E+02  0.31225481384E+02  0.51100000000E-03 0.  1.
         12    1    3    3    0    0 -0.16316729365E+01 -0.27697658036E+01  0.32558451050E+01  0.45754220052E+01  0.00000000000E+00 0. -1.
</event>
<event>
 7    1  0.7674040E-012  0.5930196E+02  0.7816164E-02  0.1266605E+00
        -11   -1    0    0    0    0  0.00000000000E+00  0.00000000000E+00  0.45593999997E+02  0.45594000000E+02  0.51100000000E-03 0.  1.
         11   -1    0    0    0    0 -0.00000000000E+00 -0.00000000000E+00 -0.45593999997E+02  0.45594000000E+02  0.51100000000E-03 0. -1.
    9900012    2    1    2    0    0  0.74982519493E+01 -0.21540784958E+02  0.22282069261E+02  0.59301955883E+02  0.50000021621E+02 0.  0.
         12    1    1    2    0    0 -0.74982519493E+01  0.21540784958E+02 -0.22282069261E+02  0.31886044117E+02  0.00000000000E+00 0. -1.
         11    1    3    3    0    0 -0.77949713482E+01 -0.17802942712E+01 -0.50697793508E+01  0.94675070076E+01  0.51100000000E-03 0. -1.
        -11    1    3    3    0    0  0.20731776560E+02 -0.26043253960E+02  0.20791336606E+02  0.39247131287E+02  0.51100000000E-03 0.  1.
        -12    1    3    3    0    0 -0.54385532620E+01  0.62827632731E+01  0.65605120055E+01  0.10587317588E+02  0.00000000000E+00 0.  1.
</event>
<event>
 7    1  0.7674040E-012  0.5930173E+02  0.7816164E-02  0.1266605E+00
        -11   -1    0    0    0    0  0.00000000000E+00  0.00000000000E+00  0.45593999997E+02  0.45594000000E+02  0.51100000000E-03 0.  1.
         11   -1    0    0    0    0 -0.00000000000E+00 -0.00000000000E+00 -0.45593999997E+02  0.45594000000E+02  0.51100000000E-03 0. -1.
    9900012    2    1    2    0    0 -0.11543810408E+02 -0.11384477807E+02  0.27456659475E+02  0.59301732686E+02  0.49999614562E+02 0.  0.
         12    1    1    2    0    0  0.11543810408E+02  0.11384477807E+02 -0.27456659475E+02  0.31886267314E+02  0.00000000000E+00 0. -1.
         11    1    3    3    0    0  0.35538755113E+01 -0.90451488042E+01 -0.54252919695E+01  0.11130073731E+02  0.51100000000E-03 0. -1.
        -11    1    3    3    0    0  0.54154023101E+01  0.80560712075E+00  0.25599176147E+02  0.26178109265E+02  0.51100000000E-03 0.  1.
        -12    1    3    3    0    0 -0.20513088230E+02 -0.31449361231E+01  0.72827752975E+01  0.21993549690E+02  0.00000000000E+00 0.  1.
</event>
<event>
 7    1  0.7674040E-012  0.5930182E+02  0.7816164E-02  0.1266605E+00
        -11   -1    0    0    0    0  0.00000000000E+00  0.00000000000E+00  0.45593999997E+02  0.45594000000E+02  0.51100000000E-03 0.  1.
         11   -1    0    0    0    0 -0.00000000000E+00 -0.00000000000E+00 -0.45593999997E+02  0.45594000000E+02  0.51100000000E-03 0. -1.
    9900012    2    1    2    0    0  0.92451652828E+01 -0.10443524680E+02  0.28673821349E+02  0.59301822436E+02  0.49999778246E+02 0.  0.
         12    1    1    2    0    0 -0.92451652828E+01  0.10443524680E+02 -0.28673821349E+02  0.31886177564E+02  0.00000000000E+00 0. -1.
         11    1    3    3    0    0  0.14319458545E+01  0.10134779853E+02 -0.71753388074E+01  0.12499988755E+02  0.51100000000E-03 0. -1.
        -11    1    3    3    0    0  0.95939342703E+01 -0.19742802437E+00  0.12480150156E+02  0.15742830139E+02  0.51100000000E-03 0.  1.
         12    1    3    3    0    0 -0.17807148419E+01 -0.20380876509E+02  0.23369010001E+02  0.31059003543E+02  0.00000000000E+00 0. -1.
</event>
<event>
 7    1  0.7674040E-012  0.5930195E+02  0.7816164E-02  0.1266605E+00
        -11   -1    0    0    0    0  0.00000000000E+00  0.00000000000E+00  0.45593999997E+02  0.45594000000E+02  0.51100000000E-03 0. -1.
         11   -1    0    0    0    0 -0.00000000000E+00 -0.00000000000E+00 -0.45593999997E+02  0.45594000000E+02  0.51100000000E-03 0.  1.
    9900012    2    1    2    0    0 -0.14337470905E+02  0.13427165132E+02 -0.25117092267E+02  0.59301950395E+02  0.50000011613E+02 0.  0.
         12    1    1    2    0    0  0.14337470905E+02 -0.13427165132E+02  0.25117092267E+02  0.31886049605E+02  0.00000000000E+00 0. -1.
         11    1    3    3    0    0  0.32734016610E+00 -0.62108838577E+01  0.70978178070E+01  0.94372266986E+01  0.51100000000E-03 0. -1.
        -11    1    3    3    0    0 -0.95306639186E+01 -0.24743728261E+00 -0.27059573126E+02  0.28689985674E+02  0.51100000000E-03 0.  1.
         12    1    3    3    0    0 -0.51341471525E+01  0.19885486273E+02 -0.51553369475E+01  0.21174738023E+02  0.00000000000E+00 0. -1.
</event>
<event>
 7    1  0.7674040E-012  0.5930194E+02  0.7816164E-02  0.1266605E+00
        -11   -1    0    0    0    0  0.00000000000E+00  0.00000000000E+00  0.45593999997E+02  0.45594000000E+02  0.51100000000E-03 0.  1.
         11   -1    0    0    0    0 -0.00000000000E+00 -0.00000000000E+00 -0.45593999997E+02  0.45594000000E+02  0.51100000000E-03 0. -1.
    9900012    2    1    2    0    0 -0.27633752881E+02  0.14797680939E+02  0.58416745565E+01  0.59301940020E+02  0.49999992690E+02 0.  0.
         12    1    1    2    0    0  0.27633752881E+02 -0.14797680939E+02 -0.58416745565E+01  0.31886059980E+02  0.00000000000E+00 0. -1.
         11    1    3    3    0    0 -0.31861773902E+02  0.21944759649E+02  0.70074341783E+01  0.39317289406E+02  0.51100000000E-03 0.  1.
        -11    1    3    3    0    0  0.36537091963E+01 -0.66045791816E+01  0.78758047452E+01  0.10908636840E+02  0.51100000000E-03 0. -1.
        -12    1    3    3    0    0  0.57431182516E+00 -0.54249952828E+00 -0.90415643670E+01  0.90760137733E+01  0.00000000000E+00 0.  1.
</event>
<event>
 7    1  0.7674040E-012  0.5930194E+02  0.7816164E-02  0.1266605E+00
        -11   -1    0    0    0    0  0.00000000000E+00  0.00000000000E+00  0.45593999997E+02  0.45594000000E+02  0.51100000000E-03 0.  1.
         11   -1    0    0    0    0 -0.00000000000E+00 -0.00000000000E+00 -0.45593999997E+02  0.45594000000E+02  0.51100000000E-03 0. -1.
    9900012    2    1    2    0    0 -0.10352426720E+02 -0.10039784894E+02  0.28438540235E+02  0.59301943636E+02  0.49999999286E+02 0.  0.
         12    1    1    2    0    0  0.10352426720E+02  0.10039784894E+02 -0.28438540235E+02  0.31886056364E+02  0.00000000000E+00 0. -1.
         11    1    3    3    0    0  0.11193957355E+02 -0.16390358926E+02 -0.42814276860E+00  0.19852754304E+02  0.51100000000E-03 0. -1.
        -11    1    3    3    0    0 -0.11636737280E+02  0.24518351524E+00  0.24304127149E+02  0.26947437099E+02  0.51100000000E-03 0.  1.
         12    1    3    3    0    0 -0.99096467952E+01  0.61053905164E+01  0.45625558543E+01  0.12501752233E+02  0.00000000000E+00 0. -1.
</event>
<event>
 7    1  0.7674040E-012  0.5930196E+02  0.7816164E-02  0.1266605E+00
        -11   -1    0    0    0    0  0.00000000000E+00  0.00000000000E+00  0.45593999997E+02  0.45594000000E+02  0.51100000000E-03 0. -1.
         11   -1    0    0    0    0 -0.00000000000E+00 -0.00000000000E+00 -0.45593999997E+02  0.45594000000E+02  0.51100000000E-03 0.  1.
    9900012    2    1    2    0    0 -0.32187852872E+01 -0.24459650409E+02 -0.20201105047E+02  0.59301957254E+02  0.50000024122E+02 0.  0.
         12    1    1    2    0    0  0.32187852872E+01  0.24459650409E+02  0.20201105047E+02  0.31886042746E+02  0.00000000000E+00 0. -1.
         11    1    3    3    0    0  0.13236757816E+02 -0.15622821803E+01 -0.62676562857E+00  0.13343362339E+02  0.51100000000E-03 0. -1.
        -11    1    3    3    0    0 -0.15594822105E+02 -0.20446964280E+02 -0.27481069980E+02  0.37636232972E+02  0.51100000000E-03 0.  1.
         12    1    3    3    0    0 -0.86072099819E+00 -0.24504039484E+01  0.79067305615E+01  0.83223619435E+01  0.00000000000E+00 0. -1.
</event>
<event>
 7    1  0.7674040E-012  0.5930192E+02  0.7816164E-02  0.1266605E+00
        -11   -1    0    0    0    0  0.00000000000E+00  0.00000000000E+00  0.45593999997E+02  0.45594000000E+02  0.51100000000E-03 0. -1.
         11   -1    0    0    0    0 -0.00000000000E+00 -0.00000000000E+00 -0.45593999997E+02  0.45594000000E+02  0.51100000000E-03 0.  1.
    9900012    2    1    2    0    0  0.14721219125E+02  0.16608173464E+02 -0.22894899381E+02  0.59301919400E+02  0.49999955085E+02 0.  0.
         12    1    1    2    0    0 -0.14721219125E+02 -0.16608173464E+02  0.22894899381E+02  0.31886080600E+02  0.00000000000E+00 0. -1.
         11    1    3    3    0    0  0.14027137344E+01 -0.10918921315E+02  0.18475438802E+00  0.11010203583E+02  0.51100000000E-03 0. -1.
        -11    1    3    3    0    0  0.18565098665E+02  0.23888656781E+02 -0.27207508872E+02  0.40688811122E+02  0.51100000000E-03 0.  1.
        -12    1    3    3    0    0 -0.52465932745E+01  0.36384379979E+01  0.41278551021E+01  0.76029046947E+01  0.00000000000E+00 0.  1.
</event>
<event>
 7    1  0.7674040E-012  0.5930193E+02  0.7816164E-02  0.1266605E+00
        -11   -1    0    0    0    0  0.00000000000E+00  0.00000000000E+00  0.45593999997E+02  0.45594000000E+02  0.51100000000E-03 0.  1.
         11   -1    0    0    0    0 -0.00000000000E+00 -0.00000000000E+00 -0.45593999997E+02  0.45594000000E+02  0.51100000000E-03 0. -1.
    9900012    2    1    2    0    0 -0.16065258998E+02  0.25907078368E+02  0.93515781355E+01  0.59301932982E+02  0.49999979855E+02 0.  0.
         12    1    1    2    0    0  0.16065258998E+02 -0.25907078368E+02 -0.93515781355E+01  0.31886067018E+02  0.00000000000E+00 0. -1.
         11    1    3    3    0    0 -0.53450258436E+01  0.13110367900E+02  0.29543019530E+02  0.32760357918E+02  0.51100000000E-03 0. -1.
        -11    1    3    3    0    0 -0.19054376651E+01  0.52144083093E+01 -0.56196399678E+01  0.78994367103E+01  0.51100000000E-03 0.  1.
         12    1    3    3    0    0 -0.88147954897E+01  0.75823021592E+01 -0.14571801427E+02  0.18642138353E+02  0.00000000000E+00 0. -1.
</event>
<event>
 7    1  0.7674040E-012  0.5930210E+02  0.7816164E-02  0.1266604E+00
        -11   -1    0    0    0    0  0.00000000000E+00  0.00000000000E+00  0.45593999997E+02  0.45594000000E+02  0.51100000000E-03 0. -1.
         11   -1    0    0    0    0 -0.00000000000E+00 -0.00000000000E+00 -0.45593999997E+02  0.45594000000E+02  0.51100000000E-03 0.  1.
    9900012    2    1    2    0    0 -0.16973670048E+02 -0.26605558818E+02  0.45551431032E+01  0.59302100866E+02  0.50000286034E+02 0.  0.
         12    1    1    2    0    0  0.16973670048E+02  0.26605558818E+02 -0.45551431032E+01  0.31885899134E+02  0.00000000000E+00 0. -1.
         11    1    3    3    0    0 -0.50543226870E+01  0.11659105788E+02  0.11594601189E-01  0.12707519833E+02  0.51100000000E-03 0. -1.
        -11    1    3    3    0    0 -0.62712695254E+01 -0.28771799974E+02 -0.73623265559E+01  0.30353733671E+02  0.51100000000E-03 0.  1.
         12    1    3    3    0    0 -0.56480778357E+01 -0.94928646320E+01  0.11905875058E+02  0.16240847363E+02  0.00000000000E+00 0. -1.
</event>
<event>
 7    1  0.7674040E-012  0.5930195E+02  0.7816164E-02  0.1266605E+00
        -11   -1    0    0    0    0  0.00000000000E+00  0.00000000000E+00  0.45593999997E+02  0.45594000000E+02  0.51100000000E-03 0. -1.
         11   -1    0    0    0    0 -0.00000000000E+00 -0.00000000000E+00 -0.45593999997E+02  0.45594000000E+02  0.51100000000E-03 0.  1.
    9900012    2    1    2    0    0 -0.17278332070E+02  0.26452290399E+02  0.42959811705E+01  0.59301954765E+02  0.50000019583E+02 0.  0.
         12    1    1    2    0    0  0.17278332070E+02 -0.26452290399E+02 -0.42959811705E+01  0.31886045235E+02  0.00000000000E+00 0. -1.
         11    1    3    3    0    0 -0.19538210667E+02  0.18660992576E+02  0.96341797093E+01  0.28684346584E+02  0.51100000000E-03 0. -1.
        -11    1    3    3    0    0  0.12872768560E+02  0.10652956802E+02 -0.90667516600E+01  0.19010514063E+02  0.51100000000E-03 0.  1.
         12    1    3    3    0    0 -0.10612889963E+02 -0.28616589790E+01  0.37285531212E+01  0.11607094118E+02  0.00000000000E+00 0. -1.
</event>
<event>
 7    1  0.7674040E-012  0.5930198E+02  0.7816164E-02  0.1266605E+00
        -11   -1    0    0    0    0  0.00000000000E+00  0.00000000000E+00  0.45593999997E+02  0.45594000000E+02  0.51100000000E-03 0.  1.
         11   -1    0    0    0    0 -0.00000000000E+00 -0.00000000000E+00 -0.45593999997E+02  0.45594000000E+02  0.51100000000E-03 0. -1.
    9900012    2    1    2    0    0  0.16645691754E+02  0.25332795482E+02  0.98938759358E+01  0.59301978581E+02  0.50000063017E+02 0.  0.
         12    1    1    2    0    0 -0.16645691754E+02 -0.25332795482E+02 -0.98938759358E+01  0.31886021419E+02  0.00000000000E+00 0. -1.
         11    1    3    3    0    0 -0.92061540326E+01  0.25436330991E+01 -0.49343138360E+01  0.10750385793E+02  0.51100000000E-03 0. -1.
        -11    1    3    3    0    0  0.25899847640E+02  0.26626509927E+02  0.43577804838E+01  0.37400045316E+02  0.51100000000E-03 0.  1.
        -12    1    3    3    0    0 -0.48001853566E-01 -0.38373475439E+01  0.10470409288E+02  0.11151547472E+02  0.00000000000E+00 0.  1.
</event>
<event>
 7    1  0.7674040E-012  0.5930193E+02  0.7816164E-02  0.1266605E+00
        -11   -1    0    0    0    0  0.00000000000E+00  0.00000000000E+00  0.45593999997E+02  0.45594000000E+02  0.51100000000E-03 0. -1.
         11   -1    0    0    0    0 -0.00000000000E+00 -0.00000000000E+00 -0.45593999997E+02  0.45594000000E+02  0.51100000000E-03 0.  1.
    9900012    2    1    2    0    0  0.13869602139E+02  0.16827598089E+02 -0.23263437829E+02  0.59301929992E+02  0.49999974401E+02 0.  0.
         12    1    1    2    0    0 -0.13869602139E+02 -0.16827598089E+02  0.23263437829E+02  0.31886070008E+02  0.00000000000E+00 0. -1.
         11    1    3    3    0    0 -0.98187754524E+01  0.72917173510E+01  0.78279905049E+01  0.14520844635E+02  0.51100000000E-03 0. -1.
        -11    1    3    3    0    0  0.24773556624E+02  0.53903320122E+01 -0.18236358500E+02  0.31230586908E+02  0.51100000000E-03 0.  1.
        -12    1    3    3    0    0 -0.10851790324E+01  0.41455487258E+01 -0.12855069834E+02  0.13550498449E+02  0.00000000000E+00 0.  1.
</event>
<event>
 7    1  0.7674040E-012  0.5930195E+02  0.7816164E-02  0.1266605E+00
        -11   -1    0    0    0    0  0.00000000000E+00  0.00000000000E+00  0.45593999997E+02  0.45594000000E+02  0.51100000000E-03 0.  1.
         11   -1    0    0    0    0 -0.00000000000E+00 -0.00000000000E+00 -0.45593999997E+02  0.45594000000E+02  0.51100000000E-03 0. -1.
    9900012    2    1    2    0    0  0.85321406399E+01  0.16255610938E+02  0.26070629049E+02  0.59301952740E+02  0.50000015889E+02 0.  0.
         12    1    1    2    0    0 -0.85321406399E+01 -0.16255610938E+02 -0.26070629049E+02  0.31886047260E+02  0.00000000000E+00 0. -1.
         11    1    3    3    0    0  0.10314662433E+01 -0.65499157891E+01  0.68296310616E+01  0.95188854470E+01  0.51100000000E-03 0. -1.
        -11    1    3    3    0    0 -0.50131722243E+01  0.16782223736E+02 -0.79621753255E+01  0.19239832781E+02  0.51100000000E-03 0.  1.
        -12    1    3    3    0    0  0.12513846621E+02  0.60233029912E+01  0.27203173313E+02  0.30543234512E+02  0.00000000000E+00 0.  1.
</event>
<event>
 7    1  0.7674040E-012  0.5930190E+02  0.7816164E-02  0.1266605E+00
        -11   -1    0    0    0    0  0.00000000000E+00  0.00000000000E+00  0.45593999997E+02  0.45594000000E+02  0.51100000000E-03 0. -1.
         11   -1    0    0    0    0 -0.00000000000E+00 -0.00000000000E+00 -0.45593999997E+02  0.45594000000E+02  0.51100000000E-03 0.  1.
    9900012    2    1    2    0    0 -0.21937200485E+02 -0.14202231834E+02 -0.18269625618E+02  0.59301899981E+02  0.49999919670E+02 0.  0.
         12    1    1    2    0    0  0.21937200485E+02  0.14202231834E+02  0.18269625618E+02  0.31886100019E+02  0.00000000000E+00 0. -1.
         11    1    3    3    0    0 -0.28613995956E+01 -0.14806135053E+02 -0.21109159484E+02  0.25942356432E+02  0.51100000000E-03 0.  1.
        -11    1    3    3    0    0 -0.23313556874E+02  0.24174057802E+00  0.97287423273E+01  0.25263190617E+02  0.51100000000E-03 0. -1.
         12    1    3    3    0    0  0.42377559850E+01  0.36216264178E+00 -0.68892084617E+01  0.80963529318E+01  0.00000000000E+00 0. -1.
</event>
<event>
 7    1  0.7674040E-012  0.5930194E+02  0.7816164E-02  0.1266605E+00
        -11   -1    0    0    0    0  0.00000000000E+00  0.00000000000E+00  0.45593999997E+02  0.45594000000E+02  0.51100000000E-03 0.  1.
         11   -1    0    0    0    0 -0.00000000000E+00 -0.00000000000E+00 -0.45593999997E+02  0.45594000000E+02  0.51100000000E-03 0. -1.
    9900012    2    1    2    0    0 -0.18297628567E+01 -0.11190195139E+02  0.29801886034E+02  0.59301938617E+02  0.49999990132E+02 0.  0.
         12    1    1    2    0    0  0.18297628567E+01  0.11190195139E+02 -0.29801886034E+02  0.31886061383E+02  0.00000000000E+00 0. -1.
         11    1    3    3    0    0  0.10624205517E+02 -0.32456824414E+01 -0.99768442178E+01  0.14931363574E+02  0.51100000000E-03 0. -1.
        -11    1    3    3    0    0  0.18475648717E+01 -0.38380437510E+01  0.13685096810E+02  0.14332688190E+02  0.51100000000E-03 0.  1.
         12    1    3    3    0    0 -0.14301533245E+02 -0.41064689461E+01  0.26093633442E+02  0.30037886852E+02  0.00000000000E+00 0. -1.
</event>
<event>
 7    1  0.7674040E-012  0.5930195E+02  0.7816164E-02  0.1266605E+00
        -11   -1    0    0    0    0  0.00000000000E+00  0.00000000000E+00  0.45593999997E+02  0.45594000000E+02  0.51100000000E-03 0.  1.
         11   -1    0    0    0    0 -0.00000000000E+00 -0.00000000000E+00 -0.45593999997E+02  0.45594000000E+02  0.51100000000E-03 0. -1.
    9900012    2    1    2    0    0  0.25265045204E+02 -0.19163916569E+02 -0.33379705063E+01  0.59301948903E+02  0.50000008892E+02 0.  0.
         12    1    1    2    0    0 -0.25265045204E+02  0.19163916569E+02  0.33379705063E+01  0.31886051097E+02  0.00000000000E+00 0. -1.
         11    1    3    3    0    0  0.11711676028E+02 -0.25812288494E+02 -0.63320173137E+01  0.29043622986E+02  0.51100000000E-03 0. -1.
        -11    1    3    3    0    0 -0.56820864433E+01  0.60848963828E+00  0.76670574446E+01  0.95624335872E+01  0.51100000000E-03 0.  1.
        -12    1    3    3    0    0  0.19235455619E+02  0.60398822859E+01 -0.46730106372E+01  0.20695892330E+02  0.00000000000E+00 0.  1.
</event>
<event>
 7    1  0.7674040E-012  0.5930195E+02  0.7816164E-02  0.1266605E+00
        -11   -1    0    0    0    0  0.00000000000E+00  0.00000000000E+00  0.45593999997E+02  0.45594000000E+02  0.51100000000E-03 0.  1.
         11   -1    0    0    0    0 -0.00000000000E+00 -0.00000000000E+00 -0.45593999997E+02  0.45594000000E+02  0.51100000000E-03 0. -1.
    9900012    2    1    2    0    0  0.98861895511E+01 -0.28953415776E+02 -0.89823840098E+01  0.59301948952E+02  0.50000008981E+02 0.  0.
         12    1    1    2    0    0 -0.98861895511E+01  0.28953415776E+02  0.89823840098E+01  0.31886051048E+02  0.00000000000E+00 0. -1.
         11    1    3    3    0    0  0.15483077778E+02 -0.20109703594E+02 -0.24758624019E+02  0.35455822367E+02  0.51100000000E-03 0. -1.
        -11    1    3    3    0    0 -0.62247229607E+01  0.85166278805E+00  0.13063914457E+01  0.64170993690E+01  0.51100000000E-03 0.  1.
         12    1    3    3    0    0  0.62783473336E+00 -0.96953749697E+01  0.14469848564E+02  0.17429027216E+02  0.00000000000E+00 0. -1.
</event>
<event>
 7    1  0.7674040E-012  0.5930195E+02  0.7816164E-02  0.1266605E+00
        -11   -1    0    0    0    0  0.00000000000E+00  0.00000000000E+00  0.45593999997E+02  0.45594000000E+02  0.51100000000E-03 0.  1.
         11   -1    0    0    0    0 -0.00000000000E+00 -0.00000000000E+00 -0.45593999997E+02  0.45594000000E+02  0.51100000000E-03 0. -1.
    9900012    2    1    2    0    0  0.31826715686E+02 -0.14076150417E+01 -0.13413607194E+01  0.59301945681E+02  0.50000003016E+02 0.  0.
         12    1    1    2    0    0 -0.31826715686E+02  0.14076150417E+01  0.13413607194E+01  0.31886054319E+02  0.00000000000E+00 0. -1.
         11    1    3    3    0    0  0.73741567236E+01 -0.34729203367E+01 -0.10534599523E+02  0.13319802942E+02  0.51100000000E-03 0. -1.
        -11    1    3    3    0    0  0.15769157036E+02 -0.84649895207E+01  0.21241557414E+02  0.27776359063E+02  0.51100000000E-03 0.  1.
        -12    1    3    3    0    0  0.86834019262E+01  0.10530294816E+02 -0.12048318610E+02  0.18205783676E+02  0.00000000000E+00 0.  1.
</event>
<event>
 7    1  0.7674040E-012  0.5930195E+02  0.7816164E-02  0.1266605E+00
        -11   -1    0    0    0    0  0.00000000000E+00  0.00000000000E+00  0.45593999997E+02  0.45594000000E+02  0.51100000000E-03 0.  1.
         11   -1    0    0    0    0 -0.00000000000E+00 -0.00000000000E+00 -0.45593999997E+02  0.45594000000E+02  0.51100000000E-03 0. -1.
    9900012    2    1    2    0    0  0.26959220246E+02 -0.11733321959E+02 -0.12338943914E+02  0.59301953877E+02  0.50000017963E+02 0.  0.
         12    1    1    2    0    0 -0.26959220246E+02  0.11733321959E+02  0.12338943914E+02  0.31886046123E+02  0.00000000000E+00 0. -1.
         11    1    3    3    0    0  0.23131410212E+01 -0.95927717743E+00 -0.68117616236E+01  0.72574741312E+01  0.51100000000E-03 0. -1.
        -11    1    3    3    0    0  0.28806930950E+02  0.73174613541E+01  0.58215053193E+01  0.30286538855E+02  0.51100000000E-03 0.  1.
        -12    1    3    3    0    0 -0.41608517248E+01 -0.18091506136E+02 -0.11348687609E+02  0.21757940890E+02  0.00000000000E+00 0.  1.
</event>
<event>
 7    1  0.8096120E-012  0.5930181E+02  0.7816164E-02  0.1266605E+00
        -11   -1    0    0    0    0  0.00000000000E+00  0.00000000000E+00  0.45593999997E+02  0.45594000000E+02  0.51100000000E-03 0. -1.
         11   -1    0    0    0    0 -0.00000000000E+00 -0.00000000000E+00 -0.45593999997E+02  0.45594000000E+02  0.51100000000E-03 0.  1.
    9900012    2    1    2    0    0 -0.13721422170E+02 -0.23933029876E+02 -0.15989421696E+02  0.59301812527E+02  0.49999760173E+02 0.  0.
         12    1    1    2    0    0  0.13721422170E+02  0.23933029876E+02  0.15989421696E+02  0.31886187473E+02  0.00000000000E+00 0. -1.
         11    1    3    3    0    0  0.18199534169E+01 -0.47226324445E+01  0.75559016020E+01  0.90943464265E+01  0.51100000000E-03 0. -1.
        -11    1    3    3    0    0 -0.86234905472E+00 -0.21546230906E+02 -0.27385086024E+02  0.34855797925E+02  0.51100000000E-03 0.  1.
        -12    1    3    3    0    0 -0.14679026533E+02  0.23358334747E+01  0.38397627267E+01  0.15351668175E+02  0.00000000000E+00 0.  1.
</event>
<event>
 7    1  0.7674040E-012  0.5930207E+02  0.7816164E-02  0.1266604E+00
        -11   -1    0    0    0    0  0.00000000000E+00  0.00000000000E+00  0.45593999997E+02  0.45594000000E+02  0.51100000000E-03 0.  1.
         11   -1    0    0    0    0 -0.00000000000E+00 -0.00000000000E+00 -0.45593999997E+02  0.45594000000E+02  0.51100000000E-03 0. -1.
    9900012    2    1    2    0    0 -0.18577305686E+02  0.24241005991E+02  0.91635133804E+01  0.59302068377E+02  0.50000226783E+02 0.  0.
         12    1    1    2    0    0  0.18577305686E+02 -0.24241005991E+02 -0.91635133804E+01  0.31885931623E+02  0.00000000000E+00 0. -1.
         11    1    3    3    0    0 -0.27021157800E+01 -0.97981616083E+01  0.35288508317E+01  0.10759097966E+02  0.51100000000E-03 0. -1.
        -11    1    3    3    0    0 -0.24963698967E+02  0.24213726196E+02  0.50834568254E+01  0.35147294860E+02  0.51100000000E-03 0.  1.
        -12    1    3    3    0    0  0.90885090613E+01  0.98254414033E+01  0.55120572342E+00  0.13395675551E+02  0.00000000000E+00 0.  1.
</event>
<event>
 7    1  0.7674040E-012  0.5930195E+02  0.7816164E-02  0.1266605E+00
        -11   -1    0    0    0    0  0.00000000000E+00  0.00000000000E+00  0.45593999997E+02  0.45594000000E+02  0.51100000000E-03 0.  1.
         11   -1    0    0    0    0 -0.00000000000E+00 -0.00000000000E+00 -0.45593999997E+02  0.45594000000E+02  0.51100000000E-03 0. -1.
    9900012    2    1    2    0    0  0.18839237949E+02 -0.24991195543E+02  0.61027224384E+01  0.59301953485E+02  0.50000017248E+02 0.  0.
         12    1    1    2    0    0 -0.18839237949E+02  0.24991195543E+02 -0.61027224384E+01  0.31886046515E+02  0.00000000000E+00 0. -1.
         11    1    3    3    0    0  0.78766858987E+01 -0.13809969790E+02 -0.85518573283E+01  0.18052471032E+02  0.51100000000E-03 0. -1.
        -11    1    3    3    0    0 -0.40721511581E+01 -0.79185936239E+01  0.22342077205E+02  0.24051090498E+02  0.51100000000E-03 0.  1.
        -12    1    3    3    0    0  0.15034703209E+02 -0.32626321292E+01 -0.76874974383E+01  0.17198391955E+02  0.00000000000E+00 0.  1.
</event>
<event>
 7    1  0.7674040E-012  0.5930194E+02  0.7816164E-02  0.1266605E+00
        -11   -1    0    0    0    0  0.00000000000E+00  0.00000000000E+00  0.45593999997E+02  0.45594000000E+02  0.51100000000E-03 0. -1.
         11   -1    0    0    0    0 -0.00000000000E+00 -0.00000000000E+00 -0.45593999997E+02  0.45594000000E+02  0.51100000000E-03 0.  1.
    9900012    2    1    2    0    0 -0.11509215456E+02 -0.26134791835E+02 -0.14185610655E+02  0.59301938244E+02  0.49999989452E+02 0.  0.
         12    1    1    2    0    0  0.11509215456E+02  0.26134791835E+02  0.14185610655E+02  0.31886061756E+02  0.00000000000E+00 0. -1.
         11    1    3    3    0    0  0.78296048651E+01 -0.68830612421E+00 -0.19717544790E+02  0.21226352736E+02  0.51100000000E-03 0. -1.
        -11    1    3    3    0    0 -0.11464175965E+02 -0.32814627034E+01 -0.41676903588E+01  0.12631902914E+02  0.51100000000E-03 0.  1.
         12    1    3    3    0    0 -0.78746443557E+01 -0.22165023007E+02  0.96996244940E+01  0.25443682594E+02  0.00000000000E+00 0. -1.
</event>
<event>
 7    1  0.7674040E-012  0.5930196E+02  0.7816164E-02  0.1266605E+00
        -11   -1    0    0    0    0  0.00000000000E+00  0.00000000000E+00  0.45593999997E+02  0.45594000000E+02  0.51100000000E-03 0. -1.
         11   -1    0    0    0    0 -0.00000000000E+00 -0.00000000000E+00 -0.45593999997E+02  0.45594000000E+02  0.51100000000E-03 0.  1.
    9900012    2    1    2    0    0 -0.14802088084E+01  0.11318475767E+02 -0.29772815798E+02  0.59301961169E+02  0.50000031262E+02 0.  0.
         12    1    1    2    0    0  0.14802088084E+01 -0.11318475767E+02  0.29772815798E+02  0.31886038831E+02  0.00000000000E+00 0. -1.
         11    1    3    3    0    0 -0.96320222503E+01  0.74384836071E+01  0.33850557056E+01  0.12631923583E+02  0.51100000000E-03 0. -1.
        -11    1    3    3    0    0 -0.91899375773E+01  0.60380371885E+01 -0.25146739355E+02  0.27445789225E+02  0.51100000000E-03 0.  1.
        -12    1    3    3    0    0  0.17341751019E+02 -0.21580450290E+01 -0.80111321485E+01  0.19224248361E+02  0.00000000000E+00 0.  1.
</event>
<event>
 7    1  0.7674040E-012  0.5930186E+02  0.7816164E-02  0.1266605E+00
        -11   -1    0    0    0    0  0.00000000000E+00  0.00000000000E+00  0.45593999997E+02  0.45594000000E+02  0.51100000000E-03 0. -1.
         11   -1    0    0    0    0 -0.00000000000E+00 -0.00000000000E+00 -0.45593999997E+02  0.45594000000E+02  0.51100000000E-03 0.  1.
    9900012    2    1    2    0    0  0.23015219336E+02  0.21275997156E+02 -0.58615412776E+01  0.59301858148E+02  0.49999843376E+02 0.  0.
         12    1    1    2    0    0 -0.23015219336E+02 -0.21275997156E+02  0.58615412776E+01  0.31886141852E+02  0.00000000000E+00 0. -1.
         11    1    3    3    0    0 -0.36901657988E+01 -0.11097921872E+02 -0.64482792357E+01  0.13355204935E+02  0.51100000000E-03 0. -1.
        -11    1    3    3    0    0  0.85590067775E+01  0.11305249436E+02 -0.86937660359E+01  0.16632703628E+02  0.51100000000E-03 0.  1.
         12    1    3    3    0    0  0.18146378357E+02  0.21068669593E+02  0.92805039940E+01  0.29313949585E+02  0.00000000000E+00 0. -1.
</event>
<event>
 7    1  0.7674040E-012  0.5930194E+02  0.7816164E-02  0.1266605E+00
        -11   -1    0    0    0    0  0.00000000000E+00  0.00000000000E+00  0.45593999997E+02  0.45594000000E+02  0.51100000000E-03 0. -1.
         11   -1    0    0    0    0 -0.00000000000E+00 -0.00000000000E+00 -0.45593999997E+02  0.45594000000E+02  0.51100000000E-03 0.  1.
    9900012    2    1    2    0    0  0.29634280842E+02 -0.11629973644E+02 -0.18094074730E+01  0.59301939670E+02  0.49999992053E+02 0.  0.
         12    1    1    2    0    0 -0.29634280842E+02  0.11629973644E+02  0.18094074730E+01  0.31886060330E+02  0.00000000000E+00 0. -1.
         11    1    3    3    0    0  0.48090534212E+01 -0.24651366944E+02 -0.89533392646E+01  0.26664192680E+02  0.51100000000E-03 0. -1.
        -11    1    3    3    0    0  0.11833768367E+02  0.10074624516E+02 -0.30818565899E+01  0.15844051666E+02  0.51100000000E-03 0.  1.
         12    1    3    3    0    0  0.12991459053E+02  0.29467687834E+01  0.10225788381E+02  0.16793695324E+02  0.00000000000E+00 0. -1.
</event>
<event>
 7    1  0.7674040E-012  0.5930193E+02  0.7816164E-02  0.1266605E+00
        -11   -1    0    0    0    0  0.00000000000E+00  0.00000000000E+00  0.45593999997E+02  0.45594000000E+02  0.51100000000E-03 0. -1.
         11   -1    0    0    0    0 -0.00000000000E+00 -0.00000000000E+00 -0.45593999997E+02  0.45594000000E+02  0.51100000000E-03 0.  1.
    9900012    2    1    2    0    0  0.82254316383E+01  0.74723023318E+01 -0.29886931316E+02  0.59301926374E+02  0.49999967804E+02 0.  0.
         12    1    1    2    0    0 -0.82254316383E+01 -0.74723023318E+01  0.29886931316E+02  0.31886073626E+02  0.00000000000E+00 0. -1.
         11    1    3    3    0    0  0.23782505399E+01 -0.12347193921E+02 -0.59308050866E+01  0.13902651639E+02  0.51100000000E-03 0. -1.
        -11    1    3    3    0    0  0.13404402280E+02  0.25494873291E+02 -0.20422507645E+02  0.35309281831E+02  0.51100000000E-03 0.  1.
        -12    1    3    3    0    0 -0.75572211820E+01 -0.56753770377E+01 -0.35336185841E+01  0.10089992904E+02  0.00000000000E+00 0.  1.
</event>
<event>
 7    1  0.7674040E-012  0.5930189E+02  0.7816164E-02  0.1266605E+00
        -11   -1    0    0    0    0  0.00000000000E+00  0.00000000000E+00  0.45593999997E+02  0.45594000000E+02  0.51100000000E-03 0. -1.
         11   -1    0    0    0    0 -0.00000000000E+00 -0.00000000000E+00 -0.45593999997E+02  0.45594000000E+02  0.51100000000E-03 0.  1.
    9900012    2    1    2    0    0  0.26379327591E+02  0.70721276285E+01  0.16457228121E+02  0.59301885926E+02  0.49999894036E+02 0.  0.
         12    1    1    2    0    0 -0.26379327591E+02 -0.70721276285E+01 -0.16457228121E+02  0.31886114074E+02  0.00000000000E+00 0. -1.
         11    1    3    3    0    0  0.18703387819E+02 -0.15352136513E+02  0.23790491333E+02  0.33933645391E+02  0.51100000000E-03 0. -1.
        -11    1    3    3    0    0  0.66587477311E+00  0.12081130220E+01  0.79418957273E+00  0.15917486064E+01  0.51100000000E-03 0.  1.
         12    1    3    3    0    0  0.70100649992E+01  0.21216151120E+02 -0.81274527854E+01  0.23776491928E+02  0.00000000000E+00 0. -1.
</event>
<event>
 7    1  0.7674040E-012  0.5930190E+02  0.7816164E-02  0.1266605E+00
        -11   -1    0    0    0    0  0.00000000000E+00  0.00000000000E+00  0.45593999997E+02  0.45594000000E+02  0.51100000000E-03 0. -1.
         11   -1    0    0    0    0 -0.00000000000E+00 -0.00000000000E+00 -0.45593999997E+02  0.45594000000E+02  0.51100000000E-03 0.  1.
    9900012    2    1    2    0    0 -0.85461048270E+01 -0.18493627989E+02 -0.24529030694E+02  0.59301897531E+02  0.49999915200E+02 0.  0.
         12    1    1    2    0    0  0.85461048270E+01  0.18493627989E+02  0.24529030694E+02  0.31886102469E+02  0.00000000000E+00 0. -1.
         11    1    3    3    0    0 -0.22682063655E+00 -0.54035979028E+01  0.24819434133E+01  0.59506605738E+01  0.51100000000E-03 0. -1.
        -11    1    3    3    0    0 -0.30130916784E+01  0.41225233728E+01 -0.33739440670E+02  0.34123654221E+02  0.51100000000E-03 0.  1.
        -12    1    3    3    0    0 -0.53061925120E+01 -0.17212553459E+02  0.67284665632E+01  0.19227582736E+02  0.00000000000E+00 0.  1.
</event>
<event>
 7    1  0.7674040E-012  0.5930195E+02  0.7816164E-02  0.1266605E+00
        -11   -1    0    0    0    0  0.00000000000E+00  0.00000000000E+00  0.45593999997E+02  0.45594000000E+02  0.51100000000E-03 0. -1.
         11   -1    0    0    0    0 -0.00000000000E+00 -0.00000000000E+00 -0.45593999997E+02  0.45594000000E+02  0.51100000000E-03 0.  1.
    9900012    2    1    2    0    0  0.70984404883E+01  0.30294108865E+02 -0.69713234480E+01  0.59301949133E+02  0.50000009310E+02 0.  0.
         12    1    1    2    0    0 -0.70984404883E+01 -0.30294108865E+02  0.69713234480E+01  0.31886050867E+02  0.00000000000E+00 0. -1.
         11    1    3    3    0    0 -0.87398275743E+01  0.32221244309E+02  0.56435708034E+01  0.33859165119E+02  0.51100000000E-03 0. -1.
        -11    1    3    3    0    0  0.66989344600E+01 -0.85012786067E+01 -0.66293919401E+01  0.12692371670E+02  0.51100000000E-03 0.  1.
        -12    1    3    3    0    0  0.91393336027E+01  0.65741431628E+01 -0.59855023113E+01  0.12750412344E+02  0.00000000000E+00 0.  1.
</event>
<event>
 7    1  0.7674040E-012  0.5930195E+02  0.7816164E-02  0.1266605E+00
        -11   -1    0    0    0    0  0.00000000000E+00  0.00000000000E+00  0.45593999997E+02  0.45594000000E+02  0.51100000000E-03 0. -1.
         11   -1    0    0    0    0 -0.00000000000E+00 -0.00000000000E+00 -0.45593999997E+02  0.45594000000E+02  0.51100000000E-03 0.  1.
    9900012    2    1    2    0    0  0.26808926045E+01  0.88957373494E+01 -0.30502437140E+02  0.59301952901E+02  0.50000016182E+02 0.  0.
         12    1    1    2    0    0 -0.26808926045E+01 -0.88957373494E+01  0.30502437140E+02  0.31886047099E+02  0.00000000000E+00 0. -1.
         11    1    3    3    0    0  0.84561383037E+01 -0.61433193846E+01 -0.38951417910E+01  0.11154316559E+02  0.51100000000E-03 0. -1.
        -11    1    3    3    0    0 -0.19792346666E+02  0.34704969676E+01 -0.66762408360E+01  0.21174360148E+02  0.51100000000E-03 0.  1.
        -12    1    3    3    0    0  0.14017100966E+02  0.11568559766E+02 -0.19931054513E+02  0.26973276193E+02  0.00000000000E+00 0.  1.
</event>
<event>
 7    1  0.7674040E-012  0.5930192E+02  0.7816164E-02  0.1266605E+00
        -11   -1    0    0    0    0  0.00000000000E+00  0.00000000000E+00  0.45593999997E+02  0.45594000000E+02  0.51100000000E-03 0.  1.
         11   -1    0    0    0    0 -0.00000000000E+00 -0.00000000000E+00 -0.45593999997E+02  0.45594000000E+02  0.51100000000E-03 0. -1.
    9900012    2    1    2    0    0 -0.12043286733E+02 -0.19213583884E+02  0.22416941524E+02  0.59301924226E+02  0.49999963886E+02 0.  0.
         12    1    1    2    0    0  0.12043286733E+02  0.19213583884E+02 -0.22416941524E+02  0.31886075774E+02  0.00000000000E+00 0. -1.
         11    1    3    3    0    0  0.58184522976E+01 -0.35760164841E+01  0.47317351660E+01  0.83085256800E+01  0.51100000000E-03 0. -1.
        -11    1    3    3    0    0 -0.26912118616E+02  0.24258645799E+01  0.14082889748E+02  0.30470883336E+02  0.51100000000E-03 0.  1.
        -12    1    3    3    0    0  0.90503795861E+01 -0.18063431980E+02  0.36023166099E+01  0.20522515209E+02  0.00000000000E+00 0.  1.
</event>
<event>
 7    1  0.7674040E-012  0.5930192E+02  0.7816164E-02  0.1266605E+00
        -11   -1    0    0    0    0  0.00000000000E+00  0.00000000000E+00  0.45593999997E+02  0.45594000000E+02  0.51100000000E-03 0.  1.
         11   -1    0    0    0    0 -0.00000000000E+00 -0.00000000000E+00 -0.45593999997E+02  0.45594000000E+02  0.51100000000E-03 0. -1.
    9900012    2    1    2    0    0  0.17670084528E+02  0.26458351816E+02  0.21085803962E+01  0.59301915584E+02  0.49999948126E+02 0.  0.
         12    1    1    2    0    0 -0.17670084528E+02 -0.26458351816E+02 -0.21085803962E+01  0.31886084416E+02  0.00000000000E+00 0. -1.
         11    1    3    3    0    0  0.74678167186E+01  0.69318141670E+01 -0.14075424495E+02  0.17376303093E+02  0.51100000000E-03 0. -1.
        -11    1    3    3    0    0  0.44020255120E+01  0.26753102278E+02  0.17917652946E+02  0.32498439924E+02  0.51100000000E-03 0.  1.
         12    1    3    3    0    0  0.58002422978E+01 -0.72265646287E+01 -0.17336480548E+01  0.94271725679E+01  0.00000000000E+00 0. -1.
</event>
<event>
 7    1  0.7674040E-012  0.5930195E+02  0.7816164E-02  0.1266605E+00
        -11   -1    0    0    0    0  0.00000000000E+00  0.00000000000E+00  0.45593999997E+02  0.45594000000E+02  0.51100000000E-03 0. -1.
         11   -1    0    0    0    0 -0.00000000000E+00 -0.00000000000E+00 -0.45593999997E+02  0.45594000000E+02  0.51100000000E-03 0.  1.
    9900012    2    1    2    0    0  0.18807096654E+01  0.13626963438E+02 -0.28766106927E+02  0.59301951184E+02  0.50000013051E+02 0.  0.
         12    1    1    2    0    0 -0.18807096654E+01 -0.13626963438E+02  0.28766106927E+02  0.31886048816E+02  0.00000000000E+00 0. -1.
         11    1    3    3    0    0 -0.16974915182E+02  0.20569175509E+01 -0.15780351771E+01  0.17171745704E+02  0.51100000000E-03 0. -1.
        -11    1    3    3    0    0  0.23260911473E+01  0.14971265564E+02 -0.14941173865E+02  0.21278819736E+02  0.51100000000E-03 0.  1.
         12    1    3    3    0    0  0.16529533700E+02 -0.34012196773E+01 -0.12246897885E+02  0.20851385744E+02  0.00000000000E+00 0. -1.
</event>
<event>
 7    1  0.7674040E-012  0.5930197E+02  0.7816164E-02  0.1266605E+00
        -11   -1    0    0    0    0  0.00000000000E+00  0.00000000000E+00  0.45593999997E+02  0.45594000000E+02  0.51100000000E-03 0.  1.
         11   -1    0    0    0    0 -0.00000000000E+00 -0.00000000000E+00 -0.45593999997E+02  0.45594000000E+02  0.51100000000E-03 0. -1.
    9900012    2    1    2    0    0  0.29396618082E+02  0.34995773926E+01  0.11845282402E+02  0.59301969959E+02  0.50000047293E+02 0.  0.
         12    1    1    2    0    0 -0.29396618082E+02 -0.34995773926E+01 -0.11845282402E+02  0.31886030041E+02  0.00000000000E+00 0. -1.
         11    1    3    3    0    0 -0.24172405047E+01 -0.17671645330E+01 -0.47498738533E+01  0.56149108655E+01  0.51100000000E-03 0. -1.
        -11    1    3    3    0    0  0.14112512231E+02  0.21580951218E+02  0.14350652689E+02  0.29510026937E+02  0.51100000000E-03 0.  1.
        -12    1    3    3    0    0  0.17701346355E+02 -0.16314209293E+02  0.22445035661E+01  0.24177032156E+02  0.00000000000E+00 0.  1.
</event>
<event>
 7    1  0.7674040E-012  0.5930190E+02  0.7816164E-02  0.1266605E+00
        -11   -1    0    0    0    0  0.00000000000E+00  0.00000000000E+00  0.45593999997E+02  0.45594000000E+02  0.51100000000E-03 0. -1.
         11   -1    0    0    0    0 -0.00000000000E+00 -0.00000000000E+00 -0.45593999997E+02  0.45594000000E+02  0.51100000000E-03 0.  1.
    9900012    2    1    2    0    0  0.12962359149E+02  0.17912654485E+02 -0.22974706564E+02  0.59301904486E+02  0.49999927885E+02 0.  0.
         12    1    1    2    0    0 -0.12962359149E+02 -0.17912654485E+02  0.22974706564E+02  0.31886095514E+02  0.00000000000E+00 0. -1.
         11    1    3    3    0    0  0.14244474419E+02  0.79332028531E+01  0.11456843319E+02  0.19927368569E+02  0.51100000000E-03 0. -1.
        -11    1    3    3    0    0 -0.58093286032E+01 -0.93662425292E+00 -0.19287800187E+02  0.20165435778E+02  0.51100000000E-03 0.  1.
         12    1    3    3    0    0  0.45272133332E+01  0.10916075885E+02 -0.15143749696E+02  0.19209100139E+02  0.00000000000E+00 0. -1.
</event>
<event>
 7    1  0.7674040E-012  0.5930195E+02  0.7816164E-02  0.1266605E+00
        -11   -1    0    0    0    0  0.00000000000E+00  0.00000000000E+00  0.45593999997E+02  0.45594000000E+02  0.51100000000E-03 0. -1.
         11   -1    0    0    0    0 -0.00000000000E+00 -0.00000000000E+00 -0.45593999997E+02  0.45594000000E+02  0.51100000000E-03 0.  1.
    9900012    2    1    2    0    0 -0.27499990075E+02 -0.11932634189E+02  0.10866594896E+02  0.59301951367E+02  0.50000013384E+02 0.  0.
         12    1    1    2    0    0  0.27499990075E+02  0.11932634189E+02 -0.10866594896E+02  0.31886048633E+02  0.00000000000E+00 0. -1.
         11    1    3    3    0    0 -0.23939237532E+02 -0.18324238914E+02  0.12258323316E+02  0.32544297752E+02  0.51100000000E-03 0. -1.
        -11    1    3    3    0    0  0.44800911800E+01  0.91972129925E+01  0.87871205977E+01  0.13486045843E+02  0.51100000000E-03 0.  1.
        -12    1    3    3    0    0 -0.80408437236E+01 -0.28056082677E+01 -0.10178849018E+02  0.13271607772E+02  0.00000000000E+00 0.  1.
</event>
<event>
 7    1  0.7674040E-012  0.5930195E+02  0.7816164E-02  0.1266605E+00
        -11   -1    0    0    0    0  0.00000000000E+00  0.00000000000E+00  0.45593999997E+02  0.45594000000E+02  0.51100000000E-03 0.  1.
         11   -1    0    0    0    0 -0.00000000000E+00 -0.00000000000E+00 -0.45593999997E+02  0.45594000000E+02  0.51100000000E-03 0. -1.
    9900012    2    1    2    0    0 -0.19770795875E+02  0.19931792232E+02  0.15118180515E+02  0.59301951433E+02  0.50000013506E+02 0.  0.
         12    1    1    2    0    0  0.19770795875E+02 -0.19931792232E+02 -0.15118180515E+02  0.31886048567E+02  0.00000000000E+00 0. -1.
         11    1    3    3    0    0 -0.11504531832E+01  0.72751059652E+01 -0.76993648390E+01  0.10655089325E+02  0.51100000000E-03 0. -1.
        -11    1    3    3    0    0 -0.21944934030E+02  0.19326756718E+02  0.27254076348E+02  0.39973595443E+02  0.51100000000E-03 0.  1.
        -12    1    3    3    0    0  0.33245913383E+01 -0.66700704510E+01 -0.44365309942E+01  0.86732666655E+01  0.00000000000E+00 0.  1.
</event>
<event>
 7    1  0.7674040E-012  0.5930194E+02  0.7816164E-02  0.1266605E+00
        -11   -1    0    0    0    0  0.00000000000E+00  0.00000000000E+00  0.45593999997E+02  0.45594000000E+02  0.51100000000E-03 0.  1.
         11   -1    0    0    0    0 -0.00000000000E+00 -0.00000000000E+00 -0.45593999997E+02  0.45594000000E+02  0.51100000000E-03 0. -1.
    9900012    2    1    2    0    0 -0.19658736891E+02 -0.46957410573E+01  0.24661816381E+02  0.59301935530E+02  0.49999984501E+02 0.  0.
         12    1    1    2    0    0  0.19658736891E+02  0.46957410573E+01 -0.24661816381E+02  0.31886064470E+02  0.00000000000E+00 0. -1.
         11    1    3    3    0    0  0.11154048976E+02 -0.95176695276E+01  0.52049077057E+01  0.15559238615E+02  0.51100000000E-03 0. -1.
        -11    1    3    3    0    0 -0.16663138244E+02  0.40741497139E+01 -0.27772966003E+01  0.17377348725E+02  0.51100000000E-03 0.  1.
         12    1    3    3    0    0 -0.14149647623E+02  0.74777875639E+00  0.22234205275E+02  0.26365348189E+02  0.00000000000E+00 0. -1.
</event>
<event>
 7    1  0.7674040E-012  0.5930195E+02  0.7816164E-02  0.1266605E+00
        -11   -1    0    0    0    0  0.00000000000E+00  0.00000000000E+00  0.45593999997E+02  0.45594000000E+02  0.51100000000E-03 0.  1.
         11   -1    0    0    0    0 -0.00000000000E+00 -0.00000000000E+00 -0.45593999997E+02  0.45594000000E+02  0.51100000000E-03 0. -1.
    9900012    2    1    2    0    0  0.10665896401E+02  0.14562789379E+02  0.26284672529E+02  0.59301949908E+02  0.50000010723E+02 0.  0.
         12    1    1    2    0    0 -0.10665896401E+02 -0.14562789379E+02 -0.26284672529E+02  0.31886050092E+02  0.00000000000E+00 0. -1.
         11    1    3    3    0    0 -0.12377111192E+02 -0.33215348664E+01  0.10085772034E+02  0.16307920563E+02  0.51100000000E-03 0. -1.
        -11    1    3    3    0    0  0.13515317778E+02  0.22917228937E+02  0.43166270409E+01  0.26953598388E+02  0.51100000000E-03 0.  1.
        -12    1    3    3    0    0  0.95276898146E+01 -0.50329046910E+01  0.11882273454E+02  0.16040430957E+02  0.00000000000E+00 0.  1.
</event>
<event>
 7    1  0.7674040E-012  0.5930193E+02  0.7816164E-02  0.1266605E+00
        -11   -1    0    0    0    0  0.00000000000E+00  0.00000000000E+00  0.45593999997E+02  0.45594000000E+02  0.51100000000E-03 0.  1.
         11   -1    0    0    0    0 -0.00000000000E+00 -0.00000000000E+00 -0.45593999997E+02  0.45594000000E+02  0.51100000000E-03 0. -1.
    9900012    2    1    2    0    0 -0.22421025367E+00  0.28101686814E+02  0.15065399269E+02  0.59301932083E+02  0.49999978216E+02 0.  0.
         12    1    1    2    0    0  0.22421025367E+00 -0.28101686814E+02 -0.15065399269E+02  0.31886067917E+02  0.00000000000E+00 0. -1.
         11    1    3    3    0    0 -0.11940092352E+02 -0.10572585045E+02  0.37249508008E+01  0.16377442372E+02  0.51100000000E-03 0. -1.
        -11    1    3    3    0    0  0.87191533921E+01  0.24331333728E+02  0.11455725252E+02  0.28271382671E+02  0.51100000000E-03 0.  1.
        -12    1    3    3    0    0  0.29967287060E+01  0.14342938132E+02 -0.11527678351E+00  0.14653107040E+02  0.00000000000E+00 0.  1.
</event>
<event>
 7    1  0.7674040E-012  0.5930193E+02  0.7816164E-02  0.1266605E+00
        -11   -1    0    0    0    0  0.00000000000E+00  0.00000000000E+00  0.45593999997E+02  0.45594000000E+02  0.51100000000E-03 0. -1.
         11   -1    0    0    0    0 -0.00000000000E+00 -0.00000000000E+00 -0.45593999997E+02  0.45594000000E+02  0.51100000000E-03 0.  1.
    9900012    2    1    2    0    0  0.17012156947E+02  0.15360751742E+02 -0.22166537314E+02  0.59301928518E+02  0.49999971713E+02 0.  0.
         12    1    1    2    0    0 -0.17012156947E+02 -0.15360751742E+02  0.22166537314E+02  0.31886071482E+02  0.00000000000E+00 0. -1.
         11    1    3    3    0    0  0.16562395758E+02 -0.14194182159E+02 -0.16590591687E+02  0.27405026787E+02  0.51100000000E-03 0. -1.
        -11    1    3    3    0    0  0.43804558043E+01  0.14561738101E+02  0.58471618924E+00  0.15217572174E+02  0.51100000000E-03 0.  1.
         12    1    3    3    0    0 -0.39306946156E+01  0.14993195800E+02 -0.61606618164E+01  0.16679329557E+02  0.00000000000E+00 0. -1.
</event>
<event>
 7    1  0.7674040E-012  0.5930191E+02  0.7816164E-02  0.1266605E+00
        -11   -1    0    0    0    0  0.00000000000E+00  0.00000000000E+00  0.45593999997E+02  0.45594000000E+02  0.51100000000E-03 0.  1.
         11   -1    0    0    0    0 -0.00000000000E+00 -0.00000000000E+00 -0.45593999997E+02  0.45594000000E+02  0.51100000000E-03 0. -1.
    9900012    2    1    2    0    0 -0.18938086916E+02  0.18176553201E+02  0.18102049699E+02  0.59301914859E+02  0.49999946804E+02 0.  0.
         12    1    1    2    0    0  0.18938086916E+02 -0.18176553201E+02 -0.18102049699E+02  0.31886085141E+02  0.00000000000E+00 0. -1.
         11    1    3    3    0    0  0.32727912007E+01  0.20981921467E+02 -0.91756233799E+01  0.23133185154E+02  0.51100000000E-03 0. -1.
        -11    1    3    3    0    0 -0.78181859772E+01  0.23039021221E+01  0.12461238112E+02  0.14890078996E+02  0.51100000000E-03 0.  1.
         12    1    3    3    0    0 -0.14392692139E+02 -0.51092703876E+01  0.14816434966E+02  0.21278650709E+02  0.00000000000E+00 0. -1.
</event>
<event>
 7    1  0.7674040E-012  0.5930192E+02  0.7816164E-02  0.1266605E+00
        -11   -1    0    0    0    0  0.00000000000E+00  0.00000000000E+00  0.45593999997E+02  0.45594000000E+02  0.51100000000E-03 0.  1.
         11   -1    0    0    0    0 -0.00000000000E+00 -0.00000000000E+00 -0.45593999997E+02  0.45594000000E+02  0.51100000000E-03 0. -1.
    9900012    2    1    2    0    0 -0.24193844587E+01 -0.30090316902E+02  0.10268458819E+02  0.59301924059E+02  0.49999963581E+02 0.  0.
         12    1    1    2    0    0  0.24193844587E+01  0.30090316902E+02 -0.10268458819E+02  0.31886075941E+02  0.00000000000E+00 0. -1.
         11    1    3    3    0    0  0.10637928760E+02 -0.75620467111E+01 -0.16472546611E+02  0.21016538033E+02  0.51100000000E-03 0. -1.
        -11    1    3    3    0    0 -0.80491853719E+01 -0.18382589717E+02  0.15728390014E+02  0.25496886919E+02  0.51100000000E-03 0.  1.
         12    1    3    3    0    0 -0.50081278463E+01 -0.41456804740E+01  0.11012615416E+02  0.12788499107E+02  0.00000000000E+00 0. -1.
</event>
<event>
 7    1  0.7674040E-012  0.5930194E+02  0.7816164E-02  0.1266605E+00
        -11   -1    0    0    0    0  0.00000000000E+00  0.00000000000E+00  0.45593999997E+02  0.45594000000E+02  0.51100000000E-03 0. -1.
         11   -1    0    0    0    0 -0.00000000000E+00 -0.00000000000E+00 -0.45593999997E+02  0.45594000000E+02  0.51100000000E-03 0.  1.
    9900012    2    1    2    0    0  0.13211981396E+02 -0.20784534536E+02 -0.20252590602E+02  0.59301941065E+02  0.49999994598E+02 0.  0.
         12    1    1    2    0    0 -0.13211981396E+02  0.20784534536E+02  0.20252590602E+02  0.31886058935E+02  0.00000000000E+00 0. -1.
         11    1    3    3    0    0  0.11704286263E+02 -0.22959722722E+01  0.12673993252E+02  0.17403790128E+02  0.51100000000E-03 0. -1.
        -11    1    3    3    0    0  0.55699096205E+01 -0.10954406737E+02 -0.30678504282E+02  0.33048351628E+02  0.51100000000E-03 0.  1.
         12    1    3    3    0    0 -0.40622144874E+01 -0.75341555272E+01 -0.22480795722E+01  0.88497993092E+01  0.00000000000E+00 0. -1.
</event>
<event>
 7    1  0.7674040E-012  0.5930193E+02  0.7816164E-02  0.1266605E+00
        -11   -1    0    0    0    0  0.00000000000E+00  0.00000000000E+00  0.45593999997E+02  0.45594000000E+02  0.51100000000E-03 0.  1.
         11   -1    0    0    0    0 -0.00000000000E+00 -0.00000000000E+00 -0.45593999997E+02  0.45594000000E+02  0.51100000000E-03 0. -1.
    9900012    2    1    2    0    0 -0.29574178855E+02  0.11288605860E+02  0.38284358180E+01  0.59301927837E+02  0.49999970471E+02 0.  0.
         12    1    1    2    0    0  0.29574178855E+02 -0.11288605860E+02 -0.38284358180E+01  0.31886072163E+02  0.00000000000E+00 0. -1.
         11    1    3    3    0    0 -0.76315283209E+01 -0.98378200160E+01 -0.16231531056E+02  0.20456918826E+02  0.51100000000E-03 0. -1.
        -11    1    3    3    0    0 -0.99116462290E+01  0.15890294064E+01  0.84963846960E+01  0.13151209016E+02  0.51100000000E-03 0.  1.
         12    1    3    3    0    0 -0.12031004305E+02  0.19537396469E+02  0.11563582178E+02  0.25693799995E+02  0.00000000000E+00 0. -1.
</event>
<event>
 7    1  0.7674040E-012  0.5930212E+02  0.7816164E-02  0.1266604E+00
        -11   -1    0    0    0    0  0.00000000000E+00  0.00000000000E+00  0.45593999997E+02  0.45594000000E+02  0.51100000000E-03 0.  1.
         11   -1    0    0    0    0 -0.00000000000E+00 -0.00000000000E+00 -0.45593999997E+02  0.45594000000E+02  0.51100000000E-03 0. -1.
    9900012    2    1    2    0    0 -0.85100205316E+01 -0.57554155400E+01  0.30185495964E+02  0.59302118735E+02  0.50000318623E+02 0.  0.
         12    1    1    2    0    0  0.85100205316E+01  0.57554155400E+01 -0.30185495964E+02  0.31885881265E+02  0.00000000000E+00 0. -1.
         11    1    3    3    0    0 -0.19954599820E+02  0.94762526451E+01  0.96160944128E+01  0.24092627299E+02  0.51100000000E-03 0. -1.
        -11    1    3    3    0    0  0.15006971669E+02 -0.23438287730E+01  0.11532330398E+02  0.19070851493E+02  0.51100000000E-03 0.  1.
        -12    1    3    3    0    0 -0.35623923810E+01 -0.12887839412E+02  0.90370711529E+01  0.16138639943E+02  0.00000000000E+00 0.  1.
</event>
<event>
 7    1  0.8849864E-012  0.5930196E+02  0.7816164E-02  0.1266605E+00
        -11   -1    0    0    0    0  0.00000000000E+00  0.00000000000E+00  0.45593999997E+02  0.45594000000E+02  0.51100000000E-03 0. -1.
         11   -1    0    0    0    0 -0.00000000000E+00 -0.00000000000E+00 -0.45593999997E+02  0.45594000000E+02  0.51100000000E-03 0.  1.
    9900012    2    1    2    0    0 -0.13911056175E+02 -0.20428675040E+02 -0.20146250896E+02  0.59301958023E+02  0.50000025523E+02 0.  0.
         12    1    1    2    0    0  0.13911056175E+02  0.20428675040E+02  0.20146250896E+02  0.31886041977E+02  0.00000000000E+00 0. -1.
         11    1    3    3    0    0  0.95257429175E-01  0.84416547710E+01  0.52814203275E+01  0.99581127824E+01  0.51100000000E-03 0. -1.
        -11    1    3    3    0    0  0.49913938432E+01 -0.20306892307E+02 -0.16657691695E+02  0.26735044054E+02  0.51100000000E-03 0.  1.
        -12    1    3    3    0    0 -0.18997707448E+02 -0.85634375039E+01 -0.87699795282E+01  0.22608801186E+02  0.00000000000E+00 0.  1.
</event>
<event>
 7    1  0.7674040E-012  0.5930191E+02  0.7816164E-02  0.1266605E+00
        -11   -1    0    0    0    0  0.00000000000E+00  0.00000000000E+00  0.45593999997E+02  0.45594000000E+02  0.51100000000E-03 0.  1.
         11   -1    0    0    0    0 -0.00000000000E+00 -0.00000000000E+00 -0.45593999997E+02  0.45594000000E+02  0.51100000000E-03 0. -1.
    9900012    2    1    2    0    0  0.10907797606E+02 -0.53027928492E+01  0.29489368165E+02  0.59301913765E+02  0.49999944808E+02 0.  0.
         12    1    1    2    0    0 -0.10907797606E+02  0.53027928492E+01 -0.29489368165E+02  0.31886086235E+02  0.00000000000E+00 0. -1.
         11    1    3    3    0    0 -0.42156057249E+01 -0.21210872590E+02  0.25696884946E+01  0.21777872873E+02  0.51100000000E-03 0. -1.
        -11    1    3    3    0    0  0.56396193439E+00  0.81618189479E+01  0.15299359963E+02  0.17349459852E+02  0.51100000000E-03 0.  1.
         12    1    3    3    0    0  0.14559441397E+02  0.77462607929E+01  0.11620319707E+02  0.20174581040E+02  0.00000000000E+00 0. -1.
</event>
<event>
 7    1  0.7674040E-012  0.5930194E+02  0.7816164E-02  0.1266605E+00
        -11   -1    0    0    0    0  0.00000000000E+00  0.00000000000E+00  0.45593999997E+02  0.45594000000E+02  0.51100000000E-03 0.  1.
         11   -1    0    0    0    0 -0.00000000000E+00 -0.00000000000E+00 -0.45593999997E+02  0.45594000000E+02  0.51100000000E-03 0. -1.
    9900012    2    1    2    0    0 -0.16959566735E+02 -0.87418629436E+01  0.25547483572E+02  0.59301937395E+02  0.49999987904E+02 0.  0.
         12    1    1    2    0    0  0.16959566735E+02  0.87418629436E+01 -0.25547483572E+02  0.31886062605E+02  0.00000000000E+00 0. -1.
         11    1    3    3    0    0  0.77441901238E+01  0.12434545363E+01 -0.31133211817E+01  0.84386864439E+01  0.51100000000E-03 0. -1.
        -11    1    3    3    0    0 -0.31397729364E+02 -0.24948328462E+01  0.18277509507E+02  0.36415778918E+02  0.51100000000E-03 0.  1.
        -12    1    3    3    0    0  0.66939725057E+01 -0.74904846337E+01  0.10383295248E+02  0.14447472033E+02  0.00000000000E+00 0.  1.
</event>
<event>
 7    1  0.7674040E-012  0.5930192E+02  0.7816164E-02  0.1266605E+00
        -11   -1    0    0    0    0  0.00000000000E+00  0.00000000000E+00  0.45593999997E+02  0.45594000000E+02  0.51100000000E-03 0.  1.
         11   -1    0    0    0    0 -0.00000000000E+00 -0.00000000000E+00 -0.45593999997E+02  0.45594000000E+02  0.51100000000E-03 0. -1.
    9900012    2    1    2    0    0 -0.12258857460E+02  0.28783507293E+02 -0.61605385502E+01  0.59301919753E+02  0.49999955728E+02 0.  0.
         12    1    1    2    0    0  0.12258857460E+02 -0.28783507293E+02  0.61605385502E+01  0.31886080247E+02  0.00000000000E+00 0. -1.
         11    1    3    3    0    0  0.54810771720E+01  0.95836391097E+01 -0.11703836577E+02  0.16089379617E+02  0.51100000000E-03 0. -1.
        -11    1    3    3    0    0 -0.17410518868E+02 -0.37574216411E+01 -0.41534286114E+01  0.18289214147E+02  0.51100000000E-03 0.  1.
         12    1    3    3    0    0 -0.32941576399E+00  0.22957289824E+02  0.96967266387E+01  0.24923325989E+02  0.00000000000E+00 0. -1.
</event>
<event>
 7    1  0.7674040E-012  0.5930195E+02  0.7816164E-02  0.1266605E+00
        -11   -1    0    0    0    0  0.00000000000E+00  0.00000000000E+00  0.45593999997E+02  0.45594000000E+02  0.51100000000E-03 0.  1.
         11   -1    0    0    0    0 -0.00000000000E+00 -0.00000000000E+00 -0.45593999997E+02  0.45594000000E+02  0.51100000000E-03 0. -1.
    9900012    2    1    2    0    0 -0.25353880673E+02 -0.16190574318E+02  0.10571969574E+02  0.59301945013E+02  0.50000001797E+02 0.  0.
         12    1    1    2    0    0  0.25353880673E+02  0.16190574318E+02 -0.10571969574E+02  0.31886054987E+02  0.00000000000E+00 0. -1.
         11    1    3    3    0    0 -0.39346691734E+02 -0.78685361306E+01  0.53983023698E+01  0.40487253302E+02  0.51100000000E-03 0. -1.
        -11    1    3    3    0    0  0.31418107725E+01 -0.28687447054E+00  0.42336302115E+01  0.52798576610E+01  0.51100000000E-03 0.  1.
         12    1    3    3    0    0  0.10851000288E+02 -0.80351637168E+01  0.94003699292E+00  0.13534834050E+02  0.00000000000E+00 0. -1.
</event>
<event>
 7    1  0.7674040E-012  0.5930193E+02  0.7816164E-02  0.1266605E+00
        -11   -1    0    0    0    0  0.00000000000E+00  0.00000000000E+00  0.45593999997E+02  0.45594000000E+02  0.51100000000E-03 0.  1.
         11   -1    0    0    0    0 -0.00000000000E+00 -0.00000000000E+00 -0.45593999997E+02  0.45594000000E+02  0.51100000000E-03 0. -1.
    9900012    2    1    2    0    0 -0.72116779867E+00  0.61779345895E+01  0.31273546441E+02  0.59301926774E+02  0.49999968532E+02 0.  0.
         12    1    1    2    0    0  0.72116779867E+00 -0.61779345895E+01 -0.31273546441E+02  0.31886073226E+02  0.00000000000E+00 0. -1.
         11    1    3    3    0    0  0.60922465083E+01 -0.35547007339E+01 -0.10988799327E+02  0.13057759215E+02  0.51100000000E-03 0. -1.
        -11    1    3    3    0    0 -0.52005170387E+01 -0.28476507540E+01  0.10779353666E+02  0.12302396433E+02  0.51100000000E-03 0.  1.
         12    1    3    3    0    0 -0.16128972683E+01  0.12580286077E+02  0.31482992102E+02  0.33941771125E+02  0.00000000000E+00 0. -1.
</event>
<event>
 7    1  0.7674040E-012  0.5930195E+02  0.7816164E-02  0.1266605E+00
        -11   -1    0    0    0    0  0.00000000000E+00  0.00000000000E+00  0.45593999997E+02  0.45594000000E+02  0.51100000000E-03 0. -1.
         11   -1    0    0    0    0 -0.00000000000E+00 -0.00000000000E+00 -0.45593999997E+02  0.45594000000E+02  0.51100000000E-03 0.  1.
    9900012    2    1    2    0    0 -0.57293237721E+01  0.23623806871E+02 -0.20635187442E+02  0.59301947207E+02  0.50000005798E+02 0.  0.
         12    1    1    2    0    0  0.57293237721E+01 -0.23623806871E+02  0.20635187442E+02  0.31886052793E+02  0.00000000000E+00 0. -1.
         11    1    3    3    0    0  0.19424092902E+02  0.91711775582E+01  0.70017259284E+00  0.21491768768E+02  0.51100000000E-03 0. -1.
        -11    1    3    3    0    0 -0.14670440535E+02  0.13957427085E+02 -0.17060912851E+02  0.26478412790E+02  0.51100000000E-03 0.  1.
         12    1    3    3    0    0 -0.10482976139E+02  0.49520222816E+00 -0.42744471841E+01  0.11331765648E+02  0.00000000000E+00 0. -1.
</event>
<event>
 7    1  0.7674040E-012  0.5930195E+02  0.7816164E-02  0.1266605E+00
        -11   -1    0    0    0    0  0.00000000000E+00  0.00000000000E+00  0.45593999997E+02  0.45594000000E+02  0.51100000000E-03 0.  1.
         11   -1    0    0    0    0 -0.00000000000E+00 -0.00000000000E+00 -0.45593999997E+02  0.45594000000E+02  0.51100000000E-03 0. -1.
    9900012    2    1    2    0    0 -0.93973870431E+01 -0.17681009586E+02 -0.24815140107E+02  0.59301950358E+02  0.50000011546E+02 0.  0.
         12    1    1    2    0    0  0.93973870431E+01  0.17681009586E+02  0.24815140107E+02  0.31886049642E+02  0.00000000000E+00 0. -1.
         11    1    3    3    0    0 -0.14814291167E+02  0.25845829091E+01 -0.32817149862E+02  0.36098595774E+02  0.51100000000E-03 0. -1.
        -11    1    3    3    0    0  0.92608393252E+00 -0.14208562545E+02  0.53343812568E+01  0.15205147310E+02  0.51100000000E-03 0.  1.
         12    1    3    3    0    0  0.44908201910E+01 -0.60570299496E+01  0.26676284977E+01  0.79982072741E+01  0.00000000000E+00 0. -1.
</event>
<event>
 7    1  0.7674040E-012  0.5930194E+02  0.7816164E-02  0.1266605E+00
        -11   -1    0    0    0    0  0.00000000000E+00  0.00000000000E+00  0.45593999997E+02  0.45594000000E+02  0.51100000000E-03 0. -1.
         11   -1    0    0    0    0 -0.00000000000E+00 -0.00000000000E+00 -0.45593999997E+02  0.45594000000E+02  0.51100000000E-03 0.  1.
    9900012    2    1    2    0    0  0.83424932790E+01  0.25302884055E+02 -0.17518218616E+02  0.59301935346E+02  0.49999984167E+02 0.  0.
         12    1    1    2    0    0 -0.83424932790E+01 -0.25302884055E+02  0.17518218616E+02  0.31886064654E+02  0.00000000000E+00 0. -1.
         11    1    3    3    0    0 -0.60073334900E+01  0.17389939346E+01 -0.28742019789E+02  0.29414551796E+02  0.51100000000E-03 0. -1.
        -11    1    3    3    0    0  0.20328947122E+01  0.35500915684E+01  0.75138196120E+00  0.41593732903E+01  0.51100000000E-03 0.  1.
         12    1    3    3    0    0  0.12316932057E+02  0.20013798552E+02  0.10472419212E+02  0.25728010260E+02  0.00000000000E+00 0. -1.
</event>
<event>
 7    1  0.7674040E-012  0.5930196E+02  0.7816164E-02  0.1266605E+00
        -11   -1    0    0    0    0  0.00000000000E+00  0.00000000000E+00  0.45593999997E+02  0.45594000000E+02  0.51100000000E-03 0.  1.
         11   -1    0    0    0    0 -0.00000000000E+00 -0.00000000000E+00 -0.45593999997E+02  0.45594000000E+02  0.51100000000E-03 0. -1.
    9900012    2    1    2    0    0  0.29241985773E+02  0.85411687877E+01  0.94167082257E+01  0.59301957756E+02  0.50000025037E+02 0.  0.
         12    1    1    2    0    0 -0.29241985773E+02 -0.85411687877E+01 -0.94167082257E+01  0.31886042244E+02  0.00000000000E+00 0. -1.
         11    1    3    3    0    0  0.13775899673E+02  0.95913687755E+01 -0.47482086339E+01  0.17444633910E+02  0.51100000000E-03 0. -1.
        -11    1    3    3    0    0  0.18538276658E+02 -0.15771125853E+02  0.82866595070E+01  0.25711181190E+02  0.51100000000E-03 0.  1.
        -12    1    3    3    0    0 -0.30721905578E+01  0.14720925865E+02  0.58782573526E+01  0.16146142656E+02  0.00000000000E+00 0.  1.
</event>
<event>
 7    1  0.7674040E-012  0.5930194E+02  0.7816164E-02  0.1266605E+00
        -11   -1    0    0    0    0  0.00000000000E+00  0.00000000000E+00  0.45593999997E+02  0.45594000000E+02  0.51100000000E-03 0.  1.
         11   -1    0    0    0    0 -0.00000000000E+00 -0.00000000000E+00 -0.45593999997E+02  0.45594000000E+02  0.51100000000E-03 0. -1.
    9900012    2    1    2    0    0  0.26346440943E+02 -0.17920379680E+02  0.12023654665E+01  0.59301942844E+02  0.49999997841E+02 0.  0.
         12    1    1    2    0    0 -0.26346440943E+02  0.17920379680E+02 -0.12023654665E+01  0.31886057156E+02  0.00000000000E+00 0. -1.
         11    1    3    3    0    0  0.17504841306E+02 -0.25211390803E+02  0.15583764216E+01  0.30732104268E+02  0.51100000000E-03 0. -1.
        -11    1    3    3    0    0 -0.55816405421E+01  0.50712626666E+01  0.86074578847E+01  0.11443808268E+02  0.51100000000E-03 0.  1.
         12    1    3    3    0    0  0.14423240179E+02  0.22197484564E+01 -0.89634688398E+01  0.17126030308E+02  0.00000000000E+00 0. -1.
</event>
<event>
 7    1  0.7674040E-012  0.5930194E+02  0.7816164E-02  0.1266605E+00
        -11   -1    0    0    0    0  0.00000000000E+00  0.00000000000E+00  0.45593999997E+02  0.45594000000E+02  0.51100000000E-03 0.  1.
         11   -1    0    0    0    0 -0.00000000000E+00 -0.00000000000E+00 -0.45593999997E+02  0.45594000000E+02  0.51100000000E-03 0. -1.
    9900012    2    1    2    0    0 -0.26062630615E+02  0.15413019581E+02  0.99949549055E+01  0.59301937046E+02  0.49999987266E+02 0.  0.
         12    1    1    2    0    0  0.26062630615E+02 -0.15413019581E+02 -0.99949549055E+01  0.31886062954E+02  0.00000000000E+00 0. -1.
         11    1    3    3    0    0 -0.21672360362E+02 -0.63723255677E+01 -0.43915677754E+01  0.23012683559E+02  0.51100000000E-03 0. -1.
        -11    1    3    3    0    0  0.40553866361E+01  0.85289919804E+01  0.17849710304E+02  0.20194108625E+02  0.51100000000E-03 0.  1.
        -12    1    3    3    0    0 -0.84456568890E+01  0.13256353169E+02 -0.34631876227E+01  0.16095144862E+02  0.00000000000E+00 0.  1.
</event>
<event>
 7    1  0.7674040E-012  0.5930195E+02  0.7816164E-02  0.1266605E+00
        -11   -1    0    0    0    0  0.00000000000E+00  0.00000000000E+00  0.45593999997E+02  0.45594000000E+02  0.51100000000E-03 0.  1.
         11   -1    0    0    0    0 -0.00000000000E+00 -0.00000000000E+00 -0.45593999997E+02  0.45594000000E+02  0.51100000000E-03 0. -1.
    9900012    2    1    2    0    0 -0.28037019977E+01 -0.29728432054E+02  0.11183899120E+02  0.59301952631E+02  0.50000015691E+02 0.  0.
         12    1    1    2    0    0  0.28037019977E+01  0.29728432054E+02 -0.11183899120E+02  0.31886047369E+02  0.00000000000E+00 0. -1.
         11    1    3    3    0    0  0.45951219085E+01  0.25624357344E+01 -0.13265587440E+01  0.54259543501E+01  0.51100000000E-03 0. -1.
        -11    1    3    3    0    0  0.18490668204E+00 -0.90037408815E+01  0.24864852968E+02  0.26445461874E+02  0.51100000000E-03 0.  1.
        -12    1    3    3    0    0 -0.75837305883E+01 -0.23287126907E+02 -0.12354395104E+02  0.27430536407E+02  0.00000000000E+00 0.  1.
</event>
<event>
 7    1  0.7674040E-012  0.5930194E+02  0.7816164E-02  0.1266605E+00
        -11   -1    0    0    0    0  0.00000000000E+00  0.00000000000E+00  0.45593999997E+02  0.45594000000E+02  0.51100000000E-03 0.  1.
         11   -1    0    0    0    0 -0.00000000000E+00 -0.00000000000E+00 -0.45593999997E+02  0.45594000000E+02  0.51100000000E-03 0. -1.
    9900012    2    1    2    0    0 -0.10637466706E+01 -0.28209504055E+02  0.14826092957E+02  0.59301941787E+02  0.49999995913E+02 0.  0.
         12    1    1    2    0    0  0.10637466706E+01  0.28209504055E+02 -0.14826092957E+02  0.31886058213E+02  0.00000000000E+00 0. -1.
         11    1    3    3    0    0 -0.17532714963E+01 -0.27274526425E+02 -0.64220068856E+01  0.28075183443E+02  0.51100000000E-03 0. -1.
        -11    1    3    3    0    0  0.44778987462E+01  0.10155812176E+02  0.11501169804E+02  0.15983397801E+02  0.51100000000E-03 0.  1.
        -12    1    3    3    0    0 -0.37883739205E+01 -0.11090789806E+02  0.97469300389E+01  0.15243360543E+02  0.00000000000E+00 0.  1.
</event>
<event>
 7    1  0.7674040E-012  0.5930194E+02  0.7816164E-02  0.1266605E+00
        -11   -1    0    0    0    0  0.00000000000E+00  0.00000000000E+00  0.45593999997E+02  0.45594000000E+02  0.51100000000E-03 0. -1.
         11   -1    0    0    0    0 -0.00000000000E+00 -0.00000000000E+00 -0.45593999997E+02  0.45594000000E+02  0.51100000000E-03 0.  1.
    9900012    2    1    2    0    0 -0.19207724320E+02 -0.22001146486E+02 -0.12795854241E+02  0.59301937120E+02  0.49999987402E+02 0.  0.
         12    1    1    2    0    0  0.19207724320E+02  0.22001146486E+02  0.12795854241E+02  0.31886062880E+02  0.00000000000E+00 0. -1.
         11    1    3    3    0    0 -0.30943990874E+01  0.60488809111E+01 -0.82112879360E+01  0.10657838234E+02  0.51100000000E-03 0. -1.
        -11    1    3    3    0    0 -0.16979306942E+02 -0.29577340258E+02  0.87382035158E+01  0.35206137560E+02  0.51100000000E-03 0.  1.
        -12    1    3    3    0    0  0.86598170917E+00  0.15273128618E+01 -0.13322769821E+02  0.13437961326E+02  0.00000000000E+00 0.  1.
</event>
<event>
 7    1  0.7674040E-012  0.5930194E+02  0.7816164E-02  0.1266605E+00
        -11   -1    0    0    0    0  0.00000000000E+00  0.00000000000E+00  0.45593999997E+02  0.45594000000E+02  0.51100000000E-03 0. -1.
         11   -1    0    0    0    0 -0.00000000000E+00 -0.00000000000E+00 -0.45593999997E+02  0.45594000000E+02  0.51100000000E-03 0.  1.
    9900012    2    1    2    0    0  0.22134387765E+02 -0.16951807300E+02 -0.15473396496E+02  0.59301938914E+02  0.49999990674E+02 0.  0.
         12    1    1    2    0    0 -0.22134387765E+02  0.16951807300E+02  0.15473396496E+02  0.31886061086E+02  0.00000000000E+00 0. -1.
         11    1    3    3    0    0 -0.10053031539E+02  0.60139881018E+01  0.18234001826E-01  0.11714598958E+02  0.51100000000E-03 0. -1.
        -11    1    3    3    0    0  0.29508168015E+02 -0.12623343821E+02 -0.47629558081E+01  0.32446364004E+02  0.51100000000E-03 0.  1.
        -12    1    3    3    0    0  0.26792512888E+01 -0.10342451581E+02 -0.10728674689E+02  0.15140975952E+02  0.00000000000E+00 0.  1.
</event>
<event>
 7    1  0.7674040E-012  0.5930196E+02  0.7816164E-02  0.1266605E+00
        -11   -1    0    0    0    0  0.00000000000E+00  0.00000000000E+00  0.45593999997E+02  0.45594000000E+02  0.51100000000E-03 0. -1.
         11   -1    0    0    0    0 -0.00000000000E+00 -0.00000000000E+00 -0.45593999997E+02  0.45594000000E+02  0.51100000000E-03 0.  1.
    9900012    2    1    2    0    0 -0.16945449734E+02 -0.23201190222E+02  0.13830260490E+02  0.59301959173E+02  0.50000027620E+02 0.  0.
         12    1    1    2    0    0  0.16945449734E+02  0.23201190222E+02 -0.13830260490E+02  0.31886040827E+02  0.00000000000E+00 0. -1.
         11    1    3    3    0    0 -0.90495618481E+01  0.26527446153E+01  0.11162312380E+02  0.14612626101E+02  0.51100000000E-03 0. -1.
        -11    1    3    3    0    0 -0.67457364794E+00  0.19258975564E+01 -0.12196259519E+02  0.12365794658E+02  0.51100000000E-03 0.  1.
        -12    1    3    3    0    0 -0.72213142382E+01 -0.27779832394E+02  0.14864207629E+02  0.32323538414E+02  0.00000000000E+00 0.  1.
</event>
<event>
 7    1  0.7674040E-012  0.5930230E+02  0.7816164E-02  0.1266604E+00
        -11   -1    0    0    0    0  0.00000000000E+00  0.00000000000E+00  0.45593999997E+02  0.45594000000E+02  0.51100000000E-03 0.  1.
         11   -1    0    0    0    0 -0.00000000000E+00 -0.00000000000E+00 -0.45593999997E+02  0.45594000000E+02  0.51100000000E-03 0. -1.
    9900012    2    1    2    0    0 -0.21295955574E+02 -0.17499400347E+02  0.16029686529E+02  0.59302304358E+02  0.50000657152E+02 0.  0.
         12    1    1    2    0    0  0.21295955574E+02  0.17499400347E+02 -0.16029686529E+02  0.31885695642E+02  0.00000000000E+00 0. -1.
         11    1    3    3    0    0 -0.92958368606E+01  0.48650260110E+00 -0.49625991490E+01  0.10548775204E+02  0.51100000000E-03 0. -1.
        -11    1    3    3    0    0 -0.22347949453E+02 -0.17837140988E+02  0.24675530379E+02  0.37768720433E+02  0.51100000000E-03 0.  1.
        -12    1    3    3    0    0  0.10347830739E+02 -0.14876196016E+00 -0.36832447009E+01  0.10984808722E+02  0.00000000000E+00 0.  1.
</event>
<event>
 7    1  0.7674040E-012  0.5930188E+02  0.7816164E-02  0.1266605E+00
        -11   -1    0    0    0    0  0.00000000000E+00  0.00000000000E+00  0.45593999997E+02  0.45594000000E+02  0.51100000000E-03 0. -1.
         11   -1    0    0    0    0 -0.00000000000E+00 -0.00000000000E+00 -0.45593999997E+02  0.45594000000E+02  0.51100000000E-03 0.  1.
    9900012    2    1    2    0    0 -0.12366102709E+02  0.27952093438E+02  0.90821084699E+01  0.59301878912E+02  0.49999881244E+02 0.  0.
         12    1    1    2    0    0  0.12366102709E+02 -0.27952093438E+02 -0.90821084699E+01  0.31886121088E+02  0.00000000000E+00 0. -1.
         11    1    3    3    0    0 -0.91061478856E+01  0.48037955654E+01  0.15705929924E+01  0.10414660040E+02  0.51100000000E-03 0. -1.
        -11    1    3    3    0    0  0.75466701136E+01 -0.31832553331E+01 -0.11892011867E+02  0.14439712283E+02  0.51100000000E-03 0.  1.
        -12    1    3    3    0    0 -0.10806624937E+02  0.26331553206E+02  0.19403527344E+02  0.34447506588E+02  0.00000000000E+00 0.  1.
</event>
<event>
 7    1  0.7674040E-012  0.5930195E+02  0.7816164E-02  0.1266605E+00
        -11   -1    0    0    0    0  0.00000000000E+00  0.00000000000E+00  0.45593999997E+02  0.45594000000E+02  0.51100000000E-03 0.  1.
         11   -1    0    0    0    0 -0.00000000000E+00 -0.00000000000E+00 -0.45593999997E+02  0.45594000000E+02  0.51100000000E-03 0. -1.
    9900012    2    1    2    0    0 -0.38954673703E+01  0.76760831953E+01  0.30702170642E+02  0.59301949737E+02  0.50000010412E+02 0.  0.
         12    1    1    2    0    0  0.38954673703E+01 -0.76760831953E+01 -0.30702170642E+02  0.31886050263E+02  0.00000000000E+00 0. -1.
         11    1    3    3    0    0  0.24586482302E+01  0.15135376749E+01 -0.15828555164E+00  0.28915051427E+01  0.51100000000E-03 0. -1.
        -11    1    3    3    0    0 -0.21803648687E+02  0.16579932562E+02  0.24416402852E+02  0.36694059306E+02  0.51100000000E-03 0.  1.
        -12    1    3    3    0    0  0.15449533087E+02 -0.10417387041E+02  0.64440533413E+01  0.19716385288E+02  0.00000000000E+00 0.  1.
</event>
<event>
 7    1  0.7674040E-012  0.5930192E+02  0.7816164E-02  0.1266605E+00
        -11   -1    0    0    0    0  0.00000000000E+00  0.00000000000E+00  0.45593999997E+02  0.45594000000E+02  0.51100000000E-03 0.  1.
         11   -1    0    0    0    0 -0.00000000000E+00 -0.00000000000E+00 -0.45593999997E+02  0.45594000000E+02  0.51100000000E-03 0. -1.
    9900012    2    1    2    0    0 -0.10453236809E+02 -0.30046422002E+02 -0.21597207358E+01  0.59301921085E+02  0.49999958158E+02 0.  0.
         12    1    1    2    0    0  0.10453236809E+02  0.30046422002E+02  0.21597207358E+01  0.31886078915E+02  0.00000000000E+00 0. -1.
         11    1    3    3    0    0 -0.23710777823E+01 -0.74514606701E+00  0.34865885294E+01  0.42817697679E+01  0.51100000000E-03 0. -1.
        -11    1    3    3    0    0  0.18737087000E+02 -0.75654683580E+01 -0.22882751774E+01  0.20335952013E+02  0.51100000000E-03 0.  1.
        -12    1    3    3    0    0 -0.26819246027E+02 -0.21735807577E+02 -0.33580340878E+01  0.34684199305E+02  0.00000000000E+00 0.  1.
</event>
<event>
 7    1  0.7674040E-012  0.5930194E+02  0.7816164E-02  0.1266605E+00
        -11   -1    0    0    0    0  0.00000000000E+00  0.00000000000E+00  0.45593999997E+02  0.45594000000E+02  0.51100000000E-03 0.  1.
         11   -1    0    0    0    0 -0.00000000000E+00 -0.00000000000E+00 -0.45593999997E+02  0.45594000000E+02  0.51100000000E-03 0. -1.
    9900012    2    1    2    0    0 -0.22065971204E+01  0.31776582236E+02 -0.14492914044E+01  0.59301941996E+02  0.49999996295E+02 0.  0.
         12    1    1    2    0    0  0.22065971204E+01 -0.31776582236E+02  0.14492914044E+01  0.31886058004E+02  0.00000000000E+00 0. -1.
         11    1    3    3    0    0 -0.43952891957E+01  0.23971810874E+02  0.61927068109E+01  0.25145892341E+02  0.51100000000E-03 0.  1.
        -11    1    3    3    0    0 -0.54140531302E+01 -0.97509425072E+01  0.38969237238E+01  0.11814349997E+02  0.51100000000E-03 0. -1.
        -12    1    3    3    0    0  0.76027452055E+01  0.17555713869E+02 -0.11538921939E+02  0.22341699659E+02  0.00000000000E+00 0.  1.
</event>
<event>
 7    1  0.7674040E-012  0.5930192E+02  0.7816164E-02  0.1266605E+00
        -11   -1    0    0    0    0  0.00000000000E+00  0.00000000000E+00  0.45593999997E+02  0.45594000000E+02  0.51100000000E-03 0.  1.
         11   -1    0    0    0    0 -0.00000000000E+00 -0.00000000000E+00 -0.45593999997E+02  0.45594000000E+02  0.51100000000E-03 0. -1.
    9900012    2    1    2    0    0  0.12627121022E+02  0.36279783955E+01  0.29053672894E+02  0.59301916496E+02  0.49999949789E+02 0.  0.
         12    1    1    2    0    0 -0.12627121022E+02 -0.36279783955E+01 -0.29053672894E+02  0.31886083504E+02  0.00000000000E+00 0. -1.
         11    1    3    3    0    0 -0.73853073013E+01  0.10237229142E+02  0.10754994832E+02  0.16583532149E+02  0.51100000000E-03 0. -1.
        -11    1    3    3    0    0  0.15403760463E+02  0.10582609372E+01  0.26442815563E+02  0.30620552702E+02  0.51100000000E-03 0.  1.
         12    1    3    3    0    0  0.46086678609E+01 -0.76675116841E+01 -0.81441375009E+01  0.12097831645E+02  0.00000000000E+00 0. -1.
</event>
<event>
 7    1  0.7674040E-012  0.5930196E+02  0.7816164E-02  0.1266605E+00
        -11   -1    0    0    0    0  0.00000000000E+00  0.00000000000E+00  0.45593999997E+02  0.45594000000E+02  0.51100000000E-03 0. -1.
         11   -1    0    0    0    0 -0.00000000000E+00 -0.00000000000E+00 -0.45593999997E+02  0.45594000000E+02  0.51100000000E-03 0.  1.
    9900012    2    1    2    0    0 -0.28674135976E+01 -0.31741677609E+02  0.98138102036E+00  0.59301964391E+02  0.50000037137E+02 0.  0.
         12    1    1    2    0    0  0.28674135976E+01  0.31741677609E+02 -0.98138102036E+00  0.31886035609E+02  0.00000000000E+00 0. -1.
         11    1    3    3    0    0  0.17680400823E+01 -0.91314472639E+01 -0.19314662298E+02  0.21437478276E+02  0.51100000000E-03 0. -1.
        -11    1    3    3    0    0 -0.14406483787E+01 -0.59985712532E+01  0.20017010119E+02  0.20946097947E+02  0.51100000000E-03 0.  1.
         12    1    3    3    0    0 -0.31948053013E+01 -0.16611659092E+02  0.27903319988E+00  0.16918388168E+02  0.00000000000E+00 0. -1.
</event>
<event>
 7    1  0.7674040E-012  0.5930191E+02  0.7816164E-02  0.1266605E+00
        -11   -1    0    0    0    0  0.00000000000E+00  0.00000000000E+00  0.45593999997E+02  0.45594000000E+02  0.51100000000E-03 0.  1.
         11   -1    0    0    0    0 -0.00000000000E+00 -0.00000000000E+00 -0.45593999997E+02  0.45594000000E+02  0.51100000000E-03 0. -1.
    9900012    2    1    2    0    0 -0.81418178726E+01 -0.29639710262E+02 -0.84806341856E+01  0.59301909319E+02  0.49999936700E+02 0.  0.
         12    1    1    2    0    0  0.81418178726E+01  0.29639710262E+02  0.84806341856E+01  0.31886090681E+02  0.00000000000E+00 0. -1.
         11    1    3    3    0    0 -0.87916895210E+00 -0.31932195689E+02 -0.90904550795E+00  0.31957228033E+02  0.51100000000E-03 0.  1.
        -11    1    3    3    0    0 -0.52117456032E+00  0.12946482146E+02 -0.67638698767E+00  0.12974610688E+02  0.51100000000E-03 0. -1.
        -12    1    3    3    0    0 -0.67414743602E+01 -0.10653996720E+02 -0.68952016900E+01  0.14370070599E+02  0.00000000000E+00 0.  1.
</event>
<event>
 7    1  0.7674040E-012  0.5930197E+02  0.7816164E-02  0.1266605E+00
        -11   -1    0    0    0    0  0.00000000000E+00  0.00000000000E+00  0.45593999997E+02  0.45594000000E+02  0.51100000000E-03 0. -1.
         11   -1    0    0    0    0 -0.00000000000E+00 -0.00000000000E+00 -0.45593999997E+02  0.45594000000E+02  0.51100000000E-03 0.  1.
    9900012    2    1    2    0    0  0.27694502410E+02 -0.13621660449E+02  0.80114761917E+01  0.59301970961E+02  0.50000049119E+02 0.  0.
         12    1    1    2    0    0 -0.27694502410E+02  0.13621660449E+02 -0.80114761917E+01  0.31886029039E+02  0.00000000000E+00 0. -1.
         11    1    3    3    0    0 -0.83585724856E+01 -0.65368289896E+01 -0.41421393531E+01  0.11390925595E+02  0.51100000000E-03 0. -1.
        -11    1    3    3    0    0  0.13928110052E+02 -0.15666344469E+02 -0.59815387764E+00  0.20971036860E+02  0.51100000000E-03 0.  1.
         12    1    3    3    0    0  0.22124964844E+02  0.85815130098E+01  0.12751769422E+02  0.26940008505E+02  0.00000000000E+00 0. -1.
</event>
<event>
 7    1  0.7674040E-012  0.5930200E+02  0.7816164E-02  0.1266605E+00
        -11   -1    0    0    0    0  0.00000000000E+00  0.00000000000E+00  0.45593999997E+02  0.45594000000E+02  0.51100000000E-03 0.  1.
         11   -1    0    0    0    0 -0.00000000000E+00 -0.00000000000E+00 -0.45593999997E+02  0.45594000000E+02  0.51100000000E-03 0. -1.
    9900012    2    1    2    0    0  0.20740391580E+02 -0.22599828643E+02  0.87063650955E+01  0.59302001650E+02  0.50000105089E+02 0.  0.
         12    1    1    2    0    0 -0.20740391580E+02  0.22599828643E+02 -0.87063650955E+01  0.31885998350E+02  0.00000000000E+00 0. -1.
         11    1    3    3    0    0 -0.23927574612E+01  0.18251698953E+01  0.22565881551E+01  0.37614789349E+01  0.51100000000E-03 0. -1.
        -11    1    3    3    0    0  0.31964400995E+02 -0.42842178326E+01  0.87841264543E+01  0.33425115277E+02  0.51100000000E-03 0.  1.
        -12    1    3    3    0    0 -0.88312519544E+01 -0.20140780706E+02 -0.23343495139E+01  0.22115407439E+02  0.00000000000E+00 0.  1.
</event>
<event>
 7    1  0.7674040E-012  0.5930193E+02  0.7816164E-02  0.1266605E+00
        -11   -1    0    0    0    0  0.00000000000E+00  0.00000000000E+00  0.45593999997E+02  0.45594000000E+02  0.51100000000E-03 0.  1.
         11   -1    0    0    0    0 -0.00000000000E+00 -0.00000000000E+00 -0.45593999997E+02  0.45594000000E+02  0.51100000000E-03 0. -1.
    9900012    2    1    2    0    0 -0.22168163633E+02 -0.20993273938E+02  0.91965608579E+01  0.59301925279E+02  0.49999965806E+02 0.  0.
         12    1    1    2    0    0  0.22168163633E+02  0.20993273938E+02 -0.91965608579E+01  0.31886074721E+02  0.00000000000E+00 0. -1.
         11    1    3    3    0    0 -0.71320706995E+01 -0.90414846011E+01 -0.12178846457E+02  0.16761240334E+02  0.51100000000E-03 0. -1.
        -11    1    3    3    0    0  0.88866119667E+01 -0.20374682938E+01  0.11843649929E+02  0.14946410713E+02  0.51100000000E-03 0.  1.
        -12    1    3    3    0    0 -0.23922704900E+02 -0.99143210436E+01  0.95317573864E+01  0.27594274232E+02  0.00000000000E+00 0.  1.
</event>
<event>
 7    1  0.7674040E-012  0.5930197E+02  0.7816164E-02  0.1266605E+00
        -11   -1    0    0    0    0  0.00000000000E+00  0.00000000000E+00  0.45593999997E+02  0.45594000000E+02  0.51100000000E-03 0.  1.
         11   -1    0    0    0    0 -0.00000000000E+00 -0.00000000000E+00 -0.45593999997E+02  0.45594000000E+02  0.51100000000E-03 0. -1.
    9900012    2    1    2    0    0 -0.23292415852E+02  0.85002572545E+01  0.20048140118E+02  0.59301969645E+02  0.50000046720E+02 0.  0.
         12    1    1    2    0    0  0.23292415852E+02 -0.85002572545E+01 -0.20048140118E+02  0.31886030355E+02  0.00000000000E+00 0. -1.
         11    1    3    3    0    0 -0.13523021146E+02 -0.15455003088E+02  0.13169427436E+02  0.24395963613E+02  0.51100000000E-03 0. -1.
        -11    1    3    3    0    0 -0.68406661414E+01  0.22849691397E+02 -0.34621881531E+01  0.24101656733E+02  0.51100000000E-03 0.  1.
        -12    1    3    3    0    0 -0.29287285646E+01  0.11055689449E+01  0.10340900835E+02  0.10804349299E+02  0.00000000000E+00 0.  1.
</event>
<event>
 7    1  0.7674040E-012  0.5930198E+02  0.7816164E-02  0.1266605E+00
        -11   -1    0    0    0    0  0.00000000000E+00  0.00000000000E+00  0.45593999997E+02  0.45594000000E+02  0.51100000000E-03 0.  1.
         11   -1    0    0    0    0 -0.00000000000E+00 -0.00000000000E+00 -0.45593999997E+02  0.45594000000E+02  0.51100000000E-03 0. -1.
    9900012    2    1    2    0    0  0.23146668698E+01  0.13739596048E+02  0.28680729461E+02  0.59301977597E+02  0.50000061222E+02 0.  0.
         12    1    1    2    0    0 -0.23146668698E+01 -0.13739596048E+02 -0.28680729461E+02  0.31886022403E+02  0.00000000000E+00 0. -1.
         11    1    3    3    0    0  0.51798728650E+01 -0.70895248995E+01 -0.88797190688E+01  0.12487668205E+02  0.51100000000E-03 0. -1.
        -11    1    3    3    0    0  0.73000631989E+01  0.41218389062E+01  0.11562712115E+02  0.14282044335E+02  0.51100000000E-03 0.  1.
         12    1    3    3    0    0 -0.10165269194E+02  0.16707282042E+02  0.25997736415E+02  0.32532265057E+02  0.00000000000E+00 0. -1.
</event>
<event>
 7    1  0.7674040E-012  0.5930195E+02  0.7816164E-02  0.1266605E+00
        -11   -1    0    0    0    0  0.00000000000E+00  0.00000000000E+00  0.45593999997E+02  0.45594000000E+02  0.51100000000E-03 0. -1.
         11   -1    0    0    0    0 -0.00000000000E+00 -0.00000000000E+00 -0.45593999997E+02  0.45594000000E+02  0.51100000000E-03 0.  1.
    9900012    2    1    2    0    0  0.31617800971E+02  0.22484198358E+01  0.34611105819E+01  0.59301952637E+02  0.50000015701E+02 0.  0.
         12    1    1    2    0    0 -0.31617800971E+02 -0.22484198358E+01 -0.34611105819E+01  0.31886047363E+02  0.00000000000E+00 0. -1.
         11    1    3    3    0    0  0.38624434381E+02 -0.88505210192E+01 -0.89942363541E+01  0.40633421483E+02  0.51100000000E-03 0. -1.
        -11    1    3    3    0    0 -0.49939187300E+01  0.44452225749E+01  0.42847785833E+01  0.79409417446E+01  0.51100000000E-03 0.  1.
         12    1    3    3    0    0 -0.20127146797E+01  0.66537182801E+01  0.81705683527E+01  0.10727589410E+02  0.00000000000E+00 0. -1.
</event>
<event>
 7    1  0.7674040E-012  0.5930169E+02  0.7816164E-02  0.1266606E+00
        -11   -1    0    0    0    0  0.00000000000E+00  0.00000000000E+00  0.45593999997E+02  0.45594000000E+02  0.51100000000E-03 0. -1.
         11   -1    0    0    0    0 -0.00000000000E+00 -0.00000000000E+00 -0.45593999997E+02  0.45594000000E+02  0.51100000000E-03 0.  1.
    9900012    2    1    2    0    0  0.17192752633E+01 -0.14059432105E+02 -0.28567691789E+02  0.59301693336E+02  0.49999542796E+02 0.  0.
         12    1    1    2    0    0 -0.17192752633E+01  0.14059432105E+02  0.28567691789E+02  0.31886306664E+02  0.00000000000E+00 0. -1.
         11    1    3    3    0    0 -0.15871351787E+02 -0.59220742149E+01 -0.14207992845E+02  0.22109677326E+02  0.51100000000E-03 0. -1.
        -11    1    3    3    0    0  0.22341506435E+02 -0.13213739713E+02 -0.15370523924E+02  0.30166186914E+02  0.51100000000E-03 0.  1.
        -12    1    3    3    0    0 -0.47508793852E+01  0.50763818224E+01  0.10108249798E+01  0.70258290955E+01  0.00000000000E+00 0.  1.
</event>
<event>
 7    1  0.7674040E-012  0.5930196E+02  0.7816164E-02  0.1266605E+00
        -11   -1    0    0    0    0  0.00000000000E+00  0.00000000000E+00  0.45593999997E+02  0.45594000000E+02  0.51100000000E-03 0. -1.
         11   -1    0    0    0    0 -0.00000000000E+00 -0.00000000000E+00 -0.45593999997E+02  0.45594000000E+02  0.51100000000E-03 0.  1.
    9900012    2    1    2    0    0  0.24019325193E+02 -0.97217503050E+01 -0.18581692476E+02  0.59301957489E+02  0.50000024551E+02 0.  0.
         12    1    1    2    0    0 -0.24019325193E+02  0.97217503050E+01  0.18581692476E+02  0.31886042511E+02  0.00000000000E+00 0. -1.
         11    1    3    3    0    0  0.15837851338E+00 -0.11670032364E+02  0.26468803726E+01  0.11967485747E+02  0.51100000000E-03 0. -1.
        -11    1    3    3    0    0  0.23823147051E+02  0.14460575391E+02 -0.77126090092E+01  0.28915997546E+02  0.51100000000E-03 0.  1.
        -12    1    3    3    0    0  0.37799628478E-01 -0.12512293332E+02 -0.13515963839E+02  0.18418474197E+02  0.00000000000E+00 0.  1.
</event>
<event>
 7    1  0.7674040E-012  0.5930195E+02  0.7816164E-02  0.1266605E+00
        -11   -1    0    0    0    0  0.00000000000E+00  0.00000000000E+00  0.45593999997E+02  0.45594000000E+02  0.51100000000E-03 0.  1.
         11   -1    0    0    0    0 -0.00000000000E+00 -0.00000000000E+00 -0.45593999997E+02  0.45594000000E+02  0.51100000000E-03 0. -1.
    9900012    2    1    2    0    0  0.18014722911E+02 -0.15013032057E+02  0.21605527192E+02  0.59301950098E+02  0.50000011071E+02 0.  0.
         12    1    1    2    0    0 -0.18014722911E+02  0.15013032057E+02 -0.21605527192E+02  0.31886049902E+02  0.00000000000E+00 0. -1.
         11    1    3    3    0    0  0.18933028829E+02  0.44946568740E+01  0.20029857226E+01  0.19562041639E+02  0.51100000000E-03 0. -1.
        -11    1    3    3    0    0  0.21143884285E+00 -0.24524357866E+02  0.22962596800E+02  0.33597167845E+02  0.51100000000E-03 0.  1.
        -12    1    3    3    0    0 -0.11297447601E+01  0.50166689352E+01 -0.33600553304E+01  0.61427406140E+01  0.00000000000E+00 0.  1.
</event>
<event>
 7    1  0.7674040E-012  0.5930192E+02  0.7816164E-02  0.1266605E+00
        -11   -1    0    0    0    0  0.00000000000E+00  0.00000000000E+00  0.45593999997E+02  0.45594000000E+02  0.51100000000E-03 0.  1.
         11   -1    0    0    0    0 -0.00000000000E+00 -0.00000000000E+00 -0.45593999997E+02  0.45594000000E+02  0.51100000000E-03 0. -1.
    9900012    2    1    2    0    0 -0.65529475288E+01  0.19798530767E+02  0.24120514935E+02  0.59301918670E+02  0.49999953754E+02 0.  0.
         12    1    1    2    0    0  0.65529475288E+01 -0.19798530767E+02 -0.24120514935E+02  0.31886081330E+02  0.00000000000E+00 0. -1.
         11    1    3    3    0    0 -0.22348299194E+02  0.21268869019E+02  0.26356146963E+02  0.40576566504E+02  0.51100000000E-03 0. -1.
        -11    1    3    3    0    0  0.11901293822E+02  0.32669124323E+01 -0.24797035383E+01  0.12588186580E+02  0.51100000000E-03 0.  1.
         12    1    3    3    0    0  0.38940578439E+01 -0.47372506842E+01  0.24407150995E+00  0.61371655866E+01  0.00000000000E+00 0. -1.
</event>
<event>
 7    1  0.7674040E-012  0.5930194E+02  0.7816164E-02  0.1266605E+00
        -11   -1    0    0    0    0  0.00000000000E+00  0.00000000000E+00  0.45593999997E+02  0.45594000000E+02  0.51100000000E-03 0.  1.
         11   -1    0    0    0    0 -0.00000000000E+00 -0.00000000000E+00 -0.45593999997E+02  0.45594000000E+02  0.51100000000E-03 0. -1.
    9900012    2    1    2    0    0  0.17810281535E+02  0.25806125907E+02  0.57929507795E+01  0.59301944405E+02  0.50000000689E+02 0.  0.
         12    1    1    2    0    0 -0.17810281535E+02 -0.25806125907E+02 -0.57929507795E+01  0.31886055595E+02  0.00000000000E+00 0. -1.
         11    1    3    3    0    0  0.11699747930E+02  0.17570556796E+02 -0.22622997076E+01  0.21230321900E+02  0.51100000000E-03 0. -1.
        -11    1    3    3    0    0 -0.14370664834E+02  0.99328107393E+00  0.77240587130E+01  0.16345142959E+02  0.51100000000E-03 0.  1.
        -12    1    3    3    0    0  0.20481198439E+02  0.72422880364E+01  0.33119177418E+00  0.21726479546E+02  0.00000000000E+00 0.  1.
</event>
<event>
 7    1  0.7674040E-012  0.5930195E+02  0.7816164E-02  0.1266605E+00
        -11   -1    0    0    0    0  0.00000000000E+00  0.00000000000E+00  0.45593999997E+02  0.45594000000E+02  0.51100000000E-03 0.  1.
         11   -1    0    0    0    0 -0.00000000000E+00 -0.00000000000E+00 -0.45593999997E+02  0.45594000000E+02  0.51100000000E-03 0. -1.
    9900012    2    1    2    0    0 -0.11418956121E+02  0.19364550136E+02  0.22612873379E+02  0.59301946570E+02  0.50000004637E+02 0.  0.
         12    1    1    2    0    0  0.11418956121E+02 -0.19364550136E+02 -0.22612873379E+02  0.31886053430E+02  0.00000000000E+00 0. -1.
         11    1    3    3    0    0 -0.85068229758E+01  0.21227494450E+02  0.19684803320E+02  0.30173896662E+02  0.51100000000E-03 0. -1.
        -11    1    3    3    0    0 -0.11990304645E+02 -0.75822037868E+01 -0.57707189609E+01  0.15315300106E+02  0.51100000000E-03 0.  1.
         12    1    3    3    0    0  0.90781714994E+01  0.57192594725E+01  0.86987890201E+01  0.13812749802E+02  0.00000000000E+00 0. -1.
</event>
<event>
 7    1  0.7674040E-012  0.5930194E+02  0.7816164E-02  0.1266605E+00
        -11   -1    0    0    0    0  0.00000000000E+00  0.00000000000E+00  0.45593999997E+02  0.45594000000E+02  0.51100000000E-03 0.  1.
         11   -1    0    0    0    0 -0.00000000000E+00 -0.00000000000E+00 -0.45593999997E+02  0.45594000000E+02  0.51100000000E-03 0. -1.
    9900012    2    1    2    0    0 -0.29629419324E+02 -0.88366100153E+01  0.77931291733E+01  0.59301936769E+02  0.49999986762E+02 0.  0.
         12    1    1    2    0    0  0.29629419324E+02  0.88366100153E+01 -0.77931291733E+01  0.31886063231E+02  0.00000000000E+00 0. -1.
         11    1    3    3    0    0 -0.18906918138E+01 -0.14335362809E+02  0.17049351549E+02  0.22355261817E+02  0.51100000000E-03 0. -1.
        -11    1    3    3    0    0 -0.27859796437E+02  0.10331387380E+02 -0.11174988400E+02  0.31745648343E+02  0.51100000000E-03 0.  1.
        -12    1    3    3    0    0  0.12106892667E+00 -0.48326345863E+01  0.19187660251E+01  0.52010266091E+01  0.00000000000E+00 0.  1.
</event>
<event>
 7    1  0.7674040E-012  0.5930195E+02  0.7816164E-02  0.1266605E+00
        -11   -1    0    0    0    0  0.00000000000E+00  0.00000000000E+00  0.45593999997E+02  0.45594000000E+02  0.51100000000E-03 0. -1.
         11   -1    0    0    0    0 -0.00000000000E+00 -0.00000000000E+00 -0.45593999997E+02  0.45594000000E+02  0.51100000000E-03 0.  1.
    9900012    2    1    2    0    0 -0.99635178822E+01 -0.67167311724E+00 -0.30281960488E+02  0.59301953454E+02  0.50000017191E+02 0.  0.
         12    1    1    2    0    0  0.99635178822E+01  0.67167311724E+00  0.30281960488E+02  0.31886046546E+02  0.00000000000E+00 0. -1.
         11    1    3    3    0    0  0.41341054742E+01 -0.13061558099E+02 -0.15880821143E+02  0.20973688480E+02  0.51100000000E-03 0. -1.
        -11    1    3    3    0    0 -0.10027209755E+02  0.52793810477E+01  0.83960079309E+01  0.14103536761E+02  0.51100000000E-03 0.  1.
        -12    1    3    3    0    0 -0.40704136014E+01  0.71105039339E+01 -0.22797147276E+02  0.24224728213E+02  0.00000000000E+00 0.  1.
</event>
<event>
 7    1  0.7674040E-012  0.5930193E+02  0.7816164E-02  0.1266605E+00
        -11   -1    0    0    0    0  0.00000000000E+00  0.00000000000E+00  0.45593999997E+02  0.45594000000E+02  0.51100000000E-03 0.  1.
         11   -1    0    0    0    0 -0.00000000000E+00 -0.00000000000E+00 -0.45593999997E+02  0.45594000000E+02  0.51100000000E-03 0. -1.
    9900012    2    1    2    0    0 -0.13104187663E+02 -0.20399677128E+02  0.20708807458E+02  0.59301933018E+02  0.49999979922E+02 0.  0.
         12    1    1    2    0    0  0.13104187663E+02  0.20399677128E+02 -0.20708807458E+02  0.31886066982E+02  0.00000000000E+00 0. -1.
         11    1    3    3    0    0  0.25120448091E+01 -0.12303480014E+02 -0.67026787253E+01  0.14234180409E+02  0.51100000000E-03 0. -1.
        -11    1    3    3    0    0 -0.89928338279E+01 -0.13741835108E+02  0.31445128399E+02  0.35475416737E+02  0.51100000000E-03 0.  1.
        -12    1    3    3    0    0 -0.66233986443E+01  0.56456379939E+01 -0.40336422157E+01  0.95923358721E+01  0.00000000000E+00 0.  1.
</event>
<event>
 7    1  0.7674040E-012  0.5930194E+02  0.7816164E-02  0.1266605E+00
        -11   -1    0    0    0    0  0.00000000000E+00  0.00000000000E+00  0.45593999997E+02  0.45594000000E+02  0.51100000000E-03 0. -1.
         11   -1    0    0    0    0 -0.00000000000E+00 -0.00000000000E+00 -0.45593999997E+02  0.45594000000E+02  0.51100000000E-03 0.  1.
    9900012    2    1    2    0    0  0.18751260644E+02 -0.13486935357E+02 -0.21982117472E+02  0.59301942081E+02  0.49999996450E+02 0.  0.
         12    1    1    2    0    0 -0.18751260644E+02  0.13486935357E+02  0.21982117472E+02  0.31886057919E+02  0.00000000000E+00 0. -1.
         11    1    3    3    0    0  0.14811435301E+01  0.85435384686E+01  0.25812168392E+01  0.90470169865E+01  0.51100000000E-03 0. -1.
        -11    1    3    3    0    0  0.10051636746E+02 -0.28296560075E+02 -0.27008901671E+02  0.40388259223E+02  0.51100000000E-03 0.  1.
        -12    1    3    3    0    0  0.72184803677E+01  0.62660862496E+01  0.24455673602E+01  0.98666658715E+01  0.00000000000E+00 0.  1.
</event>
<event>
 7    1  0.7674040E-012  0.5930195E+02  0.7816164E-02  0.1266605E+00
        -11   -1    0    0    0    0  0.00000000000E+00  0.00000000000E+00  0.45593999997E+02  0.45594000000E+02  0.51100000000E-03 0. -1.
         11   -1    0    0    0    0 -0.00000000000E+00 -0.00000000000E+00 -0.45593999997E+02  0.45594000000E+02  0.51100000000E-03 0.  1.
    9900012    2    1    2    0    0 -0.43655634301E+01  0.21403999774E+02 -0.23227803187E+02  0.59301949895E+02  0.50000010701E+02 0.  0.
         12    1    1    2    0    0  0.43655634301E+01 -0.21403999774E+02  0.23227803187E+02  0.31886050105E+02  0.00000000000E+00 0. -1.
         11    1    3    3    0    0  0.62608659529E+00 -0.12415957016E+02  0.36868623892E+01  0.12966916657E+02  0.51100000000E-03 0. -1.
        -11    1    3    3    0    0  0.54357284737E+01  0.13234333618E+02 -0.73666826768E+01  0.16092319418E+02  0.51100000000E-03 0.  1.
         12    1    3    3    0    0 -0.10427378499E+02  0.20585623173E+02 -0.19547982899E+02  0.30242713820E+02  0.00000000000E+00 0. -1.
</event>
<event>
 7    1  0.7674040E-012  0.5930194E+02  0.7816164E-02  0.1266605E+00
        -11   -1    0    0    0    0  0.00000000000E+00  0.00000000000E+00  0.45593999997E+02  0.45594000000E+02  0.51100000000E-03 0.  1.
         11   -1    0    0    0    0 -0.00000000000E+00 -0.00000000000E+00 -0.45593999997E+02  0.45594000000E+02  0.51100000000E-03 0. -1.
    9900012    2    1    2    0    0  0.76696685396E+01  0.23813312861E+02  0.19769253717E+02  0.59301936000E+02  0.49999985359E+02 0.  0.
         12    1    1    2    0    0 -0.76696685396E+01 -0.23813312861E+02 -0.19769253717E+02  0.31886064000E+02  0.00000000000E+00 0. -1.
         11    1    3    3    0    0 -0.87025438118E+01  0.10640788780E+02 -0.69354857151E+01  0.15396805416E+02  0.51100000000E-03 0. -1.
        -11    1    3    3    0    0  0.18029066001E+02 -0.21779843323E+01  0.20166514983E+02  0.27138149595E+02  0.51100000000E-03 0.  1.
        -12    1    3    3    0    0 -0.16568536495E+01  0.15350508413E+02  0.65382244491E+01  0.16766980989E+02  0.00000000000E+00 0.  1.
</event>
<event>
 7    1  0.7674040E-012  0.5930196E+02  0.7816164E-02  0.1266605E+00
        -11   -1    0    0    0    0  0.00000000000E+00  0.00000000000E+00  0.45593999997E+02  0.45594000000E+02  0.51100000000E-03 0.  1.
         11   -1    0    0    0    0 -0.00000000000E+00 -0.00000000000E+00 -0.45593999997E+02  0.45594000000E+02  0.51100000000E-03 0. -1.
    9900012    2    1    2    0    0 -0.37779640813E+01  0.10299125726E+02  0.29939515641E+02  0.59301959165E+02  0.50000027606E+02 0.  0.
         12    1    1    2    0    0  0.37779640813E+01 -0.10299125726E+02 -0.29939515641E+02  0.31886040835E+02  0.00000000000E+00 0. -1.
         11    1    3    3    0    0  0.12203014105E+02  0.44169608349E+01  0.34723826879E+02  0.37069761932E+02  0.51100000000E-03 0. -1.
        -11    1    3    3    0    0 -0.10565642041E+02  0.18097637835E+01  0.37308230293E+01  0.11350201647E+02  0.51100000000E-03 0.  1.
         12    1    3    3    0    0 -0.54153361452E+01  0.40724011075E+01 -0.85151342674E+01  0.10881995586E+02  0.00000000000E+00 0. -1.
</event>
<event>
 7    1  0.7674040E-012  0.5930196E+02  0.7816164E-02  0.1266605E+00
        -11   -1    0    0    0    0  0.00000000000E+00  0.00000000000E+00  0.45593999997E+02  0.45594000000E+02  0.51100000000E-03 0. -1.
         11   -1    0    0    0    0 -0.00000000000E+00 -0.00000000000E+00 -0.45593999997E+02  0.45594000000E+02  0.51100000000E-03 0.  1.
    9900012    2    1    2    0    0 -0.19833106346E+02 -0.18572629261E+01 -0.24898154493E+02  0.59301958695E+02  0.50000026750E+02 0.  0.
         12    1    1    2    0    0  0.19833106346E+02  0.18572629261E+01  0.24898154493E+02  0.31886041305E+02  0.00000000000E+00 0. -1.
         11    1    3    3    0    0 -0.53954379610E+01 -0.14599918997E+02  0.68335647168E+01  0.16998999750E+02  0.51100000000E-03 0. -1.
        -11    1    3    3    0    0 -0.18796716391E+02  0.84580676735E+01 -0.18371622101E+02  0.27611083911E+02  0.51100000000E-03 0.  1.
         12    1    3    3    0    0  0.43590480059E+01  0.42845883976E+01 -0.13360097109E+02  0.14691875034E+02  0.00000000000E+00 0. -1.
</event>
<event>
 7    1  0.7674040E-012  0.5930198E+02  0.7816164E-02  0.1266605E+00
        -11   -1    0    0    0    0  0.00000000000E+00  0.00000000000E+00  0.45593999997E+02  0.45594000000E+02  0.51100000000E-03 0.  1.
         11   -1    0    0    0    0 -0.00000000000E+00 -0.00000000000E+00 -0.45593999997E+02  0.45594000000E+02  0.51100000000E-03 0. -1.
    9900012    2    1    2    0    0  0.22385877476E+02 -0.16917877962E+02  0.15145169673E+02  0.59301980030E+02  0.50000065660E+02 0.  0.
         12    1    1    2    0    0 -0.22385877476E+02  0.16917877962E+02 -0.15145169673E+02  0.31886019970E+02  0.00000000000E+00 0. -1.
         11    1    3    3    0    0  0.51038928774E+01 -0.12780328036E+02 -0.56394605661E+01  0.14872458537E+02  0.51100000000E-03 0. -1.
        -11    1    3    3    0    0  0.22653783540E+02  0.73216704663E+01  0.52274842536E+01  0.24374727875E+02  0.51100000000E-03 0.  1.
        -12    1    3    3    0    0 -0.53717989415E+01 -0.11459220393E+02  0.15557145985E+02  0.20054793619E+02  0.00000000000E+00 0.  1.
</event>
<event>
 7    1  0.7674040E-012  0.5930161E+02  0.7816164E-02  0.1266606E+00
        -11   -1    0    0    0    0  0.00000000000E+00  0.00000000000E+00  0.45593999997E+02  0.45594000000E+02  0.51100000000E-03 0.  1.
         11   -1    0    0    0    0 -0.00000000000E+00 -0.00000000000E+00 -0.45593999997E+02  0.45594000000E+02  0.51100000000E-03 0. -1.
    9900012    2    1    2    0    0  0.14525426517E+02  0.28376361046E+02 -0.73194456123E+00  0.59301613805E+02  0.49999397750E+02 0.  0.
         12    1    1    2    0    0 -0.14525426517E+02 -0.28376361046E+02  0.73194456123E+00  0.31886386195E+02  0.00000000000E+00 0. -1.
         11    1    3    3    0    0  0.86181077301E+01  0.46312597842E+01 -0.14200020331E+01  0.98861900685E+01  0.51100000000E-03 0. -1.
        -11    1    3    3    0    0 -0.27271135258E+01 -0.11338735667E+02  0.56271042948E+01  0.12948682471E+02  0.51100000000E-03 0.  1.
        -12    1    3    3    0    0  0.86344323124E+01  0.35083836930E+02 -0.49390468229E+01  0.36466741266E+02  0.00000000000E+00 0.  1.
</event>
<event>
 7    1  0.7674040E-012  0.5930196E+02  0.7816164E-02  0.1266605E+00
        -11   -1    0    0    0    0  0.00000000000E+00  0.00000000000E+00  0.45593999997E+02  0.45594000000E+02  0.51100000000E-03 0.  1.
         11   -1    0    0    0    0 -0.00000000000E+00 -0.00000000000E+00 -0.45593999997E+02  0.45594000000E+02  0.51100000000E-03 0. -1.
    9900012    2    1    2    0    0 -0.49762470614E+00  0.42767365998E+01  0.31594008531E+02  0.59301961028E+02  0.50000031004E+02 0.  0.
         12    1    1    2    0    0  0.49762470614E+00 -0.42767365998E+01 -0.31594008531E+02  0.31886038972E+02  0.00000000000E+00 0. -1.
         11    1    3    3    0    0  0.32464422601E+01  0.78373728985E+01  0.80754103257E+01  0.11712218128E+02  0.51100000000E-03 0. -1.
        -11    1    3    3    0    0 -0.10337411558E+02  0.59588778739E+01 -0.77620793274E+01  0.14234471504E+02  0.51100000000E-03 0.  1.
        -12    1    3    3    0    0  0.65933445922E+01 -0.95195141726E+01  0.31280677532E+02  0.33355271396E+02  0.00000000000E+00 0.  1.
</event>
<event>
 7    1  0.7674040E-012  0.5930196E+02  0.7816164E-02  0.1266605E+00
        -11   -1    0    0    0    0  0.00000000000E+00  0.00000000000E+00  0.45593999997E+02  0.45594000000E+02  0.51100000000E-03 0.  1.
         11   -1    0    0    0    0 -0.00000000000E+00 -0.00000000000E+00 -0.45593999997E+02  0.45594000000E+02  0.51100000000E-03 0. -1.
    9900012    2    1    2    0    0 -0.18276272370E+01 -0.22476304143E+02  0.22543183318E+02  0.59301959429E+02  0.50000028087E+02 0.  0.
         12    1    1    2    0    0  0.18276272370E+01  0.22476304143E+02 -0.22543183318E+02  0.31886040571E+02  0.00000000000E+00 0. -1.
         11    1    3    3    0    0 -0.43203610347E+01 -0.49823815138E+01 -0.55204097939E+00  0.66177333373E+01  0.51100000000E-03 0. -1.
        -11    1    3    3    0    0  0.87551977166E+01 -0.26700095762E+01  0.32690835425E+02  0.33948095075E+02  0.51100000000E-03 0.  1.
        -12    1    3    3    0    0 -0.62624639189E+01 -0.14823913053E+02 -0.95956111280E+01  0.18736131016E+02  0.00000000000E+00 0.  1.
</event>
<event>
 7    1  0.7674040E-012  0.5930196E+02  0.7816164E-02  0.1266605E+00
        -11   -1    0    0    0    0  0.00000000000E+00  0.00000000000E+00  0.45593999997E+02  0.45594000000E+02  0.51100000000E-03 0.  1.
         11   -1    0    0    0    0 -0.00000000000E+00 -0.00000000000E+00 -0.45593999997E+02  0.45594000000E+02  0.51100000000E-03 0. -1.
    9900012    2    1    2    0    0 -0.33605625070E+01  0.35685237089E+01  0.31507008337E+02  0.59301963618E+02  0.50000035727E+02 0.  0.
         12    1    1    2    0    0  0.33605625070E+01 -0.35685237089E+01 -0.31507008337E+02  0.31886036382E+02  0.00000000000E+00 0. -1.
         11    1    3    3    0    0 -0.23449876075E+02  0.11289407527E+02  0.12564241611E+02  0.28899958093E+02  0.51100000000E-03 0. -1.
        -11    1    3    3    0    0  0.75696681704E+01 -0.37222762255E+01  0.14031057747E+02  0.16371493465E+02  0.51100000000E-03 0.  1.
         12    1    3    3    0    0  0.12519645398E+02 -0.39986075925E+01  0.49117089794E+01  0.14030512060E+02  0.00000000000E+00 0. -1.
</event>
<event>
 7    1  0.7674040E-012  0.5930161E+02  0.7816164E-02  0.1266606E+00
        -11   -1    0    0    0    0  0.00000000000E+00  0.00000000000E+00  0.45593999997E+02  0.45594000000E+02  0.51100000000E-03 0. -1.
         11   -1    0    0    0    0 -0.00000000000E+00 -0.00000000000E+00 -0.45593999997E+02  0.45594000000E+02  0.51100000000E-03 0.  1.
    9900012    2    1    2    0    0  0.30508894161E+02  0.79018431617E+01  0.48487499856E+01  0.59301605963E+02  0.49999383447E+02 0.  0.
         12    1    1    2    0    0 -0.30508894161E+02 -0.79018431617E+01 -0.48487499856E+01  0.31886394037E+02  0.00000000000E+00 0. -1.
         11    1    3    3    0    0  0.10800764195E+02  0.20755025471E+02  0.32337959425E+01  0.23619589877E+02  0.51100000000E-03 0. -1.
        -11    1    3    3    0    0  0.15576787165E+02 -0.15006098556E+02 -0.95050978732E+01  0.23625540800E+02  0.51100000000E-03 0.  1.
         12    1    3    3    0    0  0.41313428013E+01  0.21529162468E+01  0.11120051916E+02  0.12056475286E+02  0.00000000000E+00 0. -1.
</event>
<event>
 7    1  0.7674040E-012  0.5930192E+02  0.7816164E-02  0.1266605E+00
        -11   -1    0    0    0    0  0.00000000000E+00  0.00000000000E+00  0.45593999997E+02  0.45594000000E+02  0.51100000000E-03 0.  1.
         11   -1    0    0    0    0 -0.00000000000E+00 -0.00000000000E+00 -0.45593999997E+02  0.45594000000E+02  0.51100000000E-03 0. -1.
    9900012    2    1    2    0    0 -0.70567654908E+01  0.24846653398E+02  0.18696735092E+02  0.59301921104E+02  0.49999958193E+02 0.  0.
         12    1    1    2    0    0  0.70567654908E+01 -0.24846653398E+02 -0.18696735092E+02  0.31886078896E+02  0.00000000000E+00 0. -1.
         11    1    3    3    0    0 -0.31069172998E+01  0.51924078506E+01 -0.10418010043E+02  0.12047778547E+02  0.51100000000E-03 0. -1.
        -11    1    3    3    0    0  0.24983653667E+01  0.11287343418E+02  0.33782245443E+02  0.35705546605E+02  0.51100000000E-03 0.  1.
        -12    1    3    3    0    0 -0.64482135577E+01  0.83669021296E+01 -0.46675003086E+01  0.11548595952E+02  0.00000000000E+00 0.  1.
</event>
<event>
 7    1  0.7674040E-012  0.5930196E+02  0.7816164E-02  0.1266605E+00
        -11   -1    0    0    0    0  0.00000000000E+00  0.00000000000E+00  0.45593999997E+02  0.45594000000E+02  0.51100000000E-03 0. -1.
         11   -1    0    0    0    0 -0.00000000000E+00 -0.00000000000E+00 -0.45593999997E+02  0.45594000000E+02  0.51100000000E-03 0.  1.
    9900012    2    1    2    0    0  0.19043122278E+01 -0.30230310955E+02 -0.99609969500E+01  0.59301959704E+02  0.50000028590E+02 0.  0.
         12    1    1    2    0    0 -0.19043122278E+01  0.30230310955E+02  0.99609969500E+01  0.31886040296E+02  0.00000000000E+00 0. -1.
         11    1    3    3    0    0  0.38030998078E+01  0.64659172801E+01  0.72026547201E+01  0.10399513916E+02  0.51100000000E-03 0. -1.
        -11    1    3    3    0    0  0.10415262626E+01 -0.23338141709E+02 -0.24101705467E+02  0.33565545461E+02  0.51100000000E-03 0.  1.
        -12    1    3    3    0    0 -0.29403138426E+01 -0.13358086527E+02  0.69380537972E+01  0.15336900327E+02  0.00000000000E+00 0.  1.
</event>
<event>
 7    1  0.7674040E-012  0.5930195E+02  0.7816164E-02  0.1266605E+00
        -11   -1    0    0    0    0  0.00000000000E+00  0.00000000000E+00  0.45593999997E+02  0.45594000000E+02  0.51100000000E-03 0. -1.
         11   -1    0    0    0    0 -0.00000000000E+00 -0.00000000000E+00 -0.45593999997E+02  0.45594000000E+02  0.51100000000E-03 0.  1.
    9900012    2    1    2    0    0 -0.13378576951E+02  0.20523032216E+02 -0.20409292792E+02  0.59301946546E+02  0.50000004593E+02 0.  0.
         12    1    1    2    0    0  0.13378576951E+02 -0.20523032216E+02  0.20409292792E+02  0.31886053454E+02  0.00000000000E+00 0. -1.
         11    1    3    3    0    0 -0.74897846549E+01  0.29838136695E+02 -0.19505059917E+02  0.36426070859E+02  0.51100000000E-03 0. -1.
        -11    1    3    3    0    0  0.60801456921E+01 -0.51427042203E+01  0.44427855445E+01  0.91188772330E+01  0.51100000000E-03 0.  1.
         12    1    3    3    0    0 -0.11968937988E+02 -0.41724002586E+01 -0.53470184197E+01  0.13756998454E+02  0.00000000000E+00 0. -1.
</event>
<event>
 7    1  0.7674040E-012  0.5930196E+02  0.7816164E-02  0.1266605E+00
        -11   -1    0    0    0    0  0.00000000000E+00  0.00000000000E+00  0.45593999997E+02  0.45594000000E+02  0.51100000000E-03 0.  1.
         11   -1    0    0    0    0 -0.00000000000E+00 -0.00000000000E+00 -0.45593999997E+02  0.45594000000E+02  0.51100000000E-03 0. -1.
    9900012    2    1    2    0    0 -0.36314559195E+01  0.19868064923E+02  0.24673711049E+02  0.59301960848E+02  0.50000030676E+02 0.  0.
         12    1    1    2    0    0  0.36314559195E+01 -0.19868064923E+02 -0.24673711049E+02  0.31886039152E+02  0.00000000000E+00 0. -1.
         11    1    3    3    0    0 -0.55406185612E+00  0.11628136822E+02 -0.51540692374E+01  0.12731259971E+02  0.51100000000E-03 0. -1.
        -11    1    3    3    0    0 -0.18233062548E+02  0.94196954304E+01  0.18231195756E+02  0.27450896722E+02  0.51100000000E-03 0.  1.
        -12    1    3    3    0    0  0.15155668484E+02 -0.11797673292E+01  0.11596584530E+02  0.19119804155E+02  0.00000000000E+00 0.  1.
</event>
<event>
 7    1  0.7674040E-012  0.5930187E+02  0.7816164E-02  0.1266605E+00
        -11   -1    0    0    0    0  0.00000000000E+00  0.00000000000E+00  0.45593999997E+02  0.45594000000E+02  0.51100000000E-03 0.  1.
         11   -1    0    0    0    0 -0.00000000000E+00 -0.00000000000E+00 -0.45593999997E+02  0.45594000000E+02  0.51100000000E-03 0. -1.
    9900012    2    1    2    0    0 -0.14669373121E+02  0.15180946605E+02  0.23897145826E+02  0.59301870943E+02  0.49999866711E+02 0.  0.
         12    1    1    2    0    0  0.14669373121E+02 -0.15180946605E+02 -0.23897145826E+02  0.31886129057E+02  0.00000000000E+00 0. -1.
         11    1    3    3    0    0  0.56338797207E+01  0.19651522938E+02 -0.71214229463E+01  0.21648039623E+02  0.51100000000E-03 0. -1.
        -11    1    3    3    0    0 -0.99161397082E+01  0.16631862919E+00  0.13123375875E+02  0.16449330784E+02  0.51100000000E-03 0.  1.
         12    1    3    3    0    0 -0.10387113134E+02 -0.46368949627E+01  0.17895192897E+02  0.21204500536E+02  0.00000000000E+00 0. -1.
</event>
<event>
 7    1  0.7674040E-012  0.5930199E+02  0.7816164E-02  0.1266605E+00
        -11   -1    0    0    0    0  0.00000000000E+00  0.00000000000E+00  0.45593999997E+02  0.45594000000E+02  0.51100000000E-03 0.  1.
         11   -1    0    0    0    0 -0.00000000000E+00 -0.00000000000E+00 -0.45593999997E+02  0.45594000000E+02  0.51100000000E-03 0. -1.
    9900012    2    1    2    0    0 -0.14550004403E+02 -0.27916400571E+02  0.50684967843E+01  0.59301988825E+02  0.50000081700E+02 0.  0.
         12    1    1    2    0    0  0.14550004403E+02  0.27916400571E+02 -0.50684967843E+01  0.31886011175E+02  0.00000000000E+00 0. -1.
         11    1    3    3    0    0 -0.11317335318E+01  0.54877657968E+00 -0.55484988493E+01  0.56892720328E+01  0.51100000000E-03 0. -1.
        -11    1    3    3    0    0 -0.22215925933E+02  0.11813414552E+00  0.79159617174E+01  0.23584396768E+02  0.51100000000E-03 0.  1.
        -12    1    3    3    0    0  0.87976550621E+01 -0.28583311297E+02  0.27010339162E+01  0.30028320024E+02  0.00000000000E+00 0.  1.
</event>
<event>
 7    1  0.7674040E-012  0.5930195E+02  0.7816164E-02  0.1266605E+00
        -11   -1    0    0    0    0  0.00000000000E+00  0.00000000000E+00  0.45593999997E+02  0.45594000000E+02  0.51100000000E-03 0.  1.
         11   -1    0    0    0    0 -0.00000000000E+00 -0.00000000000E+00 -0.45593999997E+02  0.45594000000E+02  0.51100000000E-03 0. -1.
    9900012    2    1    2    0    0  0.13143772457E+02 -0.23887863102E+02 -0.16532744779E+02  0.59301946498E+02  0.50000004505E+02 0.  0.
         12    1    1    2    0    0 -0.13143772457E+02  0.23887863102E+02  0.16532744779E+02  0.31886053502E+02  0.00000000000E+00 0. -1.
         11    1    3    3    0    0 -0.15756835999E+02 -0.48221202576E+01 -0.16710266240E+02  0.23468355771E+02  0.51100000000E-03 0. -1.
        -11    1    3    3    0    0  0.19218934793E+02 -0.74156424372E+01 -0.11185039518E+01  0.20630323766E+02  0.51100000000E-03 0.  1.
         12    1    3    3    0    0  0.96816736629E+01 -0.11650100408E+02  0.12960254134E+01  0.15203266961E+02  0.00000000000E+00 0. -1.
</event>
<event>
 7    1  0.7674040E-012  0.5930192E+02  0.7816164E-02  0.1266605E+00
        -11   -1    0    0    0    0  0.00000000000E+00  0.00000000000E+00  0.45593999997E+02  0.45594000000E+02  0.51100000000E-03 0.  1.
         11   -1    0    0    0    0 -0.00000000000E+00 -0.00000000000E+00 -0.45593999997E+02  0.45594000000E+02  0.51100000000E-03 0. -1.
    9900012    2    1    2    0    0 -0.88905634847E+01 -0.13546250775E+02  0.27462315387E+02  0.59301924739E+02  0.49999964823E+02 0.  0.
         12    1    1    2    0    0  0.88905634847E+01  0.13546250775E+02 -0.27462315387E+02  0.31886075261E+02  0.00000000000E+00 0. -1.
         11    1    3    3    0    0 -0.16007635430E+02  0.12844067794E+02  0.24880466142E+01  0.20673771929E+02  0.51100000000E-03 0. -1.
        -11    1    3    3    0    0 -0.21703561976E+01 -0.10580089041E+02  0.65338834645E+01  0.12623009290E+02  0.51100000000E-03 0.  1.
         12    1    3    3    0    0  0.92874281425E+01 -0.15810229528E+02  0.18440385308E+02  0.26005143521E+02  0.00000000000E+00 0. -1.
</event>
<event>
 7    1  0.7674040E-012  0.5930192E+02  0.7816164E-02  0.1266605E+00
        -11   -1    0    0    0    0  0.00000000000E+00  0.00000000000E+00  0.45593999997E+02  0.45594000000E+02  0.51100000000E-03 0.  1.
         11   -1    0    0    0    0 -0.00000000000E+00 -0.00000000000E+00 -0.45593999997E+02  0.45594000000E+02  0.51100000000E-03 0. -1.
    9900012    2    1    2    0    0 -0.15786522527E+02 -0.13998937458E+02  0.23906851713E+02  0.59301919929E+02  0.49999956050E+02 0.  0.
         12    1    1    2    0    0  0.15786522527E+02  0.13998937458E+02 -0.23906851713E+02  0.31886080071E+02  0.00000000000E+00 0. -1.
         11    1    3    3    0    0 -0.22186791240E+01  0.16548888429E+02  0.80708887317E+01  0.18545282162E+02  0.51100000000E-03 0. -1.
        -11    1    3    3    0    0 -0.16818064569E+02 -0.25964588805E+02  0.96632799353E+01  0.32409661323E+02  0.51100000000E-03 0.  1.
        -12    1    3    3    0    0  0.32502211656E+01 -0.45832370816E+01  0.61726830463E+01  0.83469764443E+01  0.00000000000E+00 0.  1.
</event>
<event>
 7    1  0.7674040E-012  0.5930193E+02  0.7816164E-02  0.1266605E+00
        -11   -1    0    0    0    0  0.00000000000E+00  0.00000000000E+00  0.45593999997E+02  0.45594000000E+02  0.51100000000E-03 0. -1.
         11   -1    0    0    0    0 -0.00000000000E+00 -0.00000000000E+00 -0.45593999997E+02  0.45594000000E+02  0.51100000000E-03 0.  1.
    9900012    2    1    2    0    0  0.27580781590E+02 -0.11816002263E+02 -0.10789065429E+02  0.59301931640E+02  0.49999977408E+02 0.  0.
         12    1    1    2    0    0 -0.27580781590E+02  0.11816002263E+02  0.10789065429E+02  0.31886068360E+02  0.00000000000E+00 0. -1.
         11    1    3    3    0    0  0.63301184919E+01 -0.12856890114E+02 -0.13362577085E+02  0.19594093246E+02  0.51100000000E-03 0. -1.
        -11    1    3    3    0    0 -0.90362111009E+01  0.50107308954E+00  0.25999138931E+01  0.94161424062E+01  0.51100000000E-03 0.  1.
        -12    1    3    3    0    0  0.30286874199E+02  0.53981476150E+00 -0.26402237137E-01  0.30291695988E+02  0.00000000000E+00 0.  1.
</event>
<event>
 7    1  0.7674040E-012  0.5930197E+02  0.7816164E-02  0.1266605E+00
        -11   -1    0    0    0    0  0.00000000000E+00  0.00000000000E+00  0.45593999997E+02  0.45594000000E+02  0.51100000000E-03 0. -1.
         11   -1    0    0    0    0 -0.00000000000E+00 -0.00000000000E+00 -0.45593999997E+02  0.45594000000E+02  0.51100000000E-03 0.  1.
    9900012    2    1    2    0    0 -0.11871936922E+02  0.18271677679E+02 -0.23279214660E+02  0.59301969726E+02  0.50000046867E+02 0.  0.
         12    1    1    2    0    0  0.11871936922E+02 -0.18271677679E+02  0.23279214660E+02  0.31886030274E+02  0.00000000000E+00 0. -1.
         11    1    3    3    0    0  0.67362636574E+01  0.81694788853E+01 -0.93287247699E+01  0.14111794337E+02  0.51100000000E-03 0. -1.
        -11    1    3    3    0    0 -0.83860714482E+01 -0.14106954559E+02 -0.28222192475E+01  0.16652245584E+02  0.51100000000E-03 0.  1.
        -12    1    3    3    0    0 -0.10222129131E+02  0.24209153353E+02 -0.11128270642E+02  0.28537929804E+02  0.00000000000E+00 0.  1.
</event>
<event>
 7    1  0.7674040E-012  0.5930195E+02  0.7816164E-02  0.1266605E+00
        -11   -1    0    0    0    0  0.00000000000E+00  0.00000000000E+00  0.45593999997E+02  0.45594000000E+02  0.51100000000E-03 0.  1.
         11   -1    0    0    0    0 -0.00000000000E+00 -0.00000000000E+00 -0.45593999997E+02  0.45594000000E+02  0.51100000000E-03 0. -1.
    9900012    2    1    2    0    0 -0.86097213399E+01 -0.29338105489E+02  0.90481344585E+01  0.59301945487E+02  0.50000002661E+02 0.  0.
         12    1    1    2    0    0  0.86097213399E+01  0.29338105489E+02 -0.90481344585E+01  0.31886054513E+02  0.00000000000E+00 0. -1.
         11    1    3    3    0    0  0.91891935417E+01  0.43535580981E+01  0.81283032741E+00  0.10200756808E+02  0.51100000000E-03 0. -1.
        -11    1    3    3    0    0 -0.25178038837E+02 -0.17673374641E+02  0.56557168275E+01  0.31277291186E+02  0.51100000000E-03 0.  1.
        -12    1    3    3    0    0  0.73791239555E+01 -0.16018288947E+02  0.25795873036E+01  0.17823897492E+02  0.00000000000E+00 0.  1.
</event>
<event>
 7    1  0.7674040E-012  0.5930193E+02  0.7816164E-02  0.1266605E+00
        -11   -1    0    0    0    0  0.00000000000E+00  0.00000000000E+00  0.45593999997E+02  0.45594000000E+02  0.51100000000E-03 0. -1.
         11   -1    0    0    0    0 -0.00000000000E+00 -0.00000000000E+00 -0.45593999997E+02  0.45594000000E+02  0.51100000000E-03 0.  1.
    9900012    2    1    2    0    0 -0.30372867596E+02  0.73972471933E+01  0.62842093218E+01  0.59301927196E+02  0.49999969303E+02 0.  0.
         12    1    1    2    0    0  0.30372867596E+02 -0.73972471933E+01 -0.62842093218E+01  0.31886072804E+02  0.00000000000E+00 0. -1.
         11    1    3    3    0    0 -0.16058226381E+02 -0.12727604949E+02 -0.66536169247E+01  0.21543657551E+02  0.51100000000E-03 0.  1.
        -11    1    3    3    0    0  0.27937497800E+01  0.17454673960E+02  0.34382741252E+01  0.18008120671E+02  0.51100000000E-03 0. -1.
        -12    1    3    3    0    0 -0.17108390996E+02  0.26701781817E+01  0.94995521214E+01  0.19750148974E+02  0.00000000000E+00 0.  1.
</event>
<event>
 7    1  0.7674040E-012  0.5930195E+02  0.7816164E-02  0.1266605E+00
        -11   -1    0    0    0    0  0.00000000000E+00  0.00000000000E+00  0.45593999997E+02  0.45594000000E+02  0.51100000000E-03 0.  1.
         11   -1    0    0    0    0 -0.00000000000E+00 -0.00000000000E+00 -0.45593999997E+02  0.45594000000E+02  0.51100000000E-03 0. -1.
    9900012    2    1    2    0    0 -0.65606234796E+01 -0.30212705726E+02  0.78019903097E+01  0.59301946301E+02  0.50000004146E+02 0.  0.
         12    1    1    2    0    0  0.65606234796E+01  0.30212705726E+02 -0.78019903097E+01  0.31886053699E+02  0.00000000000E+00 0. -1.
         11    1    3    3    0    0  0.20601893681E+01 -0.10117122188E+02 -0.10610393471E+02  0.14804762459E+02  0.51100000000E-03 0. -1.
        -11    1    3    3    0    0 -0.11971439858E+01 -0.27865019905E+02  0.18980078730E+02  0.33736269458E+02  0.51100000000E-03 0.  1.
        -12    1    3    3    0    0 -0.74236688620E+01  0.77694363669E+01 -0.56769494938E+00  0.10760914384E+02  0.00000000000E+00 0.  1.
</event>
<event>
 7    1  0.7674040E-012  0.5930174E+02  0.7816164E-02  0.1266605E+00
        -11   -1    0    0    0    0  0.00000000000E+00  0.00000000000E+00  0.45593999997E+02  0.45594000000E+02  0.51100000000E-03 0.  1.
         11   -1    0    0    0    0 -0.00000000000E+00 -0.00000000000E+00 -0.45593999997E+02  0.45594000000E+02  0.51100000000E-03 0. -1.
    9900012    2    1    2    0    0 -0.46709386891E+01 -0.13863803726E+02  0.28332157608E+02  0.59301735297E+02  0.49999619324E+02 0.  0.
         12    1    1    2    0    0  0.46709386891E+01  0.13863803726E+02 -0.28332157608E+02  0.31886264703E+02  0.00000000000E+00 0. -1.
         11    1    3    3    0    0 -0.20179258423E+02  0.81024849695E+01  0.73254296557E+01  0.22945907109E+02  0.51100000000E-03 0. -1.
        -11    1    3    3    0    0  0.20115364554E+01 -0.12054050130E+02  0.50434860556E+01  0.13220558056E+02  0.51100000000E-03 0.  1.
         12    1    3    3    0    0  0.13496783278E+02 -0.99122385650E+01  0.15963241897E+02  0.23135270132E+02  0.00000000000E+00 0. -1.
</event>
<event>
 7    1  0.7674040E-012  0.5930168E+02  0.7816164E-02  0.1266606E+00
        -11   -1    0    0    0    0  0.00000000000E+00  0.00000000000E+00  0.45593999997E+02  0.45594000000E+02  0.51100000000E-03 0. -1.
         11   -1    0    0    0    0 -0.00000000000E+00 -0.00000000000E+00 -0.45593999997E+02  0.45594000000E+02  0.51100000000E-03 0.  1.
    9900012    2    1    2    0    0 -0.32922879201E+01 -0.55373250806E+01 -0.31228769433E+02  0.59301683670E+02  0.49999525168E+02 0.  0.
         12    1    1    2    0    0  0.32922879201E+01  0.55373250806E+01  0.31228769433E+02  0.31886316330E+02  0.00000000000E+00 0. -1.
         11    1    3    3    0    0  0.14065126947E+02  0.23855562553E-02  0.50880626803E+01  0.14957144909E+02  0.51100000000E-03 0. -1.
        -11    1    3    3    0    0 -0.53096780936E+01  0.23099219608E+01 -0.26025551948E+02  0.26661916199E+02  0.51100000000E-03 0.  1.
         12    1    3    3    0    0 -0.12047736773E+02 -0.78496325977E+01 -0.10291280165E+02  0.17682622563E+02  0.00000000000E+00 0. -1.
</event>
<event>
 7    1  0.7674040E-012  0.5930195E+02  0.7816164E-02  0.1266605E+00
        -11   -1    0    0    0    0  0.00000000000E+00  0.00000000000E+00  0.45593999997E+02  0.45594000000E+02  0.51100000000E-03 0.  1.
         11   -1    0    0    0    0 -0.00000000000E+00 -0.00000000000E+00 -0.45593999997E+02  0.45594000000E+02  0.51100000000E-03 0. -1.
    9900012    2    1    2    0    0  0.17130488026E+02  0.18027477394E+02  0.19956868886E+02  0.59301950121E+02  0.50000011112E+02 0.  0.
         12    1    1    2    0    0 -0.17130488026E+02 -0.18027477394E+02 -0.19956868886E+02  0.31886049879E+02  0.00000000000E+00 0. -1.
         11    1    3    3    0    0 -0.96975389717E+01 -0.85568531596E+01  0.15028820819E+00  0.12933854217E+02  0.51100000000E-03 0. -1.
        -11    1    3    3    0    0  0.21046211738E+02  0.13428994885E+02  0.20012817661E+02  0.31996778011E+02  0.51100000000E-03 0.  1.
         12    1    3    3    0    0  0.57818152591E+01  0.13155335669E+02 -0.20623698303E+00  0.14371317892E+02  0.00000000000E+00 0. -1.
</event>
<event>
 7    1  0.7674040E-012  0.5930194E+02  0.7816164E-02  0.1266605E+00
        -11   -1    0    0    0    0  0.00000000000E+00  0.00000000000E+00  0.45593999997E+02  0.45594000000E+02  0.51100000000E-03 0.  1.
         11   -1    0    0    0    0 -0.00000000000E+00 -0.00000000000E+00 -0.45593999997E+02  0.45594000000E+02  0.51100000000E-03 0. -1.
    9900012    2    1    2    0    0  0.29555647631E+02 -0.16202520561E+01  0.11855778115E+02  0.59301937240E+02  0.49999987621E+02 0.  0.
         12    1    1    2    0    0 -0.29555647631E+02  0.16202520561E+01 -0.11855778115E+02  0.31886062760E+02  0.00000000000E+00 0. -1.
         11    1    3    3    0    0  0.14396734407E+02 -0.14184489101E+02 -0.87067627966E+01  0.22006213016E+02  0.51100000000E-03 0. -1.
        -11    1    3    3    0    0 -0.10715629878E+01  0.14251064398E+02  0.12964642441E+02  0.19295674065E+02  0.51100000000E-03 0.  1.
         12    1    3    3    0    0  0.16230476212E+02 -0.16868273531E+01  0.75978984701E+01  0.18000050160E+02  0.00000000000E+00 0. -1.
</event>
<event>
 7    1  0.7674040E-012  0.5930194E+02  0.7816164E-02  0.1266605E+00
        -11   -1    0    0    0    0  0.00000000000E+00  0.00000000000E+00  0.45593999997E+02  0.45594000000E+02  0.51100000000E-03 0.  1.
         11   -1    0    0    0    0 -0.00000000000E+00 -0.00000000000E+00 -0.45593999997E+02  0.45594000000E+02  0.51100000000E-03 0. -1.
    9900012    2    1    2    0    0  0.27856326255E+02  0.81612953269E+01  0.13196187629E+02  0.59301936873E+02  0.49999986951E+02 0.  0.
         12    1    1    2    0    0 -0.27856326255E+02 -0.81612953269E+01 -0.13196187629E+02  0.31886063127E+02  0.00000000000E+00 0. -1.
         11    1    3    3    0    0 -0.63544287448E+01 -0.10073344736E+02  0.94105379075E+01  0.15179237887E+02  0.51100000000E-03 0. -1.
        -11    1    3    3    0    0  0.19776775184E+02  0.21250958969E+02  0.59567771477E+00  0.29035821428E+02  0.51100000000E-03 0.  1.
        -12    1    3    3    0    0  0.14433979815E+02 -0.30163189059E+01  0.31899720068E+01  0.15086877558E+02  0.00000000000E+00 0.  1.
</event>
<event>
 7    1  0.7674040E-012  0.5930195E+02  0.7816164E-02  0.1266605E+00
        -11   -1    0    0    0    0  0.00000000000E+00  0.00000000000E+00  0.45593999997E+02  0.45594000000E+02  0.51100000000E-03 0.  1.
         11   -1    0    0    0    0 -0.00000000000E+00 -0.00000000000E+00 -0.45593999997E+02  0.45594000000E+02  0.51100000000E-03 0. -1.
    9900012    2    1    2    0    0  0.16107374250E+02  0.19505305560E+02  0.19411737413E+02  0.59301952901E+02  0.50000016183E+02 0.  0.
         12    1    1    2    0    0 -0.16107374250E+02 -0.19505305560E+02 -0.19411737413E+02  0.31886047099E+02  0.00000000000E+00 0. -1.
         11    1    3    3    0    0 -0.88185499211E+01  0.10598223912E+02  0.27904955313E+01  0.14066841805E+02  0.51100000000E-03 0. -1.
        -11    1    3    3    0    0  0.13632523185E+02 -0.10432903822E+02 -0.29400751305E+00  0.17169088829E+02  0.51100000000E-03 0.  1.
        -12    1    3    3    0    0  0.11293400986E+02  0.19339985469E+02  0.16915249395E+02  0.28066022267E+02  0.00000000000E+00 0.  1.
</event>
<event>
 7    1  0.7674040E-012  0.5930191E+02  0.7816164E-02  0.1266605E+00
        -11   -1    0    0    0    0  0.00000000000E+00  0.00000000000E+00  0.45593999997E+02  0.45594000000E+02  0.51100000000E-03 0.  1.
         11   -1    0    0    0    0 -0.00000000000E+00 -0.00000000000E+00 -0.45593999997E+02  0.45594000000E+02  0.51100000000E-03 0. -1.
    9900012    2    1    2    0    0 -0.26010495626E+02 -0.13041175584E+02  0.13042421747E+02  0.59301907289E+02  0.49999932998E+02 0.  0.
         12    1    1    2    0    0  0.26010495626E+02  0.13041175584E+02 -0.13042421747E+02  0.31886092711E+02  0.00000000000E+00 0. -1.
         11    1    3    3    0    0 -0.56076766798E+01  0.15096152434E+02  0.85932858301E+01  0.18253339905E+02  0.51100000000E-03 0. -1.
        -11    1    3    3    0    0 -0.17668626461E+02 -0.16605211945E+02  0.11940595733E+02  0.27027601660E+02  0.51100000000E-03 0.  1.
         12    1    3    3    0    0 -0.27341924851E+01 -0.11532116073E+02 -0.74914598161E+01  0.14020965724E+02  0.00000000000E+00 0. -1.
</event>
<event>
 7    1  0.7674040E-012  0.5930197E+02  0.7816164E-02  0.1266605E+00
        -11   -1    0    0    0    0  0.00000000000E+00  0.00000000000E+00  0.45593999997E+02  0.45594000000E+02  0.51100000000E-03 0.  1.
         11   -1    0    0    0    0 -0.00000000000E+00 -0.00000000000E+00 -0.45593999997E+02  0.45594000000E+02  0.51100000000E-03 0. -1.
    9900012    2    1    2    0    0  0.12915942271E+02 -0.27104204928E+01  0.29026730306E+02  0.59301968321E+02  0.50000044304E+02 0.  0.
         12    1    1    2    0    0 -0.12915942271E+02  0.27104204928E+01 -0.29026730306E+02  0.31886031679E+02  0.00000000000E+00 0. -1.
         11    1    3    3    0    0  0.24052793026E+01  0.80183367490E+01 -0.76728185200E+01  0.11355669819E+02  0.51100000000E-03 0. -1.
        -11    1    3    3    0    0  0.21886778350E+01  0.13031200868E+01  0.32673918272E+02  0.32773058571E+02  0.51100000000E-03 0.  1.
        -12    1    3    3    0    0  0.83219851336E+01 -0.12031877329E+02  0.40256305542E+01  0.15173239930E+02  0.00000000000E+00 0.  1.
</event>
<event>
 7    1  0.7674040E-012  0.5930172E+02  0.7816164E-02  0.1266606E+00
        -11   -1    0    0    0    0  0.00000000000E+00  0.00000000000E+00  0.45593999997E+02  0.45594000000E+02  0.51100000000E-03 0.  1.
         11   -1    0    0    0    0 -0.00000000000E+00 -0.00000000000E+00 -0.45593999997E+02  0.45594000000E+02  0.51100000000E-03 0. -1.
    9900012    2    1    2    0    0  0.16259358710E+02 -0.19089147502E+02  0.19697025340E+02  0.59301716032E+02  0.49999584190E+02 0.  0.
         12    1    1    2    0    0 -0.16259358710E+02  0.19089147502E+02 -0.19697025340E+02  0.31886283968E+02  0.00000000000E+00 0. -1.
         11    1    3    3    0    0  0.12005398226E+02  0.52267416373E+00 -0.13208225982E+02  0.17856651665E+02  0.51100000000E-03 0. -1.
        -11    1    3    3    0    0  0.88014419551E+01 -0.16502640908E+02  0.29621204393E+02  0.35031675486E+02  0.51100000000E-03 0.  1.
         12    1    3    3    0    0 -0.45474814705E+01 -0.31091807572E+01  0.32840469289E+01  0.64133888808E+01  0.00000000000E+00 0. -1.
</event>
<event>
 7    1  0.7674040E-012  0.5930184E+02  0.7816164E-02  0.1266605E+00
        -11   -1    0    0    0    0  0.00000000000E+00  0.00000000000E+00  0.45593999997E+02  0.45594000000E+02  0.51100000000E-03 0.  1.
         11   -1    0    0    0    0 -0.00000000000E+00 -0.00000000000E+00 -0.45593999997E+02  0.45594000000E+02  0.51100000000E-03 0. -1.
    9900012    2    1    2    0    0 -0.29515491255E+02 -0.10341142834E+02 -0.62147904816E+01  0.59301841876E+02  0.49999813700E+02 0.  0.
         12    1    1    2    0    0  0.29515491255E+02  0.10341142834E+02  0.62147904816E+01  0.31886158124E+02  0.00000000000E+00 0. -1.
         11    1    3    3    0    0 -0.12229437268E+02  0.12527412189E+02 -0.73477050763E+01  0.18986415201E+02  0.51100000000E-03 0. -1.
        -11    1    3    3    0    0 -0.19801543901E+02 -0.21807745435E+02 -0.82121940280E+01  0.30579716036E+02  0.51100000000E-03 0.  1.
         12    1    3    3    0    0  0.25154899136E+01 -0.10608095892E+01  0.93451086226E+01  0.97357106396E+01  0.00000000000E+00 0. -1.
</event>
<event>
 7    1  0.7674040E-012  0.5930195E+02  0.7816164E-02  0.1266605E+00
        -11   -1    0    0    0    0  0.00000000000E+00  0.00000000000E+00  0.45593999997E+02  0.45594000000E+02  0.51100000000E-03 0.  1.
         11   -1    0    0    0    0 -0.00000000000E+00 -0.00000000000E+00 -0.45593999997E+02  0.45594000000E+02  0.51100000000E-03 0. -1.
    9900012    2    1    2    0    0 -0.16316439637E+01 -0.31770923779E+02  0.21602120014E+01  0.59301947004E+02  0.50000005428E+02 0.  0.
         12    1    1    2    0    0  0.16316439637E+01  0.31770923779E+02 -0.21602120014E+01  0.31886052996E+02  0.00000000000E+00 0. -1.
         11    1    3    3    0    0 -0.13119702377E+01 -0.31164696963E+02 -0.16302116053E+02  0.35195434232E+02  0.51100000000E-03 0. -1.
        -11    1    3    3    0    0  0.56877761580E+00  0.71340754195E+01  0.56795612851E+01  0.91365177568E+01  0.51100000000E-03 0.  1.
        -12    1    3    3    0    0 -0.88845134178E+00 -0.77403022353E+01  0.12782766769E+02  0.14969995015E+02  0.00000000000E+00 0.  1.
</event>
<event>
 7    1  0.7674040E-012  0.5930193E+02  0.7816164E-02  0.1266605E+00
        -11   -1    0    0    0    0  0.00000000000E+00  0.00000000000E+00  0.45593999997E+02  0.45594000000E+02  0.51100000000E-03 0.  1.
         11   -1    0    0    0    0 -0.00000000000E+00 -0.00000000000E+00 -0.45593999997E+02  0.45594000000E+02  0.51100000000E-03 0. -1.
    9900012    2    1    2    0    0  0.28484735025E+02 -0.80337924290E+01  0.11865888024E+02  0.59301933312E+02  0.49999980458E+02 0.  0.
         12    1    1    2    0    0 -0.28484735025E+02  0.80337924290E+01 -0.11865888024E+02  0.31886066688E+02  0.00000000000E+00 0. -1.
         11    1    3    3    0    0 -0.10691193276E+02 -0.71964820618E+01  0.96132807151E+01  0.16078125951E+02  0.51100000000E-03 0. -1.
        -11    1    3    3    0    0  0.34809820520E+02 -0.36175930964E+01  0.75661380171E+01  0.35805823956E+02  0.51100000000E-03 0.  1.
         12    1    3    3    0    0  0.43661077811E+01  0.27802827291E+01 -0.53135307083E+01  0.74179834051E+01  0.00000000000E+00 0. -1.
</event>
<event>
 7    1  0.7674040E-012  0.5930195E+02  0.7816164E-02  0.1266605E+00
        -11   -1    0    0    0    0  0.00000000000E+00  0.00000000000E+00  0.45593999997E+02  0.45594000000E+02  0.51100000000E-03 0.  1.
         11   -1    0    0    0    0 -0.00000000000E+00 -0.00000000000E+00 -0.45593999997E+02  0.45594000000E+02  0.51100000000E-03 0. -1.
    9900012    2    1    2    0    0 -0.92375965870E+01 -0.29529840321E+02 -0.77055717491E+01  0.59301945116E+02  0.50000001985E+02 0.  0.
         12    1    1    2    0    0  0.92375965870E+01  0.29529840321E+02  0.77055717491E+01  0.31886054884E+02  0.00000000000E+00 0. -1.
         11    1    3    3    0    0  0.28705314572E+01 -0.22385092215E+02 -0.21624231066E+02  0.31256034198E+02  0.51100000000E-03 0. -1.
        -11    1    3    3    0    0 -0.54756948859E+01  0.61196839467E+01  0.95301278714E+01  0.12580027965E+02  0.51100000000E-03 0.  1.
        -12    1    3    3    0    0 -0.66324331583E+01 -0.13264432053E+02  0.43885314458E+01  0.15465882954E+02  0.00000000000E+00 0.  1.
</event>
<event>
 7    1  0.7674040E-012  0.5930192E+02  0.7816164E-02  0.1266605E+00
        -11   -1    0    0    0    0  0.00000000000E+00  0.00000000000E+00  0.45593999997E+02  0.45594000000E+02  0.51100000000E-03 0.  1.
         11   -1    0    0    0    0 -0.00000000000E+00 -0.00000000000E+00 -0.45593999997E+02  0.45594000000E+02  0.51100000000E-03 0. -1.
    9900012    2    1    2    0    0 -0.10339277392E+02 -0.44952687788E+01  0.29826394079E+02  0.59301923382E+02  0.49999962347E+02 0.  0.
         12    1    1    2    0    0  0.10339277392E+02  0.44952687788E+01 -0.29826394079E+02  0.31886076618E+02  0.00000000000E+00 0. -1.
         11    1    3    3    0    0  0.57720472869E+01 -0.21555284012E+02  0.14797360948E+01  0.22363729963E+02  0.51100000000E-03 0. -1.
        -11    1    3    3    0    0 -0.10164548801E+02  0.88786036427E+01  0.17622497288E+02  0.22196848107E+02  0.51100000000E-03 0.  1.
         12    1    3    3    0    0 -0.59467758776E+01  0.81814115902E+01  0.10724160696E+02  0.14741345311E+02  0.00000000000E+00 0. -1.
</event>
<event>
 7    1  0.7674040E-012  0.5930194E+02  0.7816164E-02  0.1266605E+00
        -11   -1    0    0    0    0  0.00000000000E+00  0.00000000000E+00  0.45593999997E+02  0.45594000000E+02  0.51100000000E-03 0. -1.
         11   -1    0    0    0    0 -0.00000000000E+00 -0.00000000000E+00 -0.45593999997E+02  0.45594000000E+02  0.51100000000E-03 0.  1.
    9900012    2    1    2    0    0 -0.75504489411E+01 -0.76009736366E+01 -0.30032262671E+02  0.59301939087E+02  0.49999990989E+02 0.  0.
         12    1    1    2    0    0  0.75504489411E+01  0.76009736366E+01  0.30032262671E+02  0.31886060913E+02  0.00000000000E+00 0. -1.
         11    1    3    3    0    0 -0.21148964953E+02  0.54938286105E+01 -0.26657221350E+02  0.34468366972E+02  0.51100000000E-03 0. -1.
        -11    1    3    3    0    0  0.98600972844E+01 -0.16663740288E+02 -0.18812180889E+01  0.19453553418E+02  0.51100000000E-03 0.  1.
         12    1    3    3    0    0  0.37384187274E+01  0.35689380410E+01 -0.14938232320E+01  0.53800186961E+01  0.00000000000E+00 0. -1.
</event>
<event>
 7    1  0.7674040E-012  0.5930189E+02  0.7816164E-02  0.1266605E+00
        -11   -1    0    0    0    0  0.00000000000E+00  0.00000000000E+00  0.45593999997E+02  0.45594000000E+02  0.51100000000E-03 0.  1.
         11   -1    0    0    0    0 -0.00000000000E+00 -0.00000000000E+00 -0.45593999997E+02  0.45594000000E+02  0.51100000000E-03 0. -1.
    9900012    2    1    2    0    0 -0.31707804174E+02 -0.29495202712E+01 -0.16246781816E+01  0.59301888689E+02  0.49999899075E+02 0.  0.
         12    1    1    2    0    0  0.31707804174E+02  0.29495202712E+01  0.16246781816E+01  0.31886111311E+02  0.00000000000E+00 0. -1.
         11    1    3    3    0    0  0.64387886617E+01 -0.79691069528E+01 -0.56543985094E+00  0.10260818074E+02  0.51100000000E-03 0. -1.
        -11    1    3    3    0    0 -0.26750194152E+02 -0.10667340131E+02 -0.50683936337E+01  0.29241300364E+02  0.51100000000E-03 0.  1.
         12    1    3    3    0    0 -0.11396398683E+02  0.15686926813E+02  0.40091553030E+01  0.19799770252E+02  0.00000000000E+00 0. -1.
</event>
<event>
 7    1  0.7674040E-012  0.5930207E+02  0.7816164E-02  0.1266604E+00
        -11   -1    0    0    0    0  0.00000000000E+00  0.00000000000E+00  0.45593999997E+02  0.45594000000E+02  0.51100000000E-03 0. -1.
         11   -1    0    0    0    0 -0.00000000000E+00 -0.00000000000E+00 -0.45593999997E+02  0.45594000000E+02  0.51100000000E-03 0.  1.
    9900012    2    1    2    0    0  0.18473206758E+02 -0.11478593883E+02 -0.23317269309E+02  0.59302069976E+02  0.50000229699E+02 0.  0.
         12    1    1    2    0    0 -0.18473206758E+02  0.11478593883E+02  0.23317269309E+02  0.31885930024E+02  0.00000000000E+00 0. -1.
         11    1    3    3    0    0 -0.22694171047E+01  0.99280335338E+01  0.31001800578E+01  0.10645525844E+02  0.51100000000E-03 0. -1.
        -11    1    3    3    0    0  0.11700071671E+02 -0.73254502528E+00 -0.23025366100E+02  0.25837874983E+02  0.51100000000E-03 0.  1.
        -12    1    3    3    0    0  0.90425521917E+01 -0.20674082391E+02 -0.33920832669E+01  0.22818669150E+02  0.00000000000E+00 0.  1.
</event>
<event>
 7    1  0.7674040E-012  0.5930194E+02  0.7816164E-02  0.1266605E+00
        -11   -1    0    0    0    0  0.00000000000E+00  0.00000000000E+00  0.45593999997E+02  0.45594000000E+02  0.51100000000E-03 0.  1.
         11   -1    0    0    0    0 -0.00000000000E+00 -0.00000000000E+00 -0.45593999997E+02  0.45594000000E+02  0.51100000000E-03 0. -1.
    9900012    2    1    2    0    0 -0.88414559251E+01  0.94460369872E+01  0.29143124994E+02  0.59301942042E+02  0.49999996379E+02 0.  0.
         12    1    1    2    0    0  0.88414559251E+01 -0.94460369872E+01 -0.29143124994E+02  0.31886057958E+02  0.00000000000E+00 0. -1.
         11    1    3    3    0    0 -0.85804959618E+01 -0.10392335714E+02  0.17186117219E+02  0.21840059017E+02  0.51100000000E-03 0. -1.
        -11    1    3    3    0    0 -0.96710030117E-01  0.19769655670E+02  0.20753954765E+02  0.28663134455E+02  0.51100000000E-03 0.  1.
         12    1    3    3    0    0 -0.16424993322E+00  0.68717032054E-01 -0.87969469895E+01  0.87987485705E+01  0.00000000000E+00 0. -1.
</event>
<event>
 7    1  0.7674040E-012  0.5930196E+02  0.7816164E-02  0.1266605E+00
        -11   -1    0    0    0    0  0.00000000000E+00  0.00000000000E+00  0.45593999997E+02  0.45594000000E+02  0.51100000000E-03 0.  1.
         11   -1    0    0    0    0 -0.00000000000E+00 -0.00000000000E+00 -0.45593999997E+02  0.45594000000E+02  0.51100000000E-03 0. -1.
    9900012    2    1    2    0    0  0.21536577893E+02  0.77670275789E+01  0.22193884401E+02  0.59301962153E+02  0.50000033056E+02 0.  0.
         12    1    1    2    0    0 -0.21536577893E+02 -0.77670275789E+01 -0.22193884401E+02  0.31886037847E+02  0.00000000000E+00 0. -1.
         11    1    3    3    0    0 -0.15069022796E+02  0.23071727418E+01  0.32108473271E+01  0.15579089668E+02  0.51100000000E-03 0. -1.
        -11    1    3    3    0    0  0.78709108722E+01  0.60610271702E+01  0.14059503892E+01  0.10033144326E+02  0.51100000000E-03 0.  1.
         12    1    3    3    0    0  0.28734689817E+02 -0.60117233307E+00  0.17577086685E+02  0.33689728158E+02  0.00000000000E+00 0. -1.
</event>
<event>
 7    1  0.7674040E-012  0.5930194E+02  0.7816164E-02  0.1266605E+00
        -11   -1    0    0    0    0  0.00000000000E+00  0.00000000000E+00  0.45593999997E+02  0.45594000000E+02  0.51100000000E-03 0.  1.
         11   -1    0    0    0    0 -0.00000000000E+00 -0.00000000000E+00 -0.45593999997E+02  0.45594000000E+02  0.51100000000E-03 0. -1.
    9900012    2    1    2    0    0  0.28287616461E+02 -0.11434401552E+01  0.14670523114E+02  0.59301938016E+02  0.49999989036E+02 0.  0.
         12    1    1    2    0    0 -0.28287616461E+02  0.11434401552E+01 -0.14670523114E+02  0.31886061984E+02  0.00000000000E+00 0. -1.
         11    1    3    3    0    0  0.13154279228E+02 -0.71418179821E+00  0.10447147966E+02  0.16813328598E+02  0.51100000000E-03 0.  1.
        -11    1    3    3    0    0  0.21817657591E+02 -0.53793357252E+01 -0.11092625021E+02  0.25059803785E+02  0.51100000000E-03 0. -1.
        -12    1    3    3    0    0 -0.66843203587E+01  0.49500773682E+01  0.15316000169E+02  0.17428805633E+02  0.00000000000E+00 0.  1.
</event>
<event>
 7    1  0.7674040E-012  0.5930197E+02  0.7816164E-02  0.1266605E+00
        -11   -1    0    0    0    0  0.00000000000E+00  0.00000000000E+00  0.45593999997E+02  0.45594000000E+02  0.51100000000E-03 0.  1.
         11   -1    0    0    0    0 -0.00000000000E+00 -0.00000000000E+00 -0.45593999997E+02  0.45594000000E+02  0.51100000000E-03 0. -1.
    9900012    2    1    2    0    0 -0.46216590466E+01 -0.22860790072E+02 -0.21742671483E+02  0.59301965153E+02  0.50000038527E+02 0.  0.
         12    1    1    2    0    0  0.46216590466E+01  0.22860790072E+02  0.21742671483E+02  0.31886034847E+02  0.00000000000E+00 0. -1.
         11    1    3    3    0    0  0.56549192845E+01 -0.30058089336E+02 -0.14669993040E+02  0.33921608787E+02  0.51100000000E-03 0. -1.
        -11    1    3    3    0    0 -0.15511201310E+02  0.55891912429E+01 -0.65972963117E-01  0.16487594656E+02  0.51100000000E-03 0.  1.
        -12    1    3    3    0    0  0.52346229794E+01  0.16081080208E+01 -0.70067054805E+01  0.88927617101E+01  0.00000000000E+00 0.  1.
</event>
<event>
 7    1  0.7674040E-012  0.5930193E+02  0.7816164E-02  0.1266605E+00
        -11   -1    0    0    0    0  0.00000000000E+00  0.00000000000E+00  0.45593999997E+02  0.45594000000E+02  0.51100000000E-03 0. -1.
         11   -1    0    0    0    0 -0.00000000000E+00 -0.00000000000E+00 -0.45593999997E+02  0.45594000000E+02  0.51100000000E-03 0.  1.
    9900012    2    1    2    0    0 -0.25527101457E+02 -0.18864174144E+02  0.30383377415E+01  0.59301929826E+02  0.49999974099E+02 0.  0.
         12    1    1    2    0    0  0.25527101457E+02  0.18864174144E+02 -0.30383377415E+01  0.31886070174E+02  0.00000000000E+00 0. -1.
         11    1    3    3    0    0  0.12119588893E+02  0.24158687334E+01 -0.95062360492E+00  0.12394536787E+02  0.51100000000E-03 0. -1.
        -11    1    3    3    0    0 -0.34544596977E+02 -0.22489350519E+02  0.76876302521E+01  0.41930892266E+02  0.51100000000E-03 0.  1.
         12    1    3    3    0    0 -0.31020933733E+01  0.12093076417E+01 -0.36986689056E+01  0.49765007729E+01  0.00000000000E+00 0. -1.
</event>
<event>
 7    1  0.7674040E-012  0.5930193E+02  0.7816164E-02  0.1266605E+00
        -11   -1    0    0    0    0  0.00000000000E+00  0.00000000000E+00  0.45593999997E+02  0.45594000000E+02  0.51100000000E-03 0.  1.
         11   -1    0    0    0    0 -0.00000000000E+00 -0.00000000000E+00 -0.45593999997E+02  0.45594000000E+02  0.51100000000E-03 0. -1.
    9900012    2    1    2    0    0  0.12821957943E+02 -0.10625507882E+02  0.27192227097E+02  0.59301933486E+02  0.49999980775E+02 0.  0.
         12    1    1    2    0    0 -0.12821957943E+02  0.10625507882E+02 -0.27192227097E+02  0.31886066514E+02  0.00000000000E+00 0. -1.
         11    1    3    3    0    0 -0.58755090029E+01  0.10094277614E+02 -0.62042103523E+01  0.13225289144E+02  0.51100000000E-03 0. -1.
        -11    1    3    3    0    0  0.20698509150E+02 -0.14770745507E+02  0.25838926405E+02  0.36252631930E+02  0.51100000000E-03 0.  1.
        -12    1    3    3    0    0 -0.20010422046E+01 -0.59490399887E+01  0.75575110440E+01  0.98240124120E+01  0.00000000000E+00 0.  1.
</event>
<event>
 7    1  0.7674040E-012  0.5930195E+02  0.7816164E-02  0.1266605E+00
        -11   -1    0    0    0    0  0.00000000000E+00  0.00000000000E+00  0.45593999997E+02  0.45594000000E+02  0.51100000000E-03 0.  1.
         11   -1    0    0    0    0 -0.00000000000E+00 -0.00000000000E+00 -0.45593999997E+02  0.45594000000E+02  0.51100000000E-03 0. -1.
    9900012    2    1    2    0    0  0.75413099029E+00  0.21530789382E+02  0.23506942987E+02  0.59301953310E+02  0.50000016928E+02 0.  0.
         12    1    1    2    0    0 -0.75413099029E+00 -0.21530789382E+02 -0.23506942987E+02  0.31886046690E+02  0.00000000000E+00 0. -1.
         11    1    3    3    0    0 -0.27972998472E+01  0.30910145064E+02  0.27778028656E+02  0.41651900684E+02  0.51100000000E-03 0. -1.
        -11    1    3    3    0    0  0.54444440730E+01 -0.52228300195E+01  0.37459420370E+01  0.84233014123E+01  0.51100000000E-03 0.  1.
         12    1    3    3    0    0 -0.18930132355E+01 -0.41565256626E+01 -0.80170277068E+01  0.92267512129E+01  0.00000000000E+00 0. -1.
</event>
<event>
 7    1  0.7674040E-012  0.5930194E+02  0.7816164E-02  0.1266605E+00
        -11   -1    0    0    0    0  0.00000000000E+00  0.00000000000E+00  0.45593999997E+02  0.45594000000E+02  0.51100000000E-03 0.  1.
         11   -1    0    0    0    0 -0.00000000000E+00 -0.00000000000E+00 -0.45593999997E+02  0.45594000000E+02  0.51100000000E-03 0. -1.
    9900012    2    1    2    0    0  0.41054416841E+01  0.32215892331E+01  0.31456115995E+02  0.59301944708E+02  0.50000001240E+02 0.  0.
         12    1    1    2    0    0 -0.41054416841E+01 -0.32215892331E+01 -0.31456115995E+02  0.31886055292E+02  0.00000000000E+00 0. -1.
         11    1    3    3    0    0 -0.92659835676E+01 -0.90049863816E+01 -0.51341063612E+01  0.13903498826E+02  0.51100000000E-03 0. -1.
        -11    1    3    3    0    0  0.64493357331E+01  0.67260800713E+01  0.35244035408E+02  0.36455124696E+02  0.51100000000E-03 0.  1.
        -12    1    3    3    0    0  0.69220895186E+01  0.55004955433E+01  0.13461869483E+01  0.89433211854E+01  0.00000000000E+00 0.  1.
</event>
<event>
 7    1  0.7674040E-012  0.5930194E+02  0.7816164E-02  0.1266605E+00
        -11   -1    0    0    0    0  0.00000000000E+00  0.00000000000E+00  0.45593999997E+02  0.45594000000E+02  0.51100000000E-03 0.  1.
         11   -1    0    0    0    0 -0.00000000000E+00 -0.00000000000E+00 -0.45593999997E+02  0.45594000000E+02  0.51100000000E-03 0. -1.
    9900012    2    1    2    0    0  0.15429003720E+02 -0.20178559950E+02  0.19274138431E+02  0.59301939570E+02  0.49999991871E+02 0.  0.
         12    1    1    2    0    0 -0.15429003720E+02  0.20178559950E+02 -0.19274138431E+02  0.31886060430E+02  0.00000000000E+00 0. -1.
         11    1    3    3    0    0  0.23203468879E+02 -0.13059334843E+02  0.88265009166E+01  0.28050923572E+02  0.51100000000E-03 0.  1.
        -11    1    3    3    0    0 -0.57843451360E+01  0.95430552812E+01 -0.57476141272E+00  0.11174028087E+02  0.51100000000E-03 0. -1.
         12    1    3    3    0    0 -0.19901200238E+01 -0.16662280389E+02  0.11022398927E+02  0.20076987911E+02  0.00000000000E+00 0. -1.
</event>
<event>
 7    1  0.7674040E-012  0.5930203E+02  0.7816164E-02  0.1266604E+00
        -11   -1    0    0    0    0  0.00000000000E+00  0.00000000000E+00  0.45593999997E+02  0.45594000000E+02  0.51100000000E-03 0.  1.
         11   -1    0    0    0    0 -0.00000000000E+00 -0.00000000000E+00 -0.45593999997E+02  0.45594000000E+02  0.51100000000E-03 0. -1.
    9900012    2    1    2    0    0 -0.31321208735E+01 -0.21186337819E+02  0.23622953205E+02  0.59302031151E+02  0.50000158891E+02 0.  0.
         12    1    1    2    0    0  0.31321208735E+01  0.21186337819E+02 -0.23622953205E+02  0.31885968849E+02  0.00000000000E+00 0. -1.
         11    1    3    3    0    0 -0.87745437189E+01 -0.17660187633E+02 -0.45950178595E+01  0.20248185946E+02  0.51100000000E-03 0. -1.
        -11    1    3    3    0    0  0.71306002994E+01  0.10242998840E+02  0.17726328435E+02  0.21679188313E+02  0.51100000000E-03 0.  1.
         12    1    3    3    0    0 -0.14881774540E+01 -0.13769149026E+02  0.10491642630E+02  0.17374656892E+02  0.00000000000E+00 0. -1.
</event>
<event>
 7    1  0.7674040E-012  0.5930195E+02  0.7816164E-02  0.1266605E+00
        -11   -1    0    0    0    0  0.00000000000E+00  0.00000000000E+00  0.45593999997E+02  0.45594000000E+02  0.51100000000E-03 0. -1.
         11   -1    0    0    0    0 -0.00000000000E+00 -0.00000000000E+00 -0.45593999997E+02  0.45594000000E+02  0.51100000000E-03 0.  1.
    9900012    2    1    2    0    0  0.26597281844E+02  0.12260292916E+02  0.12609124080E+02  0.59301949853E+02  0.50000010624E+02 0.  0.
         12    1    1    2    0    0 -0.26597281844E+02 -0.12260292916E+02 -0.12609124080E+02  0.31886050147E+02  0.00000000000E+00 0. -1.
         11    1    3    3    0    0  0.80239564577E+01 -0.96547391322E+01  0.22946156613E+02  0.26155763581E+02  0.51100000000E-03 0. -1.
        -11    1    3    3    0    0  0.82458074410E+01  0.18928574710E+02 -0.80139075452E+01  0.22147392517E+02  0.51100000000E-03 0.  1.
         12    1    3    3    0    0  0.10327517946E+02  0.29864573386E+01 -0.23231249877E+01  0.10998793755E+02  0.00000000000E+00 0. -1.
</event>
<event>
 7    1  0.8027560E-012  0.5930195E+02  0.7816164E-02  0.1266605E+00
        -11   -1    0    0    0    0  0.00000000000E+00  0.00000000000E+00  0.45593999997E+02  0.45594000000E+02  0.51100000000E-03 0. -1.
         11   -1    0    0    0    0 -0.00000000000E+00 -0.00000000000E+00 -0.45593999997E+02  0.45594000000E+02  0.51100000000E-03 0.  1.
    9900012    2    1    2    0    0  0.31629067905E+00  0.21863228367E+02 -0.23208173926E+02  0.59301950834E+02  0.50000012413E+02 0.  0.
         12    1    1    2    0    0 -0.31629067905E+00 -0.21863228367E+02  0.23208173926E+02  0.31886049166E+02  0.00000000000E+00 0. -1.
         11    1    3    3    0    0 -0.55555796740E+01 -0.67941241487E+01  0.70955781905E+01  0.11285912395E+02  0.51100000000E-03 0. -1.
        -11    1    3    3    0    0 -0.70812856640E+01  0.10951513432E+02 -0.19760067600E+02  0.23675737051E+02  0.51100000000E-03 0.  1.
         12    1    3    3    0    0  0.12953156017E+02  0.17705839084E+02 -0.10543684517E+02  0.24340301388E+02  0.00000000000E+00 0. -1.
</event>
<event>
 7    1  0.7674040E-012  0.5930195E+02  0.7816164E-02  0.1266605E+00
        -11   -1    0    0    0    0  0.00000000000E+00  0.00000000000E+00  0.45593999997E+02  0.45594000000E+02  0.51100000000E-03 0. -1.
         11   -1    0    0    0    0 -0.00000000000E+00 -0.00000000000E+00 -0.45593999997E+02  0.45594000000E+02  0.51100000000E-03 0.  1.
    9900012    2    1    2    0    0  0.28809713300E+02 -0.82991978651E+01 -0.10855608534E+02  0.59301945018E+02  0.50000001807E+02 0.  0.
         12    1    1    2    0    0 -0.28809713300E+02  0.82991978651E+01  0.10855608534E+02  0.31886054982E+02  0.00000000000E+00 0. -1.
         11    1    3    3    0    0  0.21365743223E+02 -0.16764032998E+02  0.11610392794E+02  0.29535216385E+02  0.51100000000E-03 0. -1.
        -11    1    3    3    0    0 -0.50168025561E+00 -0.77901537981E+00 -0.15889259863E+02  0.15916253557E+02  0.51100000000E-03 0.  1.
         12    1    3    3    0    0  0.79456503333E+01  0.92438505132E+01 -0.65767414654E+01  0.13850475076E+02  0.00000000000E+00 0. -1.
</event>
<event>
 7    1  0.7674040E-012  0.5930196E+02  0.7816164E-02  0.1266605E+00
        -11   -1    0    0    0    0  0.00000000000E+00  0.00000000000E+00  0.45593999997E+02  0.45594000000E+02  0.51100000000E-03 0.  1.
         11   -1    0    0    0    0 -0.00000000000E+00 -0.00000000000E+00 -0.45593999997E+02  0.45594000000E+02  0.51100000000E-03 0. -1.
    9900012    2    1    2    0    0  0.10771592824E+01 -0.85282737014E+01  0.30705502584E+02  0.59301958957E+02  0.50000027228E+02 0.  0.
         12    1    1    2    0    0 -0.10771592824E+01  0.85282737014E+01 -0.30705502584E+02  0.31886041043E+02  0.00000000000E+00 0. -1.
         11    1    3    3    0    0  0.32770176202E+01 -0.88648039657E+01 -0.76546136738E+01  0.12162101159E+02  0.51100000000E-03 0. -1.
        -11    1    3    3    0    0 -0.59522227399E+01 -0.30719582868E+01  0.40917403298E+02  0.41462028124E+02  0.51100000000E-03 0.  1.
         12    1    3    3    0    0  0.37523644021E+01  0.34084885511E+01 -0.25572870400E+01  0.56778296746E+01  0.00000000000E+00 0. -1.
</event>
<event>
 7    1  0.7674040E-012  0.5930195E+02  0.7816164E-02  0.1266605E+00
        -11   -1    0    0    0    0  0.00000000000E+00  0.00000000000E+00  0.45593999997E+02  0.45594000000E+02  0.51100000000E-03 0.  1.
         11   -1    0    0    0    0 -0.00000000000E+00 -0.00000000000E+00 -0.45593999997E+02  0.45594000000E+02  0.51100000000E-03 0. -1.
    9900012    2    1    2    0    0 -0.14049318075E-01 -0.22378478962E+02  0.22713946542E+02  0.59301954690E+02  0.50000019445E+02 0.  0.
         12    1    1    2    0    0  0.14049318075E-01  0.22378478962E+02 -0.22713946542E+02  0.31886045310E+02  0.00000000000E+00 0. -1.
         11    1    3    3    0    0 -0.41593016247E+01  0.14425852923E+00  0.10882530499E+01  0.43017316850E+01  0.51100000000E-03 0. -1.
        -11    1    3    3    0    0  0.14652379056E+02  0.38113565972E+01 -0.51605018554E+01  0.15995294019E+02  0.51100000000E-03 0.  1.
        -12    1    3    3    0    0 -0.10507126749E+02 -0.26334094088E+02  0.26786195347E+02  0.39004928985E+02  0.00000000000E+00 0.  1.
</event>
<event>
 7    1  0.7674040E-012  0.5930200E+02  0.7816164E-02  0.1266605E+00
        -11   -1    0    0    0    0  0.00000000000E+00  0.00000000000E+00  0.45593999997E+02  0.45594000000E+02  0.51100000000E-03 0.  1.
         11   -1    0    0    0    0 -0.00000000000E+00 -0.00000000000E+00 -0.45593999997E+02  0.45594000000E+02  0.51100000000E-03 0. -1.
    9900012    2    1    2    0    0  0.27573562685E+02  0.14915847703E+02 -0.58252064937E+01  0.59302001466E+02  0.50000104754E+02 0.  0.
         12    1    1    2    0    0 -0.27573562685E+02 -0.14915847703E+02  0.58252064937E+01  0.31885998534E+02  0.00000000000E+00 0. -1.
         11    1    3    3    0    0 -0.71796930058E+01 -0.29353259923E+01 -0.10542019863E+02  0.13088098158E+02  0.51100000000E-03 0. -1.
        -11    1    3    3    0    0  0.37646002488E+02  0.13229384971E+02  0.66008713823E+01  0.40445143507E+02  0.51100000000E-03 0.  1.
        -12    1    3    3    0    0 -0.28927467975E+01  0.46217887245E+01 -0.18840580128E+01  0.57687598012E+01  0.00000000000E+00 0.  1.
</event>
<event>
 7    1  0.7674040E-012  0.5930193E+02  0.7816164E-02  0.1266605E+00
        -11   -1    0    0    0    0  0.00000000000E+00  0.00000000000E+00  0.45593999997E+02  0.45594000000E+02  0.51100000000E-03 0.  1.
         11   -1    0    0    0    0 -0.00000000000E+00 -0.00000000000E+00 -0.45593999997E+02  0.45594000000E+02  0.51100000000E-03 0. -1.
    9900012    2    1    2    0    0 -0.14768402631E+02  0.27892755807E+02  0.45398210056E+01  0.59301929099E+02  0.49999972773E+02 0.  0.
         12    1    1    2    0    0  0.14768402631E+02 -0.27892755807E+02 -0.45398210056E+01  0.31886070901E+02  0.00000000000E+00 0. -1.
         11    1    3    3    0    0  0.31322507250E+01  0.89292635124E+01 -0.20597979859E+02  0.22667587344E+02  0.51100000000E-03 0. -1.
        -11    1    3    3    0    0 -0.11403438862E+02  0.10173961074E+02  0.11330722310E+02  0.19024541260E+02  0.51100000000E-03 0.  1.
         12    1    3    3    0    0 -0.64972144938E+01  0.87895312204E+01  0.13807078554E+02  0.17609800495E+02  0.00000000000E+00 0. -1.
</event>
<event>
 7    1  0.7674040E-012  0.5930194E+02  0.7816164E-02  0.1266605E+00
        -11   -1    0    0    0    0  0.00000000000E+00  0.00000000000E+00  0.45593999997E+02  0.45594000000E+02  0.51100000000E-03 0.  1.
         11   -1    0    0    0    0 -0.00000000000E+00 -0.00000000000E+00 -0.45593999997E+02  0.45594000000E+02  0.51100000000E-03 0. -1.
    9900012    2    1    2    0    0  0.11328104649E+02 -0.23369473145E+02  0.18500346634E+02  0.59301936342E+02  0.49999985983E+02 0.  0.
         12    1    1    2    0    0 -0.11328104649E+02  0.23369473145E+02 -0.18500346634E+02  0.31886063658E+02  0.00000000000E+00 0. -1.
         11    1    3    3    0    0 -0.23935128959E+01  0.98831971404E+01  0.19070630423E+02  0.21612390768E+02  0.51100000000E-03 0. -1.
        -11    1    3    3    0    0  0.66815678401E+01 -0.22602281213E+02 -0.51515052933E+01  0.24125597855E+02  0.51100000000E-03 0.  1.
         12    1    3    3    0    0  0.70400497053E+01 -0.10650389073E+02  0.45812215037E+01  0.13563947719E+02  0.00000000000E+00 0. -1.
</event>
<event>
 7    1  0.7674040E-012  0.5930193E+02  0.7816164E-02  0.1266605E+00
        -11   -1    0    0    0    0  0.00000000000E+00  0.00000000000E+00  0.45593999997E+02  0.45594000000E+02  0.51100000000E-03 0. -1.
         11   -1    0    0    0    0 -0.00000000000E+00 -0.00000000000E+00 -0.45593999997E+02  0.45594000000E+02  0.51100000000E-03 0.  1.
    9900012    2    1    2    0    0 -0.28109233376E+02  0.18032994355E+01 -0.14944575263E+02  0.59301933770E+02  0.49999981292E+02 0.  0.
         12    1    1    2    0    0  0.28109233376E+02 -0.18032994355E+01  0.14944575263E+02  0.31886066230E+02  0.00000000000E+00 0. -1.
         11    1    3    3    0    0 -0.12497179117E+02  0.20049200513E+02 -0.11124174360E+02  0.26113161098E+02  0.51100000000E-03 0. -1.
        -11    1    3    3    0    0 -0.52893902574E+01 -0.96606760865E+01 -0.12913977968E+02  0.16972835325E+02  0.51100000000E-03 0.  1.
        -12    1    3    3    0    0 -0.10322664002E+02 -0.85852249907E+01  0.90935770641E+01  0.16215937347E+02  0.00000000000E+00 0.  1.
</event>
<event>
 7    1  0.7674040E-012  0.5930194E+02  0.7816164E-02  0.1266605E+00
        -11   -1    0    0    0    0  0.00000000000E+00  0.00000000000E+00  0.45593999997E+02  0.45594000000E+02  0.51100000000E-03 0.  1.
         11   -1    0    0    0    0 -0.00000000000E+00 -0.00000000000E+00 -0.45593999997E+02  0.45594000000E+02  0.51100000000E-03 0. -1.
    9900012    2    1    2    0    0  0.16713164675E+02 -0.17502604557E+02  0.20761743605E+02  0.59301936630E+02  0.49999986508E+02 0.  0.
         12    1    1    2    0    0 -0.16713164675E+02  0.17502604557E+02 -0.20761743605E+02  0.31886063370E+02  0.00000000000E+00 0. -1.
         11    1    3    3    0    0  0.20113503675E+02 -0.15053262505E+02 -0.32222887795E+01  0.25328578471E+02  0.51100000000E-03 0. -1.
        -11    1    3    3    0    0  0.66444171777E+01  0.36714210224E+01  0.20259569489E+02  0.21635104994E+02  0.51100000000E-03 0.  1.
         12    1    3    3    0    0 -0.10044756178E+02 -0.61207630744E+01  0.37244628951E+01  0.12338253164E+02  0.00000000000E+00 0. -1.
</event>
<event>
 7    1  0.7674040E-012  0.5930194E+02  0.7816164E-02  0.1266605E+00
        -11   -1    0    0    0    0  0.00000000000E+00  0.00000000000E+00  0.45593999997E+02  0.45594000000E+02  0.51100000000E-03 0.  1.
         11   -1    0    0    0    0 -0.00000000000E+00 -0.00000000000E+00 -0.45593999997E+02  0.45594000000E+02  0.51100000000E-03 0. -1.
    9900012    2    1    2    0    0 -0.30015145054E+02 -0.74365837044E+01  0.77787712583E+01  0.59301937338E+02  0.49999987799E+02 0.  0.
         12    1    1    2    0    0  0.30015145054E+02  0.74365837044E+01 -0.77787712583E+01  0.31886062662E+02  0.00000000000E+00 0. -1.
         11    1    3    3    0    0 -0.22713752161E+01 -0.82512231416E+01  0.19634507205E+02  0.21418583103E+02  0.51100000000E-03 0. -1.
        -11    1    3    3    0    0 -0.25782749458E+02  0.26292985382E+01 -0.17749737615E+02  0.31412044920E+02  0.51100000000E-03 0.  1.
        -12    1    3    3    0    0 -0.19610203803E+01 -0.18146591009E+01  0.58940016677E+01  0.64713093144E+01  0.00000000000E+00 0.  1.
</event>
<event>
 7    1  0.7674040E-012  0.5930217E+02  0.7816164E-02  0.1266604E+00
        -11   -1    0    0    0    0  0.00000000000E+00  0.00000000000E+00  0.45593999997E+02  0.45594000000E+02  0.51100000000E-03 0.  1.
         11   -1    0    0    0    0 -0.00000000000E+00 -0.00000000000E+00 -0.45593999997E+02  0.45594000000E+02  0.51100000000E-03 0. -1.
    9900012    2    1    2    0    0  0.93210642558E+01 -0.65492476374E+01  0.29781391796E+02  0.59302169592E+02  0.50000411374E+02 0.  0.
         12    1    1    2    0    0 -0.93210642558E+01  0.65492476374E+01 -0.29781391796E+02  0.31885830408E+02  0.00000000000E+00 0. -1.
         11    1    3    3    0    0 -0.17605236587E+02 -0.55877410676E+01  0.86465509590E+01  0.20394363174E+02  0.51100000000E-03 0. -1.
        -11    1    3    3    0    0  0.14124195693E+02 -0.64303690693E+01  0.26129973642E+01  0.15737544467E+02  0.51100000000E-03 0.  1.
         12    1    3    3    0    0  0.12802105149E+02  0.54688624995E+01  0.18521843473E+02  0.23170261952E+02  0.00000000000E+00 0. -1.
</event>
<event>
 7    1  0.7674040E-012  0.5930196E+02  0.7816164E-02  0.1266605E+00
        -11   -1    0    0    0    0  0.00000000000E+00  0.00000000000E+00  0.45593999997E+02  0.45594000000E+02  0.51100000000E-03 0. -1.
         11   -1    0    0    0    0 -0.00000000000E+00 -0.00000000000E+00 -0.45593999997E+02  0.45594000000E+02  0.51100000000E-03 0.  1.
    9900012    2    1    2    0    0  0.18337371716E+02 -0.23216890805E+02 -0.11892712351E+02  0.59301955605E+02  0.50000021113E+02 0.  0.
         12    1    1    2    0    0 -0.18337371716E+02  0.23216890805E+02  0.11892712351E+02  0.31886044395E+02  0.00000000000E+00 0. -1.
         11    1    3    3    0    0  0.14055187560E+02  0.21457584580E+01  0.70599464005E+01  0.15874363614E+02  0.51100000000E-03 0. -1.
        -11    1    3    3    0    0 -0.80831423463E+01 -0.25214498191E+02 -0.15067888314E+02  0.30465543943E+02  0.51100000000E-03 0.  1.
        -12    1    3    3    0    0  0.12365326502E+02 -0.14815107240E+00 -0.38847704377E+01  0.12962048048E+02  0.00000000000E+00 0.  1.
</event>
<event>
 7    1  0.7674040E-012  0.5930195E+02  0.7816164E-02  0.1266605E+00
        -11   -1    0    0    0    0  0.00000000000E+00  0.00000000000E+00  0.45593999997E+02  0.45594000000E+02  0.51100000000E-03 0. -1.
         11   -1    0    0    0    0 -0.00000000000E+00 -0.00000000000E+00 -0.45593999997E+02  0.45594000000E+02  0.51100000000E-03 0.  1.
    9900012    2    1    2    0    0  0.29840404334E+02 -0.65246925956E+01  0.91487169183E+01  0.59301947163E+02  0.50000005718E+02 0.  0.
         12    1    1    2    0    0 -0.29840404334E+02  0.65246925956E+01 -0.91487169183E+01  0.31886052837E+02  0.00000000000E+00 0. -1.
         11    1    3    3    0    0  0.19471885680E+02  0.85926426225E+01  0.17938163818E+02  0.27834610840E+02  0.51100000000E-03 0. -1.
        -11    1    3    3    0    0  0.13927608233E+02 -0.19580537731E+02 -0.48012044042E+01  0.24503617956E+02  0.51100000000E-03 0.  1.
         12    1    3    3    0    0 -0.35590895793E+01  0.44632025127E+01 -0.39882424958E+01  0.69637183679E+01  0.00000000000E+00 0. -1.
</event>
<event>
 7    1  0.7674040E-012  0.5930193E+02  0.7816164E-02  0.1266605E+00
        -11   -1    0    0    0    0  0.00000000000E+00  0.00000000000E+00  0.45593999997E+02  0.45594000000E+02  0.51100000000E-03 0.  1.
         11   -1    0    0    0    0 -0.00000000000E+00 -0.00000000000E+00 -0.45593999997E+02  0.45594000000E+02  0.51100000000E-03 0. -1.
    9900012    2    1    2    0    0  0.24330740096E+02  0.10448343745E+02  0.17764248663E+02  0.59301932020E+02  0.49999978101E+02 0.  0.
         12    1    1    2    0    0 -0.24330740096E+02 -0.10448343745E+02 -0.17764248663E+02  0.31886067980E+02  0.00000000000E+00 0. -1.
         11    1    3    3    0    0  0.30691815984E+02 -0.46124690577E+01  0.16601333758E-01  0.31036473947E+02  0.51100000000E-03 0. -1.
        -11    1    3    3    0    0 -0.60828103386E+01  0.11266122731E+02  0.20071260634E+02  0.23807175529E+02  0.51100000000E-03 0.  1.
        -12    1    3    3    0    0 -0.27826554864E+00  0.37946900719E+01 -0.23236133045E+01  0.44582825444E+01  0.00000000000E+00 0.  1.
</event>
<event>
 7    1  0.7674040E-012  0.5930191E+02  0.7816164E-02  0.1266605E+00
        -11   -1    0    0    0    0  0.00000000000E+00  0.00000000000E+00  0.45593999997E+02  0.45594000000E+02  0.51100000000E-03 0. -1.
         11   -1    0    0    0    0 -0.00000000000E+00 -0.00000000000E+00 -0.45593999997E+02  0.45594000000E+02  0.51100000000E-03 0.  1.
    9900012    2    1    2    0    0 -0.11866179286E+02 -0.20687865066E+02 -0.21164334249E+02  0.59301905601E+02  0.49999929919E+02 0.  0.
         12    1    1    2    0    0  0.11866179286E+02  0.20687865066E+02  0.21164334249E+02  0.31886094399E+02  0.00000000000E+00 0. -1.
         11    1    3    3    0    0 -0.14297249678E+02 -0.86313120045E+01  0.68601521951E+01  0.18054710844E+02  0.51100000000E-03 0.  1.
        -11    1    3    3    0    0  0.71021813711E+01 -0.18338091979E+02 -0.11056130004E+02  0.22560243983E+02  0.51100000000E-03 0. -1.
        -12    1    3    3    0    0 -0.46711109799E+01  0.62815389174E+01 -0.16968356439E+02  0.18686950774E+02  0.00000000000E+00 0.  1.
</event>
<event>
 7    1  0.7674040E-012  0.5930197E+02  0.7816164E-02  0.1266605E+00
        -11   -1    0    0    0    0  0.00000000000E+00  0.00000000000E+00  0.45593999997E+02  0.45594000000E+02  0.51100000000E-03 0.  1.
         11   -1    0    0    0    0 -0.00000000000E+00 -0.00000000000E+00 -0.45593999997E+02  0.45594000000E+02  0.51100000000E-03 0. -1.
    9900012    2    1    2    0    0 -0.28062282259E+02 -0.14844782503E+02  0.29765330691E+01  0.59301968541E+02  0.50000044706E+02 0.  0.
         12    1    1    2    0    0  0.28062282259E+02  0.14844782503E+02 -0.29765330691E+01  0.31886031459E+02  0.00000000000E+00 0. -1.
         11    1    3    3    0    0  0.24402473672E+01  0.29859423139E+01  0.26801216775E+01  0.46961379007E+01  0.51100000000E-03 0. -1.
        -11    1    3    3    0    0 -0.32161621199E+02 -0.28687791463E+02  0.32887647028E+01  0.43222392699E+02  0.51100000000E-03 0.  1.
        -12    1    3    3    0    0  0.16590915728E+01  0.10857066646E+02 -0.29923533113E+01  0.11383437941E+02  0.00000000000E+00 0.  1.
</event>
<event>
 7    1  0.7674040E-012  0.5930195E+02  0.7816164E-02  0.1266605E+00
        -11   -1    0    0    0    0  0.00000000000E+00  0.00000000000E+00  0.45593999997E+02  0.45594000000E+02  0.51100000000E-03 0. -1.
         11   -1    0    0    0    0 -0.00000000000E+00 -0.00000000000E+00 -0.45593999997E+02  0.45594000000E+02  0.51100000000E-03 0.  1.
    9900012    2    1    2    0    0 -0.91734652690E+01  0.29573095221E+02 -0.76157519443E+01  0.59301951269E+02  0.50000013207E+02 0.  0.
         12    1    1    2    0    0  0.91734652690E+01 -0.29573095221E+02  0.76157519443E+01  0.31886048731E+02  0.00000000000E+00 0. -1.
         11    1    3    3    0    0 -0.10272500694E+02 -0.94391210694E+01 -0.83986529695E+01  0.16283692733E+02  0.51100000000E-03 0. -1.
        -11    1    3    3    0    0 -0.72091169254E+01  0.82518101816E+01 -0.15681131666E+01  0.11068998025E+02  0.51100000000E-03 0.  1.
         12    1    3    3    0    0  0.83081523505E+01  0.30760406109E+02  0.23510141918E+01  0.31949260511E+02  0.00000000000E+00 0. -1.
</event>
<event>
 7    1  0.7674040E-012  0.5930195E+02  0.7816164E-02  0.1266605E+00
        -11   -1    0    0    0    0  0.00000000000E+00  0.00000000000E+00  0.45593999997E+02  0.45594000000E+02  0.51100000000E-03 0.  1.
         11   -1    0    0    0    0 -0.00000000000E+00 -0.00000000000E+00 -0.45593999997E+02  0.45594000000E+02  0.51100000000E-03 0. -1.
    9900012    2    1    2    0    0  0.15890810929E+02 -0.12101349138E+02  0.24854775332E+02  0.59301946940E+02  0.50000005312E+02 0.  0.
         12    1    1    2    0    0 -0.15890810929E+02  0.12101349138E+02 -0.24854775332E+02  0.31886053060E+02  0.00000000000E+00 0. -1.
         11    1    3    3    0    0 -0.50160353972E+01  0.17165728402E+01 -0.15684170292E+01  0.55287580577E+01  0.51100000000E-03 0. -1.
        -11    1    3    3    0    0  0.26569173703E+02 -0.14642728811E+02  0.39619799626E+01  0.30594571149E+02  0.51100000000E-03 0.  1.
        -12    1    3    3    0    0 -0.56623273774E+01  0.82480683258E+00  0.22461212398E+02  0.23178617733E+02  0.00000000000E+00 0.  1.
</event>
<event>
 7    1  0.7674040E-012  0.5930194E+02  0.7816164E-02  0.1266605E+00
        -11   -1    0    0    0    0  0.00000000000E+00  0.00000000000E+00  0.45593999997E+02  0.45594000000E+02  0.51100000000E-03 0. -1.
         11   -1    0    0    0    0 -0.00000000000E+00 -0.00000000000E+00 -0.45593999997E+02  0.45594000000E+02  0.51100000000E-03 0.  1.
    9900012    2    1    2    0    0  0.26266334949E+02  0.54114903228E+01 -0.17248666711E+02  0.59301935921E+02  0.49999985215E+02 0.  0.
         12    1    1    2    0    0 -0.26266334949E+02 -0.54114903228E+01  0.17248666711E+02  0.31886064079E+02  0.00000000000E+00 0. -1.
         11    1    3    3    0    0  0.63570637820E+01 -0.13547437901E+02  0.28731716606E+01  0.15238124861E+02  0.51100000000E-03 0. -1.
        -11    1    3    3    0    0  0.16639589408E+02  0.19385492634E+02 -0.26546256507E+02  0.36842597562E+02  0.51100000000E-03 0.  1.
        -12    1    3    3    0    0  0.32696817588E+01 -0.42656440963E+00  0.64244181355E+01  0.72212134977E+01  0.00000000000E+00 0.  1.
</event>
<event>
 7    1  0.7674040E-012  0.5930193E+02  0.7816164E-02  0.1266605E+00
        -11   -1    0    0    0    0  0.00000000000E+00  0.00000000000E+00  0.45593999997E+02  0.45594000000E+02  0.51100000000E-03 0.  1.
         11   -1    0    0    0    0 -0.00000000000E+00 -0.00000000000E+00 -0.45593999997E+02  0.45594000000E+02  0.51100000000E-03 0. -1.
    9900012    2    1    2    0    0  0.25015619394E+02 -0.96225083283E+01  0.17272740713E+02  0.59301930128E+02  0.49999974649E+02 0.  0.
         12    1    1    2    0    0 -0.25015619394E+02  0.96225083283E+01 -0.17272740713E+02  0.31886069872E+02  0.00000000000E+00 0. -1.
         11    1    3    3    0    0 -0.29312998450E+01 -0.55041186915E+00 -0.27423934237E+01  0.40516902594E+01  0.51100000000E-03 0. -1.
        -11    1    3    3    0    0  0.20770738915E+02  0.14078362436E+02  0.22368367768E+01  0.25191810633E+02  0.51100000000E-03 0.  1.
        -12    1    3    3    0    0  0.71761803239E+01 -0.23150458895E+02  0.17778297360E+02  0.30058429235E+02  0.00000000000E+00 0.  1.
</event>
<event>
 7    1  0.7674040E-012  0.5930194E+02  0.7816164E-02  0.1266605E+00
        -11   -1    0    0    0    0  0.00000000000E+00  0.00000000000E+00  0.45593999997E+02  0.45594000000E+02  0.51100000000E-03 0.  1.
         11   -1    0    0    0    0 -0.00000000000E+00 -0.00000000000E+00 -0.45593999997E+02  0.45594000000E+02  0.51100000000E-03 0. -1.
    9900012    2    1    2    0    0  0.33018772932E+01 -0.22271177724E+01  0.31636350304E+02  0.59301935523E+02  0.49999984490E+02 0.  0.
         12    1    1    2    0    0 -0.33018772932E+01  0.22271177724E+01 -0.31636350304E+02  0.31886064477E+02  0.00000000000E+00 0. -1.
         11    1    3    3    0    0  0.53355971482E+01  0.13034215381E+02  0.19810229421E+02  0.24306471515E+02  0.51100000000E-03 0. -1.
        -11    1    3    3    0    0  0.97139991849E+01 -0.15066128763E+02  0.14368765967E+02  0.22974147465E+02  0.51100000000E-03 0.  1.
        -12    1    3    3    0    0 -0.11747719040E+02 -0.19520439095E+00 -0.25426450847E+01  0.12021316543E+02  0.00000000000E+00 0.  1.
</event>
<event>
 7    1  0.7674040E-012  0.5930196E+02  0.7816164E-02  0.1266605E+00
        -11   -1    0    0    0    0  0.00000000000E+00  0.00000000000E+00  0.45593999997E+02  0.45594000000E+02  0.51100000000E-03 0. -1.
         11   -1    0    0    0    0 -0.00000000000E+00 -0.00000000000E+00 -0.45593999997E+02  0.45594000000E+02  0.51100000000E-03 0.  1.
    9900012    2    1    2    0    0 -0.16313429893E+02  0.39920591425E+01 -0.27104523587E+02  0.59301957129E+02  0.50000023893E+02 0.  0.
         12    1    1    2    0    0  0.16313429893E+02 -0.39920591425E+01  0.27104523587E+02  0.31886042871E+02  0.00000000000E+00 0. -1.
         11    1    3    3    0    0  0.98639412619E+01 -0.54989007941E+01 -0.12341629019E+02  0.16728749334E+02  0.51100000000E-03 0. -1.
        -11    1    3    3    0    0 -0.24539788823E+02 -0.50572684040E+01 -0.11526456202E+02  0.27579637272E+02  0.51100000000E-03 0.  1.
         12    1    3    3    0    0 -0.16375823321E+01  0.14548228341E+02 -0.32364383660E+01  0.14993570524E+02  0.00000000000E+00 0. -1.
</event>
<event>
 7    1  0.7674040E-012  0.5930188E+02  0.7816164E-02  0.1266605E+00
        -11   -1    0    0    0    0  0.00000000000E+00  0.00000000000E+00  0.45593999997E+02  0.45594000000E+02  0.51100000000E-03 0. -1.
         11   -1    0    0    0    0 -0.00000000000E+00 -0.00000000000E+00 -0.45593999997E+02  0.45594000000E+02  0.51100000000E-03 0.  1.
    9900012    2    1    2    0    0 -0.31387931855E+02 -0.55672571506E+01 -0.72669729724E+00  0.59301879080E+02  0.49999881552E+02 0.  0.
         12    1    1    2    0    0  0.31387931855E+02  0.55672571506E+01  0.72669729724E+00  0.31886120920E+02  0.00000000000E+00 0. -1.
         11    1    3    3    0    0 -0.12465974201E+02 -0.15687174047E+02  0.11888071857E+02  0.23298373229E+02  0.51100000000E-03 0. -1.
        -11    1    3    3    0    0 -0.44420593795E+01 -0.11144385321E+01 -0.16623849814E+02  0.17243150747E+02  0.51100000000E-03 0.  1.
         12    1    3    3    0    0 -0.14479898275E+02  0.11234355429E+02  0.40090806599E+01  0.18760355105E+02  0.00000000000E+00 0. -1.
</event>
<event>
 7    1  0.7674040E-012  0.5930194E+02  0.7816164E-02  0.1266605E+00
        -11   -1    0    0    0    0  0.00000000000E+00  0.00000000000E+00  0.45593999997E+02  0.45594000000E+02  0.51100000000E-03 0.  1.
         11   -1    0    0    0    0 -0.00000000000E+00 -0.00000000000E+00 -0.45593999997E+02  0.45594000000E+02  0.51100000000E-03 0. -1.
    9900012    2    1    2    0    0  0.29173000450E+02 -0.20855086679E+01 -0.12700687334E+02  0.59301940971E+02  0.49999994425E+02 0.  0.
         12    1    1    2    0    0 -0.29173000450E+02  0.20855086679E+01  0.12700687334E+02  0.31886059029E+02  0.00000000000E+00 0. -1.
         11    1    3    3    0    0  0.10468427836E+02  0.83000657262E+01 -0.21174812948E+02  0.25037008130E+02  0.51100000000E-03 0. -1.
        -11    1    3    3    0    0  0.18510809455E+01 -0.15029317944E+02  0.77394685488E+00  0.15162647939E+02  0.51100000000E-03 0.  1.
         12    1    3    3    0    0  0.16853491668E+02  0.46437435495E+01  0.77001787597E+01  0.19102284903E+02  0.00000000000E+00 0. -1.
</event>
<event>
 7    1  0.7674040E-012  0.5930197E+02  0.7816164E-02  0.1266605E+00
        -11   -1    0    0    0    0  0.00000000000E+00  0.00000000000E+00  0.45593999997E+02  0.45594000000E+02  0.51100000000E-03 0. -1.
         11   -1    0    0    0    0 -0.00000000000E+00 -0.00000000000E+00 -0.45593999997E+02  0.45594000000E+02  0.51100000000E-03 0.  1.
    9900012    2    1    2    0    0 -0.15913325018E+02 -0.64409965689E+01 -0.26870033408E+02  0.59301967866E+02  0.50000043475E+02 0.  0.
         12    1    1    2    0    0  0.15913325018E+02  0.64409965689E+01  0.26870033408E+02  0.31886032134E+02  0.00000000000E+00 0. -1.
         11    1    3    3    0    0 -0.13855298171E+02  0.96890895014E+01  0.39367078160E+01  0.17359303311E+02  0.51100000000E-03 0. -1.
        -11    1    3    3    0    0  0.27124328093E+01 -0.11536607668E+02 -0.15575196390E+01  0.11953094826E+02  0.51100000000E-03 0.  1.
        -12    1    3    3    0    0 -0.47704596570E+01 -0.45934784018E+01 -0.29249221585E+02  0.29989569728E+02  0.00000000000E+00 0.  1.
</event>
<event>
 7    1  0.7764187E-012  0.5930194E+02  0.7816164E-02  0.1266605E+00
        -11   -1    0    0    0    0  0.00000000000E+00  0.00000000000E+00  0.45593999997E+02  0.45594000000E+02  0.51100000000E-03 0. -1.
         11   -1    0    0    0    0 -0.00000000000E+00 -0.00000000000E+00 -0.45593999997E+02  0.45594000000E+02  0.51100000000E-03 0.  1.
    9900012    2    1    2    0    0 -0.16199056626E+02  0.43471447065E+00 -0.27461285669E+02  0.59301943128E+02  0.49999998359E+02 0.  0.
         12    1    1    2    0    0  0.16199056626E+02 -0.43471447065E+00  0.27461285669E+02  0.31886056872E+02  0.00000000000E+00 0. -1.
         11    1    3    3    0    0  0.80122174453E+01  0.81552550954E+01  0.42432830447E+01  0.12194640844E+02  0.51100000000E-03 0. -1.
        -11    1    3    3    0    0 -0.13190858306E+02 -0.24156863556E+01 -0.32185121212E+02  0.34867123643E+02  0.51100000000E-03 0.  1.
         12    1    3    3    0    0 -0.11020415765E+02 -0.53048542691E+01  0.48055249852E+00  0.12240178641E+02  0.00000000000E+00 0. -1.
</event>
<event>
 7    1  0.7674040E-012  0.5930194E+02  0.7816164E-02  0.1266605E+00
        -11   -1    0    0    0    0  0.00000000000E+00  0.00000000000E+00  0.45593999997E+02  0.45594000000E+02  0.51100000000E-03 0.  1.
         11   -1    0    0    0    0 -0.00000000000E+00 -0.00000000000E+00 -0.45593999997E+02  0.45594000000E+02  0.51100000000E-03 0. -1.
    9900012    2    1    2    0    0 -0.11614267995E+02  0.28585393164E+02  0.80439436581E+01  0.59301937951E+02  0.49999988918E+02 0.  0.
         12    1    1    2    0    0  0.11614267995E+02 -0.28585393164E+02 -0.80439436581E+01  0.31886062049E+02  0.00000000000E+00 0. -1.
         11    1    3    3    0    0  0.13476727102E+02  0.11136186496E+02 -0.59764890170E+01  0.18475801587E+02  0.51100000000E-03 0. -1.
        -11    1    3    3    0    0 -0.39087038417E+01  0.11196963848E+02  0.14503598714E+02  0.18735109849E+02  0.51100000000E-03 0.  1.
         12    1    3    3    0    0 -0.21182291255E+02  0.62522428196E+01 -0.48316603860E+00  0.22091026515E+02  0.00000000000E+00 0. -1.
</event>
<event>
 7    1  0.7674040E-012  0.5930194E+02  0.7816164E-02  0.1266605E+00
        -11   -1    0    0    0    0  0.00000000000E+00  0.00000000000E+00  0.45593999997E+02  0.45594000000E+02  0.51100000000E-03 0.  1.
         11   -1    0    0    0    0 -0.00000000000E+00 -0.00000000000E+00 -0.45593999997E+02  0.45594000000E+02  0.51100000000E-03 0. -1.
    9900012    2    1    2    0    0  0.17804022357E+02  0.26280565483E+02  0.30115072037E+01  0.59301944900E+02  0.50000001591E+02 0.  0.
         12    1    1    2    0    0 -0.17804022357E+02 -0.26280565483E+02 -0.30115072037E+01  0.31886055100E+02  0.00000000000E+00 0. -1.
         11    1    3    3    0    0  0.34730313661E+01  0.15954036332E+02 -0.21944403584E+01  0.16474489094E+02  0.51100000000E-03 0. -1.
        -11    1    3    3    0    0 -0.83463949541E+01 -0.32404310136E+01  0.12534907402E+02  0.15404110027E+02  0.51100000000E-03 0.  1.
        -12    1    3    3    0    0  0.22677385945E+02  0.13566960165E+02 -0.73289598394E+01  0.27423345779E+02  0.00000000000E+00 0.  1.
</event>
<event>
 7    1  0.7674040E-012  0.5930193E+02  0.7816164E-02  0.1266605E+00
        -11   -1    0    0    0    0  0.00000000000E+00  0.00000000000E+00  0.45593999997E+02  0.45594000000E+02  0.51100000000E-03 0. -1.
         11   -1    0    0    0    0 -0.00000000000E+00 -0.00000000000E+00 -0.45593999997E+02  0.45594000000E+02  0.51100000000E-03 0.  1.
    9900012    2    1    2    0    0 -0.14634160367E+00  0.31306029530E+02 -0.60524601380E+01  0.59301934477E+02  0.49999982583E+02 0.  0.
         12    1    1    2    0    0  0.14634160367E+00 -0.31306029530E+02  0.60524601380E+01  0.31886065523E+02  0.00000000000E+00 0. -1.
         11    1    3    3    0    0 -0.32094754694E+00 -0.10814248947E+01 -0.22194457847E+02  0.22223106140E+02  0.51100000000E-03 0. -1.
        -11    1    3    3    0    0  0.12878652437E+00  0.17034093540E+02  0.12947463322E+02  0.21396582330E+02  0.51100000000E-03 0.  1.
         12    1    3    3    0    0  0.45819418902E-01  0.15353360885E+02  0.31945343873E+01  0.15682246007E+02  0.00000000000E+00 0. -1.
</event>
<event>
 7    1  0.7674040E-012  0.5930193E+02  0.7816164E-02  0.1266605E+00
        -11   -1    0    0    0    0  0.00000000000E+00  0.00000000000E+00  0.45593999997E+02  0.45594000000E+02  0.51100000000E-03 0.  1.
         11   -1    0    0    0    0 -0.00000000000E+00 -0.00000000000E+00 -0.45593999997E+02  0.45594000000E+02  0.51100000000E-03 0. -1.
    9900012    2    1    2    0    0 -0.26946962324E+02  0.13990429804E+02  0.97391313064E+01  0.59301928069E+02  0.49999970895E+02 0.  0.
         12    1    1    2    0    0  0.26946962324E+02 -0.13990429804E+02 -0.97391313064E+01  0.31886071931E+02  0.00000000000E+00 0. -1.
         11    1    3    3    0    0 -0.77883343390E+00  0.84643719921E+01  0.10612383826E+02  0.13596869694E+02  0.51100000000E-03 0. -1.
        -11    1    3    3    0    0 -0.22791284612E+02  0.13660284228E+02 -0.13894428572E+02  0.29985015676E+02  0.51100000000E-03 0.  1.
        -12    1    3    3    0    0 -0.33768442781E+01 -0.81342264166E+01  0.13021176052E+02  0.15720042699E+02  0.00000000000E+00 0.  1.
</event>
<event>
 7    1  0.7674040E-012  0.5930195E+02  0.7816164E-02  0.1266605E+00
        -11   -1    0    0    0    0  0.00000000000E+00  0.00000000000E+00  0.45593999997E+02  0.45594000000E+02  0.51100000000E-03 0.  1.
         11   -1    0    0    0    0 -0.00000000000E+00 -0.00000000000E+00 -0.45593999997E+02  0.45594000000E+02  0.51100000000E-03 0. -1.
    9900012    2    1    2    0    0  0.65410246460E+00  0.24552992470E+01  0.31784647192E+02  0.59301950675E+02  0.50000012123E+02 0.  0.
         12    1    1    2    0    0 -0.65410246460E+00 -0.24552992470E+01 -0.31784647192E+02  0.31886049325E+02  0.00000000000E+00 0. -1.
         11    1    3    3    0    0  0.43161430890E+01 -0.72512468444E+01  0.22236256035E+00  0.84415115549E+01  0.51100000000E-03 0. -1.
        -11    1    3    3    0    0 -0.16660292094E+02  0.15375058805E+02  0.28387024151E+02  0.36328788946E+02  0.51100000000E-03 0.  1.
        -12    1    3    3    0    0  0.12998251470E+02 -0.56685127133E+01  0.31752604809E+01  0.14531650174E+02  0.00000000000E+00 0.  1.
</event>
<event>
 7    1  0.7674040E-012  0.5930208E+02  0.7816164E-02  0.1266604E+00
        -11   -1    0    0    0    0  0.00000000000E+00  0.00000000000E+00  0.45593999997E+02  0.45594000000E+02  0.51100000000E-03 0.  1.
         11   -1    0    0    0    0 -0.00000000000E+00 -0.00000000000E+00 -0.45593999997E+02  0.45594000000E+02  0.51100000000E-03 0. -1.
    9900012    2    1    2    0    0 -0.31278637840E+02 -0.61144745742E+01  0.98597655530E+00  0.59302076237E+02  0.50000241117E+02 0.  0.
         12    1    1    2    0    0  0.31278637840E+02  0.61144745742E+01 -0.98597655530E+00  0.31885923763E+02  0.00000000000E+00 0. -1.
         11    1    3    3    0    0 -0.24224005086E+02 -0.55209496860E+01 -0.15043830096E+02  0.29044795266E+02  0.51100000000E-03 0. -1.
        -11    1    3    3    0    0 -0.35100543241E+01 -0.38901853732E+01  0.21974778740E+02  0.22590815048E+02  0.51100000000E-03 0.  1.
         12    1    3    3    0    0 -0.35445784307E+01  0.32966604851E+01 -0.59449720885E+01  0.76664659223E+01  0.00000000000E+00 0. -1.
</event>
<event>
 7    1  0.7674040E-012  0.5930172E+02  0.7816164E-02  0.1266606E+00
        -11   -1    0    0    0    0  0.00000000000E+00  0.00000000000E+00  0.45593999997E+02  0.45594000000E+02  0.51100000000E-03 0.  1.
         11   -1    0    0    0    0 -0.00000000000E+00 -0.00000000000E+00 -0.45593999997E+02  0.45594000000E+02  0.51100000000E-03 0. -1.
    9900012    2    1    2    0    0 -0.53456944741E+01  0.79352108173E+01  0.30416949743E+02  0.59301720007E+02  0.49999591438E+02 0.  0.
         12    1    1    2    0    0  0.53456944741E+01 -0.79352108173E+01 -0.30416949743E+02  0.31886279993E+02  0.00000000000E+00 0. -1.
         11    1    3    3    0    0  0.28875737548E+01  0.13600088369E+02  0.15191194795E+00  0.13904084412E+02  0.51100000000E-03 0. -1.
        -11    1    3    3    0    0 -0.15680890751E+02  0.47312793670E-01  0.32199133515E+02  0.35814477137E+02  0.51100000000E-03 0.  1.
        -12    1    3    3    0    0  0.74476225219E+01 -0.57121903455E+01 -0.19340957199E+01  0.95831584577E+01  0.00000000000E+00 0.  1.
</event>
<event>
 7    1  0.7674040E-012  0.5930192E+02  0.7816164E-02  0.1266605E+00
        -11   -1    0    0    0    0  0.00000000000E+00  0.00000000000E+00  0.45593999997E+02  0.45594000000E+02  0.51100000000E-03 0.  1.
         11   -1    0    0    0    0 -0.00000000000E+00 -0.00000000000E+00 -0.45593999997E+02  0.45594000000E+02  0.51100000000E-03 0. -1.
    9900012    2    1    2    0    0 -0.53370350263E+01 -0.27349609369E+02  0.15499590670E+02  0.59301915474E+02  0.49999947924E+02 0.  0.
         12    1    1    2    0    0  0.53370350263E+01  0.27349609369E+02 -0.15499590670E+02  0.31886084526E+02  0.00000000000E+00 0. -1.
         11    1    3    3    0    0 -0.31433544450E+01 -0.69037480439E+01 -0.96328797102E+01  0.12261108677E+02  0.51100000000E-03 0. -1.
        -11    1    3    3    0    0  0.13760872236E+02 -0.15424172487E+02  0.21693875046E+02  0.29964827989E+02  0.51100000000E-03 0.  1.
        -12    1    3    3    0    0 -0.15954552817E+02 -0.50216888372E+01  0.34385953340E+01  0.17075978808E+02  0.00000000000E+00 0.  1.
</event>
<event>
 7    1  0.7674040E-012  0.5930196E+02  0.7816164E-02  0.1266605E+00
        -11   -1    0    0    0    0  0.00000000000E+00  0.00000000000E+00  0.45593999997E+02  0.45594000000E+02  0.51100000000E-03 0.  1.
         11   -1    0    0    0    0 -0.00000000000E+00 -0.00000000000E+00 -0.45593999997E+02  0.45594000000E+02  0.51100000000E-03 0. -1.
    9900012    2    1    2    0    0 -0.24617978524E+02 -0.49526006172E+01  0.19650612947E+02  0.59301957463E+02  0.50000024502E+02 0.  0.
         12    1    1    2    0    0  0.24617978524E+02  0.49526006172E+01 -0.19650612947E+02  0.31886042537E+02  0.00000000000E+00 0. -1.
         11    1    3    3    0    0 -0.48814907864E+01 -0.86007215780E+01  0.26173332633E+02  0.27979362133E+02  0.51100000000E-03 0.  1.
        -11    1    3    3    0    0 -0.13709423024E+01 -0.12782133812E+01 -0.11512437280E+02  0.11664026947E+02  0.51100000000E-03 0. -1.
         12    1    3    3    0    0 -0.18365545435E+02  0.49263343420E+01  0.49897175937E+01  0.19658568383E+02  0.00000000000E+00 0. -1.
</event>
<event>
 7    1  0.7674040E-012  0.5930195E+02  0.7816164E-02  0.1266605E+00
        -11   -1    0    0    0    0  0.00000000000E+00  0.00000000000E+00  0.45593999997E+02  0.45594000000E+02  0.51100000000E-03 0.  1.
         11   -1    0    0    0    0 -0.00000000000E+00 -0.00000000000E+00 -0.45593999997E+02  0.45594000000E+02  0.51100000000E-03 0. -1.
    9900012    2    1    2    0    0 -0.23240010857E+02  0.20981329369E+02 -0.60337293164E+01  0.59301950132E+02  0.50000011133E+02 0.  0.
         12    1    1    2    0    0  0.23240010857E+02 -0.20981329369E+02  0.60337293164E+01  0.31886049868E+02  0.00000000000E+00 0. -1.
         11    1    3    3    0    0 -0.22136871694E+02  0.84264480238E+01  0.24788465562E+01  0.23815767785E+02  0.51100000000E-03 0.  1.
        -11    1    3    3    0    0  0.12578674215E+02  0.11625117707E+02 -0.12500811204E+02  0.21204638354E+02  0.51100000000E-03 0. -1.
         12    1    3    3    0    0 -0.13681813379E+02  0.92976363790E+00  0.39882353311E+01  0.14281543993E+02  0.00000000000E+00 0. -1.
</event>
<event>
 7    1  0.7674040E-012  0.5930195E+02  0.7816164E-02  0.1266605E+00
        -11   -1    0    0    0    0  0.00000000000E+00  0.00000000000E+00  0.45593999997E+02  0.45594000000E+02  0.51100000000E-03 0.  1.
         11   -1    0    0    0    0 -0.00000000000E+00 -0.00000000000E+00 -0.45593999997E+02  0.45594000000E+02  0.51100000000E-03 0. -1.
    9900012    2    1    2    0    0  0.19421506588E+02  0.24898828737E+02 -0.44242061400E+01  0.59301949906E+02  0.50000010721E+02 0.  0.
         12    1    1    2    0    0 -0.19421506588E+02 -0.24898828737E+02  0.44242061400E+01  0.31886050094E+02  0.00000000000E+00 0. -1.
         11    1    3    3    0    0  0.21126895415E+02 -0.37870732577E+01 -0.10318549455E+02  0.23815123280E+02  0.51100000000E-03 0. -1.
        -11    1    3    3    0    0  0.21402975578E+01  0.11464389693E+02 -0.70271646615E+01  0.13615951973E+02  0.51100000000E-03 0.  1.
         12    1    3    3    0    0 -0.38456863843E+01  0.17221512301E+02  0.12921507977E+02  0.21870874653E+02  0.00000000000E+00 0. -1.
</event>
<event>
 7    1  0.7674040E-012  0.5930195E+02  0.7816164E-02  0.1266605E+00
        -11   -1    0    0    0    0  0.00000000000E+00  0.00000000000E+00  0.45593999997E+02  0.45594000000E+02  0.51100000000E-03 0.  1.
         11   -1    0    0    0    0 -0.00000000000E+00 -0.00000000000E+00 -0.45593999997E+02  0.45594000000E+02  0.51100000000E-03 0. -1.
    9900012    2    1    2    0    0  0.29400526454E+02 -0.10822129164E+02  0.59338899099E+01  0.59301945292E+02  0.50000002305E+02 0.  0.
         12    1    1    2    0    0 -0.29400526454E+02  0.10822129164E+02 -0.59338899099E+01  0.31886054708E+02  0.00000000000E+00 0. -1.
         11    1    3    3    0    0  0.14615223725E+01  0.39272042308E+01 -0.10984757499E+02  0.11756865156E+02  0.51100000000E-03 0. -1.
        -11    1    3    3    0    0  0.12062098815E+02 -0.18728455802E+02  0.21066042748E+02  0.30659866958E+02  0.51100000000E-03 0.  1.
        -12    1    3    3    0    0  0.15876905266E+02  0.39791224081E+01 -0.41473953387E+01  0.16885213178E+02  0.00000000000E+00 0.  1.
</event>
<event>
 7    1  0.7674040E-012  0.5930195E+02  0.7816164E-02  0.1266605E+00
        -11   -1    0    0    0    0  0.00000000000E+00  0.00000000000E+00  0.45593999997E+02  0.45594000000E+02  0.51100000000E-03 0.  1.
         11   -1    0    0    0    0 -0.00000000000E+00 -0.00000000000E+00 -0.45593999997E+02  0.45594000000E+02  0.51100000000E-03 0. -1.
    9900012    2    1    2    0    0  0.15147351178E+02 -0.10293487278E+02  0.26102144480E+02  0.59301951727E+02  0.50000014041E+02 0.  0.
         12    1    1    2    0    0 -0.15147351178E+02  0.10293487278E+02 -0.26102144480E+02  0.31886048273E+02  0.00000000000E+00 0. -1.
         11    1    3    3    0    0  0.11501151507E+02  0.15026967670E+02 -0.41909679949E+01  0.19381704165E+02  0.51100000000E-03 0. -1.
        -11    1    3    3    0    0  0.46323973583E+01 -0.18619100341E+02  0.23325946911E+02  0.30203142260E+02  0.51100000000E-03 0.  1.
         12    1    3    3    0    0 -0.98619768786E+00 -0.67013546067E+01  0.69671655641E+01  0.97171053016E+01  0.00000000000E+00 0. -1.
</event>
<event>
 7    1  0.7674040E-012  0.5930197E+02  0.7816164E-02  0.1266605E+00
        -11   -1    0    0    0    0  0.00000000000E+00  0.00000000000E+00  0.45593999997E+02  0.45594000000E+02  0.51100000000E-03 0. -1.
         11   -1    0    0    0    0 -0.00000000000E+00 -0.00000000000E+00 -0.45593999997E+02  0.45594000000E+02  0.51100000000E-03 0.  1.
    9900012    2    1    2    0    0  0.31388960057E+01 -0.29284626878E+02 -0.12217890280E+02  0.59301970420E+02  0.50000048133E+02 0.  0.
         12    1    1    2    0    0 -0.31388960057E+01  0.29284626878E+02  0.12217890280E+02  0.31886029580E+02  0.00000000000E+00 0. -1.
         11    1    3    3    0    0  0.80939261035E+01  0.94647703498E+01  0.27403540881E+01  0.12751590424E+02  0.51100000000E-03 0. -1.
        -11    1    3    3    0    0 -0.11437395475E+02 -0.17460216668E+02 -0.24346071272E+01  0.21014292600E+02  0.51100000000E-03 0.  1.
        -12    1    3    3    0    0  0.64823653774E+01 -0.21289180559E+02 -0.12523637241E+02  0.25536087396E+02  0.00000000000E+00 0.  1.
</event>
<event>
 7    1  0.7674040E-012  0.5930194E+02  0.7816164E-02  0.1266605E+00
        -11   -1    0    0    0    0  0.00000000000E+00  0.00000000000E+00  0.45593999997E+02  0.45594000000E+02  0.51100000000E-03 0.  1.
         11   -1    0    0    0    0 -0.00000000000E+00 -0.00000000000E+00 -0.45593999997E+02  0.45594000000E+02  0.51100000000E-03 0. -1.
    9900012    2    1    2    0    0 -0.62535610222E+01  0.18596366211E+02  0.25135412487E+02  0.59301939996E+02  0.49999992647E+02 0.  0.
         12    1    1    2    0    0  0.62535610222E+01 -0.18596366211E+02 -0.25135412487E+02  0.31886060004E+02  0.00000000000E+00 0. -1.
         11    1    3    3    0    0  0.36379424737E+01 -0.43862801154E+01 -0.44917043051E+00  0.57162779000E+01  0.51100000000E-03 0. -1.
        -11    1    3    3    0    0 -0.93188122736E+01  0.22808064815E+02 -0.31552808684E+01  0.24839562806E+02  0.51100000000E-03 0.  1.
        -12    1    3    3    0    0 -0.57269122228E+00  0.17458151145E+00  0.28739863786E+02  0.28746099290E+02  0.00000000000E+00 0.  1.
</event>
<event>
 7    1  0.7674040E-012  0.5930197E+02  0.7816164E-02  0.1266605E+00
        -11   -1    0    0    0    0  0.00000000000E+00  0.00000000000E+00  0.45593999997E+02  0.45594000000E+02  0.51100000000E-03 0. -1.
         11   -1    0    0    0    0 -0.00000000000E+00 -0.00000000000E+00 -0.45593999997E+02  0.45594000000E+02  0.51100000000E-03 0.  1.
    9900012    2    1    2    0    0 -0.78958949841E+01  0.30852233462E+02 -0.15852966489E+01  0.59301974336E+02  0.50000055274E+02 0.  0.
         12    1    1    2    0    0  0.78958949841E+01 -0.30852233462E+02  0.15852966489E+01  0.31886025664E+02  0.00000000000E+00 0. -1.
         11    1    3    3    0    0 -0.87488140918E+01 -0.92934999343E+01  0.43545392914E+01  0.13486026166E+02  0.51100000000E-03 0. -1.
        -11    1    3    3    0    0  0.72231182889E+01  0.25105810384E+02 -0.11525808356E+02  0.28553798545E+02  0.51100000000E-03 0.  1.
        -12    1    3    3    0    0 -0.63701991812E+01  0.15039923013E+02  0.55859724155E+01  0.17262149625E+02  0.00000000000E+00 0.  1.
</event>
<event>
 7    1  0.7674040E-012  0.5930197E+02  0.7816164E-02  0.1266605E+00
        -11   -1    0    0    0    0  0.00000000000E+00  0.00000000000E+00  0.45593999997E+02  0.45594000000E+02  0.51100000000E-03 0.  1.
         11   -1    0    0    0    0 -0.00000000000E+00 -0.00000000000E+00 -0.45593999997E+02  0.45594000000E+02  0.51100000000E-03 0. -1.
    9900012    2    1    2    0    0 -0.17233511946E+02 -0.26439642151E+02  0.45464684415E+01  0.59301968789E+02  0.50000045159E+02 0.  0.
         12    1    1    2    0    0  0.17233511946E+02  0.26439642151E+02 -0.45464684415E+01  0.31886031211E+02  0.00000000000E+00 0. -1.
         11    1    3    3    0    0 -0.20185853598E+02 -0.99144534629E+01 -0.12956072605E+02  0.25954284628E+02  0.51100000000E-03 0. -1.
        -11    1    3    3    0    0  0.66026189447E+01  0.54351008724E+00  0.14079876802E+02  0.15560620527E+02  0.51100000000E-03 0.  1.
         12    1    3    3    0    0 -0.36502772934E+01 -0.17068698776E+02  0.34226642439E+01  0.17787063635E+02  0.00000000000E+00 0. -1.
</event>
<event>
 7    1  0.7674040E-012  0.5930225E+02  0.7816164E-02  0.1266604E+00
        -11   -1    0    0    0    0  0.00000000000E+00  0.00000000000E+00  0.45593999997E+02  0.45594000000E+02  0.51100000000E-03 0.  1.
         11   -1    0    0    0    0 -0.00000000000E+00 -0.00000000000E+00 -0.45593999997E+02  0.45594000000E+02  0.51100000000E-03 0. -1.
    9900012    2    1    2    0    0  0.44100458306E+01  0.25215507226E+02  0.19011325796E+02  0.59302253695E+02  0.50000564756E+02 0.  0.
         12    1    1    2    0    0 -0.44100458306E+01 -0.25215507226E+02 -0.19011325796E+02  0.31885746305E+02  0.00000000000E+00 0. -1.
         11    1    3    3    0    0 -0.11720100802E+02  0.25652370630E+02  0.29335733126E+01  0.28355083043E+02  0.51100000000E-03 0.  1.
        -11    1    3    3    0    0  0.93822019997E+01 -0.91010140116E+01  0.15024971443E+02  0.19914917463E+02  0.51100000000E-03 0. -1.
        -12    1    3    3    0    0  0.67479446326E+01  0.86641506074E+01  0.10527810403E+01  0.11032253189E+02  0.00000000000E+00 0.  1.
</event>
<event>
 7    1  0.7674040E-012  0.5930198E+02  0.7816164E-02  0.1266605E+00
        -11   -1    0    0    0    0  0.00000000000E+00  0.00000000000E+00  0.45593999997E+02  0.45594000000E+02  0.51100000000E-03 0. -1.
         11   -1    0    0    0    0 -0.00000000000E+00 -0.00000000000E+00 -0.45593999997E+02  0.45594000000E+02  0.51100000000E-03 0.  1.
    9900012    2    1    2    0    0  0.18573238570E+01 -0.22790447620E+02 -0.22223047563E+02  0.59301984294E+02  0.50000073437E+02 0.  0.
         12    1    1    2    0    0 -0.18573238570E+01  0.22790447620E+02  0.22223047563E+02  0.31886015706E+02  0.00000000000E+00 0. -1.
         11    1    3    3    0    0  0.82029458685E+01 -0.29985316478E+01 -0.30547677721E+02  0.31771687512E+02  0.51100000000E-03 0.  1.
        -11    1    3    3    0    0 -0.10745940565E+02 -0.15120504272E+02  0.97500655931E+01  0.20956351481E+02  0.51100000000E-03 0. -1.
        -12    1    3    3    0    0  0.44003185537E+01 -0.46714116996E+01 -0.14254354347E+01  0.65739453010E+01  0.00000000000E+00 0.  1.
</event>
<event>
 7    1  0.7674040E-012  0.5930193E+02  0.7816164E-02  0.1266605E+00
        -11   -1    0    0    0    0  0.00000000000E+00  0.00000000000E+00  0.45593999997E+02  0.45594000000E+02  0.51100000000E-03 0.  1.
         11   -1    0    0    0    0 -0.00000000000E+00 -0.00000000000E+00 -0.45593999997E+02  0.45594000000E+02  0.51100000000E-03 0. -1.
    9900012    2    1    2    0    0  0.27552527843E+02 -0.15563671640E+02 -0.39180967527E+01  0.59301934899E+02  0.49999983352E+02 0.  0.
         12    1    1    2    0    0 -0.27552527843E+02  0.15563671640E+02  0.39180967527E+01  0.31886065101E+02  0.00000000000E+00 0. -1.
         11    1    3    3    0    0  0.10579999967E+02  0.25472781085E+01  0.18616390944E+02  0.21563743578E+02  0.51100000000E-03 0. -1.
        -11    1    3    3    0    0  0.99474140958E+01  0.91208730074E+00 -0.71616518875E+01  0.12291143497E+02  0.51100000000E-03 0.  1.
         12    1    3    3    0    0  0.70251137804E+01 -0.19023037049E+02 -0.15372835809E+02  0.25447047825E+02  0.00000000000E+00 0. -1.
</event>
<event>
 7    1  0.7674040E-012  0.5930195E+02  0.7816164E-02  0.1266605E+00
        -11   -1    0    0    0    0  0.00000000000E+00  0.00000000000E+00  0.45593999997E+02  0.45594000000E+02  0.51100000000E-03 0. -1.
         11   -1    0    0    0    0 -0.00000000000E+00 -0.00000000000E+00 -0.45593999997E+02  0.45594000000E+02  0.51100000000E-03 0.  1.
    9900012    2    1    2    0    0 -0.11053693799E+02 -0.58218659289E+01 -0.29336699922E+02  0.59301949259E+02  0.50000009541E+02 0.  0.
         12    1    1    2    0    0  0.11053693799E+02  0.58218659289E+01  0.29336699922E+02  0.31886050741E+02  0.00000000000E+00 0. -1.
         11    1    3    3    0    0  0.78318490329E+01 -0.45754205172E+01 -0.55404881751E+01  0.10628703668E+02  0.51100000000E-03 0. -1.
        -11    1    3    3    0    0 -0.23338796318E+02 -0.15072031602E+02 -0.17555159435E+02  0.32864101589E+02  0.51100000000E-03 0.  1.
        -12    1    3    3    0    0  0.44532534860E+01  0.13825586191E+02 -0.62410523120E+01  0.15809144002E+02  0.00000000000E+00 0.  1.
</event>
<event>
 7    1  0.7674040E-012  0.5930196E+02  0.7816164E-02  0.1266605E+00
        -11   -1    0    0    0    0  0.00000000000E+00  0.00000000000E+00  0.45593999997E+02  0.45594000000E+02  0.51100000000E-03 0.  1.
         11   -1    0    0    0    0 -0.00000000000E+00 -0.00000000000E+00 -0.45593999997E+02  0.45594000000E+02  0.51100000000E-03 0. -1.
    9900012    2    1    2    0    0 -0.43879307326E+01 -0.10304251901E+02  0.29854447544E+02  0.59301959456E+02  0.50000028138E+02 0.  0.
         12    1    1    2    0    0  0.43879307326E+01  0.10304251901E+02 -0.29854447544E+02  0.31886040544E+02  0.00000000000E+00 0. -1.
         11    1    3    3    0    0 -0.11306667047E+02  0.12985377655E+02  0.86256564226E+01  0.19257795864E+02  0.51100000000E-03 0. -1.
        -11    1    3    3    0    0  0.58682291816E+01 -0.10894768294E+02  0.24266269800E+02  0.27239382155E+02  0.51100000000E-03 0.  1.
         12    1    3    3    0    0  0.10505071328E+01 -0.12394861263E+02 -0.30374786782E+01  0.12804781438E+02  0.00000000000E+00 0. -1.
</event>
<event>
 7    1  0.7674040E-012  0.5930187E+02  0.7816164E-02  0.1266605E+00
        -11   -1    0    0    0    0  0.00000000000E+00  0.00000000000E+00  0.45593999997E+02  0.45594000000E+02  0.51100000000E-03 0. -1.
         11   -1    0    0    0    0 -0.00000000000E+00 -0.00000000000E+00 -0.45593999997E+02  0.45594000000E+02  0.51100000000E-03 0.  1.
    9900012    2    1    2    0    0  0.55494546692E+01 -0.31051341121E+02  0.46629364809E+01  0.59301871211E+02  0.49999867199E+02 0.  0.
         12    1    1    2    0    0 -0.55494546692E+01  0.31051341121E+02 -0.46629364809E+01  0.31886128789E+02  0.00000000000E+00 0. -1.
         11    1    3    3    0    0 -0.60933584423E+01 -0.14633101580E+02  0.18663705498E+02  0.24486538794E+02  0.51100000000E-03 0. -1.
        -11    1    3    3    0    0  0.14378246207E+02 -0.20886007557E+02 -0.74519047801E+01  0.26428964428E+02  0.51100000000E-03 0.  1.
         12    1    3    3    0    0 -0.27354330950E+01  0.44677680151E+01 -0.65488642366E+01  0.83863679888E+01  0.00000000000E+00 0. -1.
</event>
<event>
 7    1  0.7674040E-012  0.5930198E+02  0.7816164E-02  0.1266605E+00
        -11   -1    0    0    0    0  0.00000000000E+00  0.00000000000E+00  0.45593999997E+02  0.45594000000E+02  0.51100000000E-03 0. -1.
         11   -1    0    0    0    0 -0.00000000000E+00 -0.00000000000E+00 -0.45593999997E+02  0.45594000000E+02  0.51100000000E-03 0.  1.
    9900012    2    1    2    0    0  0.79715835940E+01  0.20852985458E+02 -0.22766750792E+02  0.59301982858E+02  0.50000070818E+02 0.  0.
         12    1    1    2    0    0 -0.79715835940E+01 -0.20852985458E+02  0.22766750792E+02  0.31886017142E+02  0.00000000000E+00 0. -1.
         11    1    3    3    0    0 -0.10223782056E+02 -0.77186406823E+01 -0.98848105688E+01  0.16180624641E+02  0.51100000000E-03 0. -1.
        -11    1    3    3    0    0  0.23666955206E+02  0.25220470015E+02 -0.94936462867E+01  0.35865389954E+02  0.51100000000E-03 0.  1.
         12    1    3    3    0    0 -0.54715895553E+01  0.33511561251E+01 -0.33882939369E+01  0.72559682634E+01  0.00000000000E+00 0. -1.
</event>
<event>
 7    1  0.7674040E-012  0.5930194E+02  0.7816164E-02  0.1266605E+00
        -11   -1    0    0    0    0  0.00000000000E+00  0.00000000000E+00  0.45593999997E+02  0.45594000000E+02  0.51100000000E-03 0.  1.
         11   -1    0    0    0    0 -0.00000000000E+00 -0.00000000000E+00 -0.45593999997E+02  0.45594000000E+02  0.51100000000E-03 0. -1.
    9900012    2    1    2    0    0 -0.15831220628E+02  0.26126228507E+02  0.91385802829E+01  0.59301937023E+02  0.49999987226E+02 0.  0.
         12    1    1    2    0    0  0.15831220628E+02 -0.26126228507E+02 -0.91385802829E+01  0.31886062977E+02  0.00000000000E+00 0. -1.
         11    1    3    3    0    0  0.64056458641E+01  0.16296625737E+01 -0.20250221819E+01  0.69129454025E+01  0.51100000000E-03 0. -1.
        -11    1    3    3    0    0 -0.12219012492E+02 -0.84890123725E+01  0.99413324576E+01  0.17894068532E+02  0.51100000000E-03 0.  1.
        -12    1    3    3    0    0 -0.10017854000E+02  0.32985578306E+02  0.12222700072E+01  0.34494923089E+02  0.00000000000E+00 0.  1.
</event>
<event>
 7    1  0.7674040E-012  0.5930215E+02  0.7816164E-02  0.1266604E+00
        -11   -1    0    0    0    0  0.00000000000E+00  0.00000000000E+00  0.45593999997E+02  0.45594000000E+02  0.51100000000E-03 0.  1.
         11   -1    0    0    0    0 -0.00000000000E+00 -0.00000000000E+00 -0.45593999997E+02  0.45594000000E+02  0.51100000000E-03 0. -1.
    9900012    2    1    2    0    0 -0.11825747682E+02 -0.14213487975E+02  0.25977601129E+02  0.59302151899E+02  0.50000379107E+02 0.  0.
         12    1    1    2    0    0  0.11825747682E+02  0.14213487975E+02 -0.25977601129E+02  0.31885848101E+02  0.00000000000E+00 0. -1.
         11    1    3    3    0    0 -0.68334047651E+01 -0.27103614876E+02  0.69255540826E+01  0.28796955736E+02  0.51100000000E-03 0. -1.
        -11    1    3    3    0    0 -0.73591612469E+01  0.11572405151E+02  0.27595462052E+01  0.13989028228E+02  0.51100000000E-03 0.  1.
         12    1    3    3    0    0  0.23668183304E+01  0.13177217494E+01  0.16292500842E+02  0.16516167936E+02  0.00000000000E+00 0. -1.
</event>
<event>
 7    1  0.7674040E-012  0.5930195E+02  0.7816164E-02  0.1266605E+00
        -11   -1    0    0    0    0  0.00000000000E+00  0.00000000000E+00  0.45593999997E+02  0.45594000000E+02  0.51100000000E-03 0.  1.
         11   -1    0    0    0    0 -0.00000000000E+00 -0.00000000000E+00 -0.45593999997E+02  0.45594000000E+02  0.51100000000E-03 0. -1.
    9900012    2    1    2    0    0  0.73573667666E+01 -0.26507489179E+02 -0.16122730346E+02  0.59301948784E+02  0.50000008675E+02 0.  0.
         12    1    1    2    0    0 -0.73573667666E+01  0.26507489179E+02  0.16122730346E+02  0.31886051216E+02  0.00000000000E+00 0. -1.
         11    1    3    3    0    0 -0.16314995038E+01 -0.13725596142E+02 -0.12358442745E+02  0.18541437037E+02  0.51100000000E-03 0. -1.
        -11    1    3    3    0    0  0.10839196502E+02  0.11177720603E+02 -0.58644725044E+01  0.16637958309E+02  0.51100000000E-03 0.  1.
        -12    1    3    3    0    0 -0.18503302312E+01 -0.23959613640E+02  0.21001849027E+01  0.24122553438E+02  0.00000000000E+00 0.  1.
</event>
<event>
 7    1  0.7674040E-012  0.5930195E+02  0.7816164E-02  0.1266605E+00
        -11   -1    0    0    0    0  0.00000000000E+00  0.00000000000E+00  0.45593999997E+02  0.45594000000E+02  0.51100000000E-03 0.  1.
         11   -1    0    0    0    0 -0.00000000000E+00 -0.00000000000E+00 -0.45593999997E+02  0.45594000000E+02  0.51100000000E-03 0. -1.
    9900012    2    1    2    0    0 -0.73359628048E+01 -0.30334822091E+02  0.65346992392E+01  0.59301951707E+02  0.50000014005E+02 0.  0.
         12    1    1    2    0    0  0.73359628048E+01  0.30334822091E+02 -0.65346992392E+01  0.31886048293E+02  0.00000000000E+00 0. -1.
         11    1    3    3    0    0  0.42036312924E+00  0.23948022085E+01  0.81225887840E+00  0.25635029793E+01  0.51100000000E-03 0. -1.
        -11    1    3    3    0    0 -0.15306389412E+02 -0.41615781620E+02  0.15985527712E+01  0.44370195040E+02  0.51100000000E-03 0.  1.
        -12    1    3    3    0    0  0.75500634780E+01  0.88861573200E+01  0.41238875896E+01  0.12368253688E+02  0.00000000000E+00 0.  1.
</event>
<event>
 7    1  0.7674040E-012  0.5930194E+02  0.7816164E-02  0.1266605E+00
        -11   -1    0    0    0    0  0.00000000000E+00  0.00000000000E+00  0.45593999997E+02  0.45594000000E+02  0.51100000000E-03 0. -1.
         11   -1    0    0    0    0 -0.00000000000E+00 -0.00000000000E+00 -0.45593999997E+02  0.45594000000E+02  0.51100000000E-03 0.  1.
    9900012    2    1    2    0    0 -0.78475434839E+01  0.57798901752E+01 -0.30360001588E+02  0.59301940889E+02  0.49999994276E+02 0.  0.
         12    1    1    2    0    0  0.78475434839E+01 -0.57798901752E+01  0.30360001588E+02  0.31886059111E+02  0.00000000000E+00 0. -1.
         11    1    3    3    0    0 -0.10424525885E+02  0.10334994696E+02 -0.73027381090E+01  0.16395512784E+02  0.51100000000E-03 0. -1.
        -11    1    3    3    0    0  0.12782862536E+02 -0.99699147669E+01 -0.26310500832E+02  0.30903773707E+02  0.51100000000E-03 0.  1.
        -12    1    3    3    0    0 -0.10205880135E+02  0.54148102460E+01  0.32532373524E+01  0.12002654398E+02  0.00000000000E+00 0.  1.
</event>
<event>
 7    1  0.7674040E-012  0.5930186E+02  0.7816164E-02  0.1266605E+00
        -11   -1    0    0    0    0  0.00000000000E+00  0.00000000000E+00  0.45593999997E+02  0.45594000000E+02  0.51100000000E-03 0.  1.
         11   -1    0    0    0    0 -0.00000000000E+00 -0.00000000000E+00 -0.45593999997E+02  0.45594000000E+02  0.51100000000E-03 0. -1.
    9900012    2    1    2    0    0 -0.11821330933E+02  0.20748766703E+02  0.21129855960E+02  0.59301858847E+02  0.49999844651E+02 0.  0.
         12    1    1    2    0    0  0.11821330933E+02 -0.20748766703E+02 -0.21129855960E+02  0.31886141153E+02  0.00000000000E+00 0. -1.
         11    1    3    3    0    0 -0.14272625380E+02  0.25463584614E+02  0.28643123671E+01  0.29330977860E+02  0.51100000000E-03 0. -1.
        -11    1    3    3    0    0 -0.17634964681E+01 -0.37308450143E+01 -0.48990303505E+01  0.64054369835E+01  0.51100000000E-03 0.  1.
         12    1    3    3    0    0  0.42147909143E+01 -0.98397289664E+00  0.23164573943E+02  0.23565444003E+02  0.00000000000E+00 0. -1.
</event>
<event>
 7    1  0.7674040E-012  0.5930200E+02  0.7816164E-02  0.1266605E+00
        -11   -1    0    0    0    0  0.00000000000E+00  0.00000000000E+00  0.45593999997E+02  0.45594000000E+02  0.51100000000E-03 0.  1.
         11   -1    0    0    0    0 -0.00000000000E+00 -0.00000000000E+00 -0.45593999997E+02  0.45594000000E+02  0.51100000000E-03 0. -1.
    9900012    2    1    2    0    0 -0.37828915149E+01 -0.23400635780E+02  0.21326436081E+02  0.59302001521E+02  0.50000104853E+02 0.  0.
         12    1    1    2    0    0  0.37828915149E+01  0.23400635780E+02 -0.21326436081E+02  0.31885998479E+02  0.00000000000E+00 0. -1.
         11    1    3    3    0    0  0.76062777416E+01  0.28415358746E+01 -0.65441457658E+01  0.10428596803E+02  0.51100000000E-03 0. -1.
        -11    1    3    3    0    0 -0.15645788669E+02 -0.30313589076E+02  0.22223746426E+02  0.40713625376E+02  0.51100000000E-03 0.  1.
        -12    1    3    3    0    0  0.42566194126E+01  0.40714174220E+01  0.56468354205E+01  0.81597793422E+01  0.00000000000E+00 0.  1.
</event>
<event>
 7    1  0.7674040E-012  0.5930200E+02  0.7816164E-02  0.1266605E+00
        -11   -1    0    0    0    0  0.00000000000E+00  0.00000000000E+00  0.45593999997E+02  0.45594000000E+02  0.51100000000E-03 0. -1.
         11   -1    0    0    0    0 -0.00000000000E+00 -0.00000000000E+00 -0.45593999997E+02  0.45594000000E+02  0.51100000000E-03 0.  1.
    9900012    2    1    2    0    0  0.64038492493E+01  0.27554097763E+02 -0.14713247006E+02  0.59301996390E+02  0.50000095497E+02 0.  0.
         12    1    1    2    0    0 -0.64038492493E+01 -0.27554097763E+02  0.14713247006E+02  0.31886003610E+02  0.00000000000E+00 0. -1.
         11    1    3    3    0    0 -0.50010742604E+01 -0.42382434476E+01  0.77511448769E+01  0.10151536753E+02  0.51100000000E-03 0. -1.
        -11    1    3    3    0    0  0.57937306605E+01  0.25841536271E+02 -0.13615703775E+01  0.26518035108E+02  0.51100000000E-03 0.  1.
        -12    1    3    3    0    0  0.56111928492E+01  0.59508049393E+01 -0.21102821505E+02  0.22632424530E+02  0.00000000000E+00 0.  1.
</event>
<event>
 7    1  0.7674040E-012  0.5930196E+02  0.7816164E-02  0.1266605E+00
        -11   -1    0    0    0    0  0.00000000000E+00  0.00000000000E+00  0.45593999997E+02  0.45594000000E+02  0.51100000000E-03 0. -1.
         11   -1    0    0    0    0 -0.00000000000E+00 -0.00000000000E+00 -0.45593999997E+02  0.45594000000E+02  0.51100000000E-03 0.  1.
    9900012    2    1    2    0    0 -0.71470547711E+01 -0.29380831822E+02  0.10119573450E+02  0.59301961718E+02  0.50000032264E+02 0.  0.
         12    1    1    2    0    0  0.71470547711E+01  0.29380831822E+02 -0.10119573450E+02  0.31886038282E+02  0.00000000000E+00 0. -1.
         11    1    3    3    0    0  0.16069841218E+00 -0.10910722049E+02  0.83535672762E+01  0.13742334813E+02  0.51100000000E-03 0. -1.
        -11    1    3    3    0    0 -0.17421249946E+02 -0.22536434468E+02 -0.93604695930E+01  0.29983482444E+02  0.51100000000E-03 0.  1.
        -12    1    3    3    0    0  0.10113496762E+02  0.40663246949E+01  0.11126475767E+02  0.15576144462E+02  0.00000000000E+00 0.  1.
</event>
<event>
 7    1  0.7674040E-012  0.5930196E+02  0.7816164E-02  0.1266605E+00
        -11   -1    0    0    0    0  0.00000000000E+00  0.00000000000E+00  0.45593999997E+02  0.45594000000E+02  0.51100000000E-03 0.  1.
         11   -1    0    0    0    0 -0.00000000000E+00 -0.00000000000E+00 -0.45593999997E+02  0.45594000000E+02  0.51100000000E-03 0. -1.
    9900012    2    1    2    0    0 -0.76672367654E+01 -0.22417053776E+02  0.21340311053E+02  0.59301957670E+02  0.50000024881E+02 0.  0.
         12    1    1    2    0    0  0.76672367654E+01  0.22417053776E+02 -0.21340311053E+02  0.31886042330E+02  0.00000000000E+00 0. -1.
         11    1    3    3    0    0  0.11685146240E+02 -0.64073332859E+01 -0.43101286915E+01  0.14006204771E+02  0.51100000000E-03 0. -1.
        -11    1    3    3    0    0 -0.18383307841E+02 -0.16422121612E+02  0.31134589169E+02  0.39711392929E+02  0.51100000000E-03 0.  1.
         12    1    3    3    0    0 -0.96907516484E+00  0.41240112205E+00 -0.54841494244E+01  0.55843599696E+01  0.00000000000E+00 0. -1.
</event>
<event>
 7    1  0.7674040E-012  0.5930193E+02  0.7816164E-02  0.1266605E+00
        -11   -1    0    0    0    0  0.00000000000E+00  0.00000000000E+00  0.45593999997E+02  0.45594000000E+02  0.51100000000E-03 0.  1.
         11   -1    0    0    0    0 -0.00000000000E+00 -0.00000000000E+00 -0.45593999997E+02  0.45594000000E+02  0.51100000000E-03 0. -1.
    9900012    2    1    2    0    0 -0.87994452724E+01 -0.22864945769E+02  0.20407976398E+02  0.59301929644E+02  0.49999973767E+02 0.  0.
         12    1    1    2    0    0  0.87994452724E+01  0.22864945769E+02 -0.20407976398E+02  0.31886070356E+02  0.00000000000E+00 0. -1.
         11    1    3    3    0    0  0.21741891075E+00  0.23164944191E+01  0.50968124683E+01  0.56027595857E+01  0.51100000000E-03 0. -1.
        -11    1    3    3    0    0  0.14062243285E+02 -0.24078251518E+02  0.12005111763E+02  0.30358385844E+02  0.51100000000E-03 0.  1.
        -12    1    3    3    0    0 -0.23079107468E+02 -0.11031886698E+01  0.33060521669E+01  0.23340784214E+02  0.00000000000E+00 0.  1.
</event>
<event>
 7    1  0.7674040E-012  0.5930192E+02  0.7816164E-02  0.1266605E+00
        -11   -1    0    0    0    0  0.00000000000E+00  0.00000000000E+00  0.45593999997E+02  0.45594000000E+02  0.51100000000E-03 0. -1.
         11   -1    0    0    0    0 -0.00000000000E+00 -0.00000000000E+00 -0.45593999997E+02  0.45594000000E+02  0.51100000000E-03 0.  1.
    9900012    2    1    2    0    0 -0.17415082177E+02 -0.26710013466E+02  0.11148097579E+00  0.59301916286E+02  0.49999949406E+02 0.  0.
         12    1    1    2    0    0  0.17415082177E+02  0.26710013466E+02 -0.11148097579E+00  0.31886083714E+02  0.00000000000E+00 0. -1.
         11    1    3    3    0    0 -0.14501432808E+02 -0.25277236372E+02 -0.98633089579E+01  0.30765485466E+02  0.51100000000E-03 0. -1.
        -11    1    3    3    0    0 -0.68447622512E+00  0.11271063313E+02 -0.13500656627E+01  0.11372249270E+02  0.51100000000E-03 0.  1.
         12    1    3    3    0    0 -0.22291731439E+01 -0.12703840407E+02  0.11324855596E+02  0.17164181550E+02  0.00000000000E+00 0. -1.
</event>
<event>
 7    1  0.7674040E-012  0.5930195E+02  0.7816164E-02  0.1266605E+00
        -11   -1    0    0    0    0  0.00000000000E+00  0.00000000000E+00  0.45593999997E+02  0.45594000000E+02  0.51100000000E-03 0.  1.
         11   -1    0    0    0    0 -0.00000000000E+00 -0.00000000000E+00 -0.45593999997E+02  0.45594000000E+02  0.51100000000E-03 0. -1.
    9900012    2    1    2    0    0  0.99643388726E+01  0.28590616326E+01  0.30153908609E+02  0.59301945258E+02  0.50000002244E+02 0.  0.
         12    1    1    2    0    0 -0.99643388726E+01 -0.28590616326E+01 -0.30153908609E+02  0.31886054742E+02  0.00000000000E+00 0. -1.
         11    1    3    3    0    0  0.13786720540E+02 -0.14002483173E+02  0.15338175865E+02  0.24927952932E+02  0.51100000000E-03 0. -1.
        -11    1    3    3    0    0  0.80573910707E+00  0.22817231433E+02  0.14013183649E+02  0.26788889152E+02  0.51100000000E-03 0.  1.
         12    1    3    3    0    0 -0.46281207743E+01 -0.59556866277E+01  0.80254909556E+00  0.75851031739E+01  0.00000000000E+00 0. -1.
</event>
<event>
 7    1  0.7674040E-012  0.5930194E+02  0.7816164E-02  0.1266605E+00
        -11   -1    0    0    0    0  0.00000000000E+00  0.00000000000E+00  0.45593999997E+02  0.45594000000E+02  0.51100000000E-03 0.  1.
         11   -1    0    0    0    0 -0.00000000000E+00 -0.00000000000E+00 -0.45593999997E+02  0.45594000000E+02  0.51100000000E-03 0. -1.
    9900012    2    1    2    0    0 -0.11452573224E+02 -0.21686544951E+02  0.20377764452E+02  0.59301938007E+02  0.49999989020E+02 0.  0.
         12    1    1    2    0    0  0.11452573224E+02  0.21686544951E+02 -0.20377764452E+02  0.31886061993E+02  0.00000000000E+00 0. -1.
         11    1    3    3    0    0  0.60288534211E+01  0.74463328442E+01  0.23379974530E+01  0.98621082306E+01  0.51100000000E-03 0.  1.
        -11    1    3    3    0    0 -0.23215667429E+02 -0.31904755164E+02  0.13855722196E+02  0.41819393277E+02  0.51100000000E-03 0. -1.
         12    1    3    3    0    0  0.57342407846E+01  0.27718773692E+01  0.41840448032E+01  0.76204364994E+01  0.00000000000E+00 0. -1.
</event>
<event>
 7    1  0.7674040E-012  0.5930169E+02  0.7816164E-02  0.1266606E+00
        -11   -1    0    0    0    0  0.00000000000E+00  0.00000000000E+00  0.45593999997E+02  0.45594000000E+02  0.51100000000E-03 0. -1.
         11   -1    0    0    0    0 -0.00000000000E+00 -0.00000000000E+00 -0.45593999997E+02  0.45594000000E+02  0.51100000000E-03 0.  1.
    9900012    2    1    2    0    0  0.13392059888E+01 -0.23962096857E+02 -0.20994320539E+02  0.59301685485E+02  0.49999528479E+02 0.  0.
         12    1    1    2    0    0 -0.13392059888E+01  0.23962096857E+02  0.20994320539E+02  0.31886314515E+02  0.00000000000E+00 0. -1.
         11    1    3    3    0    0 -0.12157689942E+01 -0.39277318139E+01  0.28775480202E+01  0.50185111656E+01  0.51100000000E-03 0. -1.
        -11    1    3    3    0    0 -0.12457100684E+02  0.68677801942E+01 -0.17964931604E+02  0.22914722998E+02  0.51100000000E-03 0.  1.
        -12    1    3    3    0    0  0.15012075667E+02 -0.26902145237E+02 -0.59069369545E+01  0.31368451322E+02  0.00000000000E+00 0.  1.
</event>
<event>
 7    1  0.7674040E-012  0.5930194E+02  0.7816164E-02  0.1266605E+00
        -11   -1    0    0    0    0  0.00000000000E+00  0.00000000000E+00  0.45593999997E+02  0.45594000000E+02  0.51100000000E-03 0.  1.
         11   -1    0    0    0    0 -0.00000000000E+00 -0.00000000000E+00 -0.45593999997E+02  0.45594000000E+02  0.51100000000E-03 0. -1.
    9900012    2    1    2    0    0  0.22448834543E+02  0.98737795903E+01  0.20378392543E+02  0.59301943825E+02  0.49999999631E+02 0.  0.
         12    1    1    2    0    0 -0.22448834543E+02 -0.98737795903E+01 -0.20378392543E+02  0.31886056175E+02  0.00000000000E+00 0. -1.
         11    1    3    3    0    0 -0.13491382408E+01  0.13162384282E+02  0.34028263683E+00  0.13235721609E+02  0.51100000000E-03 0. -1.
        -11    1    3    3    0    0  0.32235791226E+02 -0.17094595164E+01  0.12416410103E+02  0.34586640888E+02  0.51100000000E-03 0.  1.
        -12    1    3    3    0    0 -0.84378184429E+01 -0.15791451756E+01  0.76216998037E+01  0.11479581328E+02  0.00000000000E+00 0.  1.
</event>
<event>
 7    1  0.7674040E-012  0.5930196E+02  0.7816164E-02  0.1266605E+00
        -11   -1    0    0    0    0  0.00000000000E+00  0.00000000000E+00  0.45593999997E+02  0.45594000000E+02  0.51100000000E-03 0.  1.
         11   -1    0    0    0    0 -0.00000000000E+00 -0.00000000000E+00 -0.45593999997E+02  0.45594000000E+02  0.51100000000E-03 0. -1.
    9900012    2    1    2    0    0 -0.17582490924E+02 -0.26140675448E+02 -0.49235102259E+01  0.59301955201E+02  0.50000020377E+02 0.  0.
         12    1    1    2    0    0  0.17582490924E+02  0.26140675448E+02  0.49235102259E+01  0.31886044799E+02  0.00000000000E+00 0. -1.
         11    1    3    3    0    0  0.12353246582E+02 -0.15741279545E+02 -0.12538933774E+02  0.23613882427E+02  0.51100000000E-03 0. -1.
        -11    1    3    3    0    0 -0.70426290752E+01 -0.34116713544E+01 -0.43230440328E+01  0.89401809653E+01  0.51100000000E-03 0.  1.
         12    1    3    3    0    0 -0.22893108431E+02 -0.69877245488E+01  0.11938467581E+02  0.26747891808E+02  0.00000000000E+00 0. -1.
</event>
<event>
 7    1  0.7674040E-012  0.5930195E+02  0.7816164E-02  0.1266605E+00
        -11   -1    0    0    0    0  0.00000000000E+00  0.00000000000E+00  0.45593999997E+02  0.45594000000E+02  0.51100000000E-03 0.  1.
         11   -1    0    0    0    0 -0.00000000000E+00 -0.00000000000E+00 -0.45593999997E+02  0.45594000000E+02  0.51100000000E-03 0. -1.
    9900012    2    1    2    0    0  0.16690924627E+02  0.25649153345E+02  0.89584679439E+01  0.59301950070E+02  0.50000011020E+02 0.  0.
         12    1    1    2    0    0 -0.16690924627E+02 -0.25649153345E+02 -0.89584679439E+01  0.31886049930E+02  0.00000000000E+00 0. -1.
         11    1    3    3    0    0  0.13143144364E+02  0.66566193092E+01 -0.12871520981E+02  0.19563457696E+02  0.51100000000E-03 0. -1.
        -11    1    3    3    0    0  0.42455332284E+01  0.67922080814E+01  0.25700618545E+02  0.26919889243E+02  0.51100000000E-03 0.  1.
        -12    1    3    3    0    0 -0.69775296476E+00  0.12200325954E+02 -0.38706296193E+01  0.12818603131E+02  0.00000000000E+00 0.  1.
</event>
<event>
 7    1  0.7674040E-012  0.5930196E+02  0.7816164E-02  0.1266605E+00
        -11   -1    0    0    0    0  0.00000000000E+00  0.00000000000E+00  0.45593999997E+02  0.45594000000E+02  0.51100000000E-03 0.  1.
         11   -1    0    0    0    0 -0.00000000000E+00 -0.00000000000E+00 -0.45593999997E+02  0.45594000000E+02  0.51100000000E-03 0. -1.
    9900012    2    1    2    0    0 -0.27876168362E+02  0.15424796743E+02  0.13092413007E+01  0.59301964971E+02  0.50000038195E+02 0.  0.
         12    1    1    2    0    0  0.27876168362E+02 -0.15424796743E+02 -0.13092413007E+01  0.31886035029E+02  0.00000000000E+00 0. -1.
         11    1    3    3    0    0 -0.81886464011E+00  0.15575750086E+02 -0.14563175864E+02  0.21339180433E+02  0.51100000000E-03 0. -1.
        -11    1    3    3    0    0 -0.30591384891E+02  0.10441221193E+01  0.13004583974E+02  0.33257213130E+02  0.51100000000E-03 0.  1.
        -12    1    3    3    0    0  0.35340811691E+01 -0.11950754623E+01  0.28678331908E+01  0.47055714085E+01  0.00000000000E+00 0.  1.
</event>
<event>
 7    1  0.7674040E-012  0.5930196E+02  0.7816164E-02  0.1266605E+00
        -11   -1    0    0    0    0  0.00000000000E+00  0.00000000000E+00  0.45593999997E+02  0.45594000000E+02  0.51100000000E-03 0.  1.
         11   -1    0    0    0    0 -0.00000000000E+00 -0.00000000000E+00 -0.45593999997E+02  0.45594000000E+02  0.51100000000E-03 0. -1.
    9900012    2    1    2    0    0 -0.21363709319E+02 -0.18245757135E+01  0.23600476102E+02  0.59301958781E+02  0.50000026907E+02 0.  0.
         12    1    1    2    0    0  0.21363709319E+02  0.18245757135E+01 -0.23600476102E+02  0.31886041219E+02  0.00000000000E+00 0. -1.
         11    1    3    3    0    0 -0.11800460746E+02 -0.12825329056E+02  0.21389414525E+02  0.27590704833E+02  0.51100000000E-03 0. -1.
        -11    1    3    3    0    0 -0.19229789483E+01  0.17621987189E+02  0.86503661511E+01  0.19724632198E+02  0.51100000000E-03 0.  1.
         12    1    3    3    0    0 -0.76402696247E+01 -0.66212338465E+01 -0.64393045740E+01  0.11986621750E+02  0.00000000000E+00 0. -1.
</event>
<event>
 7    1  0.7674040E-012  0.5930186E+02  0.7816164E-02  0.1266605E+00
        -11   -1    0    0    0    0  0.00000000000E+00  0.00000000000E+00  0.45593999997E+02  0.45594000000E+02  0.51100000000E-03 0. -1.
         11   -1    0    0    0    0 -0.00000000000E+00 -0.00000000000E+00 -0.45593999997E+02  0.45594000000E+02  0.51100000000E-03 0.  1.
    9900012    2    1    2    0    0 -0.70211025250E+01 -0.20137063058E+02 -0.23705031597E+02  0.59301863321E+02  0.49999852810E+02 0.  0.
         12    1    1    2    0    0  0.70211025250E+01  0.20137063058E+02  0.23705031597E+02  0.31886136679E+02  0.00000000000E+00 0. -1.
         11    1    3    3    0    0 -0.20528105405E+02  0.77139238162E+01 -0.43707913746E+01  0.22360938032E+02  0.51100000000E-03 0. -1.
        -11    1    3    3    0    0  0.10263649678E+02 -0.25006165972E+02 -0.17786279150E+02  0.32357419051E+02  0.51100000000E-03 0.  1.
         12    1    3    3    0    0  0.32433532017E+01 -0.28448209022E+01 -0.15479610731E+01  0.45835062387E+01  0.00000000000E+00 0. -1.
</event>
<event>
 7    1  0.7674040E-012  0.5930175E+02  0.7816164E-02  0.1266605E+00
        -11   -1    0    0    0    0  0.00000000000E+00  0.00000000000E+00  0.45593999997E+02  0.45594000000E+02  0.51100000000E-03 0. -1.
         11   -1    0    0    0    0 -0.00000000000E+00 -0.00000000000E+00 -0.45593999997E+02  0.45594000000E+02  0.51100000000E-03 0.  1.
    9900012    2    1    2    0    0  0.85246321148E+01  0.26634633846E+02  0.15318602787E+02  0.59301754311E+02  0.49999654000E+02 0.  0.
         12    1    1    2    0    0 -0.85246321148E+01 -0.26634633846E+02 -0.15318602787E+02  0.31886245689E+02  0.00000000000E+00 0. -1.
         11    1    3    3    0    0  0.22463278463E+02  0.11525473833E+02  0.26174414750E+00  0.25248840303E+02  0.51100000000E-03 0. -1.
        -11    1    3    3    0    0 -0.87060697866E+01 -0.35655542273E+01 -0.14819754692E+00  0.94090802341E+01  0.51100000000E-03 0.  1.
        -12    1    3    3    0    0 -0.52325765615E+01  0.18674714240E+02  0.15205056186E+02  0.24643833774E+02  0.00000000000E+00 0.  1.
</event>
<event>
 7    1  0.7674040E-012  0.5930194E+02  0.7816164E-02  0.1266605E+00
        -11   -1    0    0    0    0  0.00000000000E+00  0.00000000000E+00  0.45593999997E+02  0.45594000000E+02  0.51100000000E-03 0.  1.
         11   -1    0    0    0    0 -0.00000000000E+00 -0.00000000000E+00 -0.45593999997E+02  0.45594000000E+02  0.51100000000E-03 0. -1.
    9900012    2    1    2    0    0 -0.60913246689E+01 -0.17135750176E+01  0.31251886836E+02  0.59301937114E+02  0.49999987391E+02 0.  0.
         12    1    1    2    0    0  0.60913246689E+01  0.17135750176E+01 -0.31251886836E+02  0.31886062886E+02  0.00000000000E+00 0. -1.
         11    1    3    3    0    0  0.76864198472E+01 -0.22278421228E+01  0.15320086600E+02  0.17284368206E+02  0.51100000000E-03 0. -1.
        -11    1    3    3    0    0 -0.13445962093E+02  0.16814584070E+02  0.13805780579E+02  0.25575842347E+02  0.51100000000E-03 0.  1.
        -12    1    3    3    0    0 -0.33178242284E+00 -0.16300316965E+02  0.21260196568E+01  0.16441726561E+02  0.00000000000E+00 0.  1.
</event>
<event>
 7    1  0.7674040E-012  0.5930195E+02  0.7816164E-02  0.1266605E+00
        -11   -1    0    0    0    0  0.00000000000E+00  0.00000000000E+00  0.45593999997E+02  0.45594000000E+02  0.51100000000E-03 0.  1.
         11   -1    0    0    0    0 -0.00000000000E+00 -0.00000000000E+00 -0.45593999997E+02  0.45594000000E+02  0.51100000000E-03 0. -1.
    9900012    2    1    2    0    0 -0.12159974038E+01 -0.36425477451E+01  0.31653958469E+02  0.59301954612E+02  0.50000019303E+02 0.  0.
         12    1    1    2    0    0  0.12159974038E+01  0.36425477451E+01 -0.31653958469E+02  0.31886045388E+02  0.00000000000E+00 0. -1.
         11    1    3    3    0    0 -0.75667014192E+01 -0.13044674843E+02  0.96560033870E+01  0.17906895706E+02  0.51100000000E-03 0. -1.
        -11    1    3    3    0    0  0.10352870481E+02  0.22231142410E+01  0.28826214130E+02  0.30709522717E+02  0.51100000000E-03 0.  1.
        -12    1    3    3    0    0 -0.40021664661E+01  0.71790128572E+01 -0.68282590487E+01  0.10685536190E+02  0.00000000000E+00 0.  1.
</event>
<event>
 7    1  0.7674040E-012  0.5930195E+02  0.7816164E-02  0.1266605E+00
        -11   -1    0    0    0    0  0.00000000000E+00  0.00000000000E+00  0.45593999997E+02  0.45594000000E+02  0.51100000000E-03 0. -1.
         11   -1    0    0    0    0 -0.00000000000E+00 -0.00000000000E+00 -0.45593999997E+02  0.45594000000E+02  0.51100000000E-03 0.  1.
    9900012    2    1    2    0    0 -0.13977347524E+02 -0.28658653440E+02  0.18796865943E+00  0.59301953004E+02  0.50000016370E+02 0.  0.
         12    1    1    2    0    0  0.13977347524E+02  0.28658653440E+02 -0.18796865943E+00  0.31886046996E+02  0.00000000000E+00 0. -1.
         11    1    3    3    0    0 -0.25532009774E+02 -0.15482675648E+01 -0.10813502473E+02  0.27770712838E+02  0.51100000000E-03 0. -1.
        -11    1    3    3    0    0  0.10768942424E+02 -0.23590617690E+02  0.93737902254E+01  0.27574540928E+02  0.51100000000E-03 0.  1.
         12    1    3    3    0    0  0.78571982564E+00 -0.35197681852E+01  0.16276809073E+01  0.39566992377E+01  0.00000000000E+00 0. -1.
</event>
<event>
 7    1  0.7674040E-012  0.5930195E+02  0.7816164E-02  0.1266605E+00
        -11   -1    0    0    0    0  0.00000000000E+00  0.00000000000E+00  0.45593999997E+02  0.45594000000E+02  0.51100000000E-03 0. -1.
         11   -1    0    0    0    0 -0.00000000000E+00 -0.00000000000E+00 -0.45593999997E+02  0.45594000000E+02  0.51100000000E-03 0.  1.
    9900012    2    1    2    0    0 -0.31346818834E+02  0.55406115346E+01 -0.18434977537E+01  0.59301954288E+02  0.50000018712E+02 0.  0.
         12    1    1    2    0    0  0.31346818834E+02 -0.55406115346E+01  0.18434977537E+01  0.31886045712E+02  0.00000000000E+00 0. -1.
         11    1    3    3    0    0 -0.26049706984E+02  0.41016836291E+01 -0.22544793179E+02  0.34694073590E+02  0.51100000000E-03 0. -1.
        -11    1    3    3    0    0  0.34746668289E+01  0.18030916009E+01  0.33108268878E+01  0.51269897440E+01  0.51100000000E-03 0.  1.
         12    1    3    3    0    0 -0.87717786787E+01 -0.36416369547E+00  0.17390468538E+02  0.19480890953E+02  0.00000000000E+00 0. -1.
</event>
<event>
 7    1  0.7674040E-012  0.5930194E+02  0.7816164E-02  0.1266605E+00
        -11   -1    0    0    0    0  0.00000000000E+00  0.00000000000E+00  0.45593999997E+02  0.45594000000E+02  0.51100000000E-03 0.  1.
         11   -1    0    0    0    0 -0.00000000000E+00 -0.00000000000E+00 -0.45593999997E+02  0.45594000000E+02  0.51100000000E-03 0. -1.
    9900012    2    1    2    0    0  0.23274841681E+02  0.21767016671E+02  0.10953778329E+01  0.59301935291E+02  0.49999984066E+02 0.  0.
         12    1    1    2    0    0 -0.23274841681E+02 -0.21767016671E+02 -0.10953778329E+01  0.31886064709E+02  0.00000000000E+00 0. -1.
         11    1    3    3    0    0  0.28811752993E+00 -0.22556592848E+01 -0.11084355013E+02  0.11315208210E+02  0.51100000000E-03 0. -1.
        -11    1    3    3    0    0  0.12656444355E+02  0.30491736612E+01  0.19536759158E+02  0.23476967487E+02  0.51100000000E-03 0.  1.
        -12    1    3    3    0    0  0.10330279796E+02  0.20973502295E+02 -0.73570263121E+01  0.24509759594E+02  0.00000000000E+00 0.  1.
</event>
<event>
 7    1  0.7674040E-012  0.5930196E+02  0.7816164E-02  0.1266605E+00
        -11   -1    0    0    0    0  0.00000000000E+00  0.00000000000E+00  0.45593999997E+02  0.45594000000E+02  0.51100000000E-03 0. -1.
         11   -1    0    0    0    0 -0.00000000000E+00 -0.00000000000E+00 -0.45593999997E+02  0.45594000000E+02  0.51100000000E-03 0.  1.
    9900012    2    1    2    0    0 -0.90677362564E+01  0.29026398768E+02 -0.95897945800E+01  0.59301955618E+02  0.50000021138E+02 0.  0.
         12    1    1    2    0    0  0.90677362564E+01 -0.29026398768E+02  0.95897945800E+01  0.31886044382E+02  0.00000000000E+00 0. -1.
         11    1    3    3    0    0 -0.23162152397E+01  0.19628676517E+02  0.10380780428E+02  0.22325106885E+02  0.51100000000E-03 0. -1.
        -11    1    3    3    0    0 -0.14125692289E+02  0.15732465680E+02 -0.15818095376E+02  0.26405639561E+02  0.51100000000E-03 0.  1.
        -12    1    3    3    0    0  0.73741712726E+01 -0.63347434294E+01 -0.41524796321E+01  0.10571209173E+02  0.00000000000E+00 0.  1.
</event>
<event>
 7    1  0.7674040E-012  0.5930195E+02  0.7816164E-02  0.1266605E+00
        -11   -1    0    0    0    0  0.00000000000E+00  0.00000000000E+00  0.45593999997E+02  0.45594000000E+02  0.51100000000E-03 0.  1.
         11   -1    0    0    0    0 -0.00000000000E+00 -0.00000000000E+00 -0.45593999997E+02  0.45594000000E+02  0.51100000000E-03 0. -1.
    9900012    2    1    2    0    0 -0.45644483850E+00 -0.24693998447E+02  0.20167256701E+02  0.59301950637E+02  0.50000012053E+02 0.  0.
         12    1    1    2    0    0  0.45644483850E+00  0.24693998447E+02 -0.20167256701E+02  0.31886049363E+02  0.00000000000E+00 0. -1.
         11    1    3    3    0    0 -0.10460252613E+02 -0.11473881572E+02 -0.10504818037E+02  0.18746147479E+02  0.51100000000E-03 0. -1.
        -11    1    3    3    0    0  0.92402672206E+01 -0.52473413382E+01  0.20344272683E+01  0.10819243227E+02  0.51100000000E-03 0.  1.
         12    1    3    3    0    0  0.76354055427E+00 -0.79727755359E+01  0.28637647469E+02  0.29736559930E+02  0.00000000000E+00 0. -1.
</event>
<event>
 7    1  0.7674040E-012  0.5930194E+02  0.7816164E-02  0.1266605E+00
        -11   -1    0    0    0    0  0.00000000000E+00  0.00000000000E+00  0.45593999997E+02  0.45594000000E+02  0.51100000000E-03 0.  1.
         11   -1    0    0    0    0 -0.00000000000E+00 -0.00000000000E+00 -0.45593999997E+02  0.45594000000E+02  0.51100000000E-03 0. -1.
    9900012    2    1    2    0    0  0.11583714149E+02 -0.28708833163E+02  0.76381629792E+01  0.59301936136E+02  0.49999985607E+02 0.  0.
         12    1    1    2    0    0 -0.11583714149E+02  0.28708833163E+02 -0.76381629792E+01  0.31886063864E+02  0.00000000000E+00 0. -1.
         11    1    3    3    0    0  0.15785280829E+02 -0.30227595675E+02 -0.49760500627E+01  0.34462206918E+02  0.51100000000E-03 0. -1.
        -11    1    3    3    0    0 -0.12758527938E+02  0.10496191676E+01  0.81643548363E+01  0.15183491881E+02  0.51100000000E-03 0.  1.
        -12    1    3    3    0    0  0.85569612587E+01  0.46914334512E+00  0.44498582057E+01  0.96562373372E+01  0.00000000000E+00 0.  1.
</event>
<event>
 7    1  0.7674040E-012  0.5930194E+02  0.7816164E-02  0.1266605E+00
        -11   -1    0    0    0    0  0.00000000000E+00  0.00000000000E+00  0.45593999997E+02  0.45594000000E+02  0.51100000000E-03 0.  1.
         11   -1    0    0    0    0 -0.00000000000E+00 -0.00000000000E+00 -0.45593999997E+02  0.45594000000E+02  0.51100000000E-03 0. -1.
    9900012    2    1    2    0    0  0.17176052602E+02  0.24037150538E+02  0.11996649801E+02  0.59301937285E+02  0.49999987704E+02 0.  0.
         12    1    1    2    0    0 -0.17176052602E+02 -0.24037150538E+02 -0.11996649801E+02  0.31886062715E+02  0.00000000000E+00 0. -1.
         11    1    3    3    0    0  0.94760775069E+01  0.21391247187E+02 -0.11730113191E+02  0.26172066347E+02  0.51100000000E-03 0. -1.
        -11    1    3    3    0    0  0.14789527439E+02  0.26721765091E+00  0.11250864449E+02  0.18584495642E+02  0.51100000000E-03 0.  1.
         12    1    3    3    0    0 -0.70895523437E+01  0.23786857002E+01  0.12475898542E+02  0.14545375297E+02  0.00000000000E+00 0. -1.
</event>
<event>
 7    1  0.7674040E-012  0.5930195E+02  0.7816164E-02  0.1266605E+00
        -11   -1    0    0    0    0  0.00000000000E+00  0.00000000000E+00  0.45593999997E+02  0.45594000000E+02  0.51100000000E-03 0.  1.
         11   -1    0    0    0    0 -0.00000000000E+00 -0.00000000000E+00 -0.45593999997E+02  0.45594000000E+02  0.51100000000E-03 0. -1.
    9900012    2    1    2    0    0 -0.10306345191E+02 -0.19657573595E+02  0.22892771986E+02  0.59301953521E+02  0.50000017313E+02 0.  0.
         12    1    1    2    0    0  0.10306345191E+02  0.19657573595E+02 -0.22892771986E+02  0.31886046479E+02  0.00000000000E+00 0. -1.
         11    1    3    3    0    0  0.40147468155E+01 -0.13336473332E+02 -0.68968517740E+01  0.15541759154E+02  0.51100000000E-03 0. -1.
        -11    1    3    3    0    0  0.94933672004E+00  0.94811734128E+01  0.12935589625E+02  0.16066218245E+02  0.51100000000E-03 0.  1.
         12    1    3    3    0    0 -0.15270428727E+02 -0.15802273676E+02  0.16854034135E+02  0.27693976122E+02  0.00000000000E+00 0. -1.
</event>
<event>
 7    1  0.7674040E-012  0.5930195E+02  0.7816164E-02  0.1266605E+00
        -11   -1    0    0    0    0  0.00000000000E+00  0.00000000000E+00  0.45593999997E+02  0.45594000000E+02  0.51100000000E-03 0.  1.
         11   -1    0    0    0    0 -0.00000000000E+00 -0.00000000000E+00 -0.45593999997E+02  0.45594000000E+02  0.51100000000E-03 0. -1.
    9900012    2    1    2    0    0  0.22181422087E+02 -0.14623685083E+02  0.17631015916E+02  0.59301947039E+02  0.50000005492E+02 0.  0.
         12    1    1    2    0    0 -0.22181422087E+02  0.14623685083E+02 -0.17631015916E+02  0.31886052961E+02  0.00000000000E+00 0. -1.
         11    1    3    3    0    0 -0.53255851725E+01 -0.61697574271E+00  0.17947374154E+01  0.56536359229E+01  0.51100000000E-03 0. -1.
        -11    1    3    3    0    0  0.37391318189E+02 -0.16680093907E+02  0.11491351395E+02  0.42525138046E+02  0.51100000000E-03 0.  1.
        -12    1    3    3    0    0 -0.98843109299E+01  0.26733845664E+01  0.43449271059E+01  0.11123173070E+02  0.00000000000E+00 0.  1.
</event>
<event>
 7    1  0.7674040E-012  0.5930196E+02  0.7816164E-02  0.1266605E+00
        -11   -1    0    0    0    0  0.00000000000E+00  0.00000000000E+00  0.45593999997E+02  0.45594000000E+02  0.51100000000E-03 0.  1.
         11   -1    0    0    0    0 -0.00000000000E+00 -0.00000000000E+00 -0.45593999997E+02  0.45594000000E+02  0.51100000000E-03 0. -1.
    9900012    2    1    2    0    0  0.39374918218E+01  0.10019162982E+02  0.30013859560E+02  0.59301964900E+02  0.50000038066E+02 0.  0.
         12    1    1    2    0    0 -0.39374918218E+01 -0.10019162982E+02 -0.30013859560E+02  0.31886035100E+02  0.00000000000E+00 0. -1.
         11    1    3    3    0    0 -0.80754932993E+01 -0.38761016450E+01  0.38183818991E+01  0.97374430205E+01  0.51100000000E-03 0. -1.
        -11    1    3    3    0    0  0.25041661327E+02  0.12577867720E+02  0.22556023832E+02  0.35973070063E+02  0.51100000000E-03 0.  1.
        -12    1    3    3    0    0 -0.13028676206E+02  0.13173969070E+01  0.36394538295E+01  0.13591451816E+02  0.00000000000E+00 0.  1.
</event>
<event>
 7    1  0.7674040E-012  0.5930197E+02  0.7816164E-02  0.1266605E+00
        -11   -1    0    0    0    0  0.00000000000E+00  0.00000000000E+00  0.45593999997E+02  0.45594000000E+02  0.51100000000E-03 0.  1.
         11   -1    0    0    0    0 -0.00000000000E+00 -0.00000000000E+00 -0.45593999997E+02  0.45594000000E+02  0.51100000000E-03 0. -1.
    9900012    2    1    2    0    0  0.10370253855E+02  0.29111822405E+02  0.78535783204E+01  0.59301967617E+02  0.50000043020E+02 0.  0.
         12    1    1    2    0    0 -0.10370253855E+02 -0.29111822405E+02 -0.78535783204E+01  0.31886032383E+02  0.00000000000E+00 0. -1.
         11    1    3    3    0    0 -0.16249682240E+02 -0.10163159796E+01  0.92458042126E+01  0.18723513742E+02  0.51100000000E-03 0. -1.
        -11    1    3    3    0    0  0.54955643993E+01  0.92131874455E+01 -0.16299604756E+01  0.10850844317E+02  0.51100000000E-03 0.  1.
         12    1    3    3    0    0  0.21124371695E+02  0.20914950939E+02  0.23773458337E+00  0.29727609557E+02  0.00000000000E+00 0. -1.
</event>
<event>
 7    1  0.7674040E-012  0.5930195E+02  0.7816164E-02  0.1266605E+00
        -11   -1    0    0    0    0  0.00000000000E+00  0.00000000000E+00  0.45593999997E+02  0.45594000000E+02  0.51100000000E-03 0.  1.
         11   -1    0    0    0    0 -0.00000000000E+00 -0.00000000000E+00 -0.45593999997E+02  0.45594000000E+02  0.51100000000E-03 0. -1.
    9900012    2    1    2    0    0 -0.28263869151E+01 -0.30942474012E+02  0.71620467643E+01  0.59301951721E+02  0.50000014031E+02 0.  0.
         12    1    1    2    0    0  0.28263869151E+01  0.30942474012E+02 -0.71620467643E+01  0.31886048279E+02  0.00000000000E+00 0. -1.
         11    1    3    3    0    0 -0.10538623623E+02  0.18256875684E-01  0.14191194452E+02  0.17676337897E+02  0.51100000000E-03 0. -1.
        -11    1    3    3    0    0  0.36083609671E+01 -0.83314803612E+01 -0.14788811598E+02  0.17353466011E+02  0.51100000000E-03 0.  1.
        -12    1    3    3    0    0  0.41038757413E+01 -0.22629250526E+02  0.77596639097E+01  0.24272147813E+02  0.00000000000E+00 0.  1.
</event>
<event>
 7    1  0.7674040E-012  0.5930196E+02  0.7816164E-02  0.1266605E+00
        -11   -1    0    0    0    0  0.00000000000E+00  0.00000000000E+00  0.45593999997E+02  0.45594000000E+02  0.51100000000E-03 0. -1.
         11   -1    0    0    0    0 -0.00000000000E+00 -0.00000000000E+00 -0.45593999997E+02  0.45594000000E+02  0.51100000000E-03 0.  1.
    9900012    2    1    2    0    0 -0.61317941265E+01  0.16543569160E+02  0.26559954796E+02  0.59301956368E+02  0.50000022506E+02 0.  0.
         12    1    1    2    0    0  0.61317941265E+01 -0.16543569160E+02 -0.26559954796E+02  0.31886043632E+02  0.00000000000E+00 0. -1.
         11    1    3    3    0    0 -0.16360328476E+02 -0.18879878767E+01  0.29679240035E+02  0.33942335444E+02  0.51100000000E-03 0. -1.
        -11    1    3    3    0    0  0.90324415824E+01  0.20245887038E+02 -0.80355720889E+00  0.22183927681E+02  0.51100000000E-03 0.  1.
        -12    1    3    3    0    0  0.11960927675E+01 -0.18143300017E+01 -0.23157280306E+01  0.31756932432E+01  0.00000000000E+00 0.  1.
</event>
<event>
 7    1  0.7674040E-012  0.5930200E+02  0.7816164E-02  0.1266605E+00
        -11   -1    0    0    0    0  0.00000000000E+00  0.00000000000E+00  0.45593999997E+02  0.45594000000E+02  0.51100000000E-03 0.  1.
         11   -1    0    0    0    0 -0.00000000000E+00 -0.00000000000E+00 -0.45593999997E+02  0.45594000000E+02  0.51100000000E-03 0. -1.
    9900012    2    1    2    0    0  0.23222583185E+02 -0.75840505539E+00  0.21836979760E+02  0.59301996283E+02  0.50000095301E+02 0.  0.
         12    1    1    2    0    0 -0.23222583185E+02  0.75840505539E+00 -0.21836979760E+02  0.31886003717E+02  0.00000000000E+00 0. -1.
         11    1    3    3    0    0  0.29302936264E+00 -0.20044084561E+02  0.52520598624E+01  0.20722821361E+02  0.51100000000E-03 0. -1.
        -11    1    3    3    0    0  0.25365408466E+02  0.19106894981E+02  0.17122234538E+02  0.36078363299E+02  0.51100000000E-03 0.  1.
        -12    1    3    3    0    0 -0.24358546433E+01  0.17878452456E+00 -0.53731464054E+00  0.25008116227E+01  0.00000000000E+00 0.  1.
</event>
<event>
 7    1  0.7674040E-012  0.5930196E+02  0.7816164E-02  0.1266605E+00
        -11   -1    0    0    0    0  0.00000000000E+00  0.00000000000E+00  0.45593999997E+02  0.45594000000E+02  0.51100000000E-03 0. -1.
         11   -1    0    0    0    0 -0.00000000000E+00 -0.00000000000E+00 -0.45593999997E+02  0.45594000000E+02  0.51100000000E-03 0.  1.
    9900012    2    1    2    0    0 -0.11432931200E+02 -0.27587840985E+02 -0.11176714861E+02  0.59301955386E+02  0.50000020716E+02 0.  0.
         12    1    1    2    0    0  0.11432931200E+02  0.27587840985E+02  0.11176714861E+02  0.31886044614E+02  0.00000000000E+00 0. -1.
         11    1    3    3    0    0 -0.17706579044E+02 -0.33570917249E+02 -0.17527962335E+02  0.41806206361E+02  0.51100000000E-03 0. -1.
        -11    1    3    3    0    0  0.61881779407E+01 -0.24042257855E+00 -0.24973131407E+01  0.66774188446E+01  0.51100000000E-03 0.  1.
         12    1    3    3    0    0  0.85469903280E-01  0.62234988428E+01  0.88485606152E+01  0.10818330181E+02  0.00000000000E+00 0. -1.
</event>
<event>
 7    1  0.7674040E-012  0.5930197E+02  0.7816164E-02  0.1266605E+00
        -11   -1    0    0    0    0  0.00000000000E+00  0.00000000000E+00  0.45593999997E+02  0.45594000000E+02  0.51100000000E-03 0.  1.
         11   -1    0    0    0    0 -0.00000000000E+00 -0.00000000000E+00 -0.45593999997E+02  0.45594000000E+02  0.51100000000E-03 0. -1.
    9900012    2    1    2    0    0  0.19720780320E+02 -0.22291816201E+02 -0.11440486695E+02  0.59301968861E+02  0.50000045290E+02 0.  0.
         12    1    1    2    0    0 -0.19720780320E+02  0.22291816201E+02  0.11440486695E+02  0.31886031139E+02  0.00000000000E+00 0. -1.
         11    1    3    3    0    0  0.92294032791E+01 -0.24694349642E+02 -0.23108675592E+02  0.35057148729E+02  0.51100000000E-03 0. -1.
        -11    1    3    3    0    0  0.33713700244E+01  0.10071169426E+02  0.43573208842E+01  0.11479583398E+02  0.51100000000E-03 0.  1.
         12    1    3    3    0    0  0.71200070169E+01 -0.76686359840E+01  0.73108680130E+01  0.12765236734E+02  0.00000000000E+00 0. -1.
</event>
<event>
 7    1  0.7674040E-012  0.5930200E+02  0.7816164E-02  0.1266605E+00
        -11   -1    0    0    0    0  0.00000000000E+00  0.00000000000E+00  0.45593999997E+02  0.45594000000E+02  0.51100000000E-03 0.  1.
         11   -1    0    0    0    0 -0.00000000000E+00 -0.00000000000E+00 -0.45593999997E+02  0.45594000000E+02  0.51100000000E-03 0. -1.
    9900012    2    1    2    0    0 -0.18671394348E+02 -0.70026142818E+01  0.24880909056E+02  0.59301996658E+02  0.50000095985E+02 0.  0.
         12    1    1    2    0    0  0.18671394348E+02  0.70026142818E+01 -0.24880909056E+02  0.31886003342E+02  0.00000000000E+00 0. -1.
         11    1    3    3    0    0  0.71531772100E+01  0.55640014712E+00  0.23501832715E+02  0.24572620262E+02  0.51100000000E-03 0. -1.
        -11    1    3    3    0    0 -0.15648450711E+02 -0.12380274651E+02  0.81903859617E+01  0.21569136110E+02  0.51100000000E-03 0.  1.
         12    1    3    3    0    0 -0.10176120847E+02  0.48212602218E+01 -0.68113096212E+01  0.13160240285E+02  0.00000000000E+00 0. -1.
</event>
<event>
 7    1  0.7674040E-012  0.5930194E+02  0.7816164E-02  0.1266605E+00
        -11   -1    0    0    0    0  0.00000000000E+00  0.00000000000E+00  0.45593999997E+02  0.45594000000E+02  0.51100000000E-03 0.  1.
         11   -1    0    0    0    0 -0.00000000000E+00 -0.00000000000E+00 -0.45593999997E+02  0.45594000000E+02  0.51100000000E-03 0. -1.
    9900012    2    1    2    0    0  0.27897182279E+02 -0.14579136013E+02  0.50908711642E+01  0.59301937916E+02  0.49999988854E+02 0.  0.
         12    1    1    2    0    0 -0.27897182279E+02  0.14579136013E+02 -0.50908711642E+01  0.31886062084E+02  0.00000000000E+00 0. -1.
         11    1    3    3    0    0  0.21875100528E+02  0.70712306442E+01 -0.95413244054E+01  0.24890946097E+02  0.51100000000E-03 0. -1.
        -11    1    3    3    0    0  0.50132300977E-01 -0.22826275841E+02  0.16360286043E+02  0.28083809244E+02  0.51100000000E-03 0.  1.
        -12    1    3    3    0    0  0.59719494505E+01  0.11759091832E+01 -0.17280904738E+01  0.63271825746E+01  0.00000000000E+00 0.  1.
</event>
<event>
 7    1  0.7674040E-012  0.5930194E+02  0.7816164E-02  0.1266605E+00
        -11   -1    0    0    0    0  0.00000000000E+00  0.00000000000E+00  0.45593999997E+02  0.45594000000E+02  0.51100000000E-03 0.  1.
         11   -1    0    0    0    0 -0.00000000000E+00 -0.00000000000E+00 -0.45593999997E+02  0.45594000000E+02  0.51100000000E-03 0. -1.
    9900012    2    1    2    0    0  0.57434321394E+00  0.16272441139E+02  0.27415296370E+02  0.59301942141E+02  0.49999996559E+02 0.  0.
         12    1    1    2    0    0 -0.57434321394E+00 -0.16272441139E+02 -0.27415296370E+02  0.31886057859E+02  0.00000000000E+00 0. -1.
         11    1    3    3    0    0  0.25414373079E+01  0.17013807308E+02 -0.43167438349E+01  0.17735918930E+02  0.51100000000E-03 0. -1.
        -11    1    3    3    0    0  0.79048222954E+01 -0.63202461751E+01  0.27766241052E+02  0.29553271725E+02  0.51100000000E-03 0.  1.
        -12    1    3    3    0    0 -0.98719163893E+01  0.55788800064E+01  0.39657991523E+01  0.12012751485E+02  0.00000000000E+00 0.  1.
</event>
<event>
 7    1  0.7674040E-012  0.5930195E+02  0.7816164E-02  0.1266605E+00
        -11   -1    0    0    0    0  0.00000000000E+00  0.00000000000E+00  0.45593999997E+02  0.45594000000E+02  0.51100000000E-03 0.  1.
         11   -1    0    0    0    0 -0.00000000000E+00 -0.00000000000E+00 -0.45593999997E+02  0.45594000000E+02  0.51100000000E-03 0. -1.
    9900012    2    1    2    0    0 -0.11903025979E+01  0.31757872243E+02 -0.25963276033E+01  0.59301949968E+02  0.50000010833E+02 0.  0.
         12    1    1    2    0    0  0.11903025979E+01 -0.31757872243E+02  0.25963276033E+01  0.31886050032E+02  0.00000000000E+00 0. -1.
         11    1    3    3    0    0  0.51802472636E+01  0.15064001564E+02 -0.19211085760E+02  0.24956460510E+02  0.51100000000E-03 0. -1.
        -11    1    3    3    0    0 -0.33593918108E+01  0.15877726351E+02  0.22465828629E+02  0.27714638076E+02  0.51100000000E-03 0.  1.
        -12    1    3    3    0    0 -0.30111580507E+01  0.81614432745E+00 -0.58510704729E+01  0.66308513818E+01  0.00000000000E+00 0.  1.
</event>
<event>
 7    1  0.7674040E-012  0.5930197E+02  0.7816164E-02  0.1266605E+00
        -11   -1    0    0    0    0  0.00000000000E+00  0.00000000000E+00  0.45593999997E+02  0.45594000000E+02  0.51100000000E-03 0. -1.
         11   -1    0    0    0    0 -0.00000000000E+00 -0.00000000000E+00 -0.45593999997E+02  0.45594000000E+02  0.51100000000E-03 0.  1.
    9900012    2    1    2    0    0  0.38910793374E+01 -0.22473685087E+01 -0.31567829058E+02  0.59301968653E+02  0.50000044911E+02 0.  0.
         12    1    1    2    0    0 -0.38910793374E+01  0.22473685087E+01  0.31567829058E+02  0.31886031347E+02  0.00000000000E+00 0. -1.
         11    1    3    3    0    0 -0.10500129990E+02  0.13206273219E+02 -0.87005480871E+01  0.18983095623E+02  0.51100000000E-03 0. -1.
        -11    1    3    3    0    0  0.14058414314E+02 -0.29394976655E+01 -0.23765304855E+02  0.27768135960E+02  0.51100000000E-03 0.  1.
         12    1    3    3    0    0  0.33279501306E+00 -0.12514144062E+02  0.89802388427E+00  0.12550737071E+02  0.00000000000E+00 0. -1.
</event>
<event>
 7    1  0.7674040E-012  0.5930197E+02  0.7816164E-02  0.1266605E+00
        -11   -1    0    0    0    0  0.00000000000E+00  0.00000000000E+00  0.45593999997E+02  0.45594000000E+02  0.51100000000E-03 0.  1.
         11   -1    0    0    0    0 -0.00000000000E+00 -0.00000000000E+00 -0.45593999997E+02  0.45594000000E+02  0.51100000000E-03 0. -1.
    9900012    2    1    2    0    0  0.20899566370E+02 -0.10822002085E+02  0.21513046749E+02  0.59301971963E+02  0.50000050947E+02 0.  0.
         12    1    1    2    0    0 -0.20899566370E+02  0.10822002085E+02 -0.21513046749E+02  0.31886028037E+02  0.00000000000E+00 0. -1.
         11    1    3    3    0    0  0.18374007245E+02 -0.54624365487E+01  0.41117218462E+01  0.19604810943E+02  0.51100000000E-03 0. -1.
        -11    1    3    3    0    0 -0.24452799636E+01  0.10040280917E+02 -0.54604873066E+01  0.11687752431E+02  0.51100000000E-03 0.  1.
        -12    1    3    3    0    0  0.49708390880E+01 -0.15399846454E+02  0.22861812209E+02  0.28009408589E+02  0.00000000000E+00 0.  1.
</event>
<event>
 7    1  0.7674040E-012  0.5930194E+02  0.7816164E-02  0.1266605E+00
        -11   -1    0    0    0    0  0.00000000000E+00  0.00000000000E+00  0.45593999997E+02  0.45594000000E+02  0.51100000000E-03 0.  1.
         11   -1    0    0    0    0 -0.00000000000E+00 -0.00000000000E+00 -0.45593999997E+02  0.45594000000E+02  0.51100000000E-03 0. -1.
    9900012    2    1    2    0    0  0.29899691017E+02 -0.11048668920E+02 -0.80998570923E+00  0.59301942159E+02  0.49999996591E+02 0.  0.
         12    1    1    2    0    0 -0.29899691017E+02  0.11048668920E+02  0.80998570923E+00  0.31886057841E+02  0.00000000000E+00 0. -1.
         11    1    3    3    0    0  0.61865195501E+00 -0.63373517330E+01 -0.14778439036E+02  0.16091830779E+02  0.51100000000E-03 0. -1.
        -11    1    3    3    0    0  0.98448303287E+01 -0.14757869572E+02  0.11615836668E+02  0.21204788616E+02  0.51100000000E-03 0.  1.
        -12    1    3    3    0    0  0.19436208733E+02  0.10046552385E+02  0.23526166590E+01  0.22005322763E+02  0.00000000000E+00 0.  1.
</event>
<event>
 7    1  0.7674040E-012  0.5930201E+02  0.7816164E-02  0.1266605E+00
        -11   -1    0    0    0    0  0.00000000000E+00  0.00000000000E+00  0.45593999997E+02  0.45594000000E+02  0.51100000000E-03 0.  1.
         11   -1    0    0    0    0 -0.00000000000E+00 -0.00000000000E+00 -0.45593999997E+02  0.45594000000E+02  0.51100000000E-03 0. -1.
    9900012    2    1    2    0    0  0.15460187151E+02  0.13151674965E+02  0.24591303697E+02  0.59302013130E+02  0.50000126026E+02 0.  0.
         12    1    1    2    0    0 -0.15460187151E+02 -0.13151674965E+02 -0.24591303697E+02  0.31885986870E+02  0.00000000000E+00 0. -1.
         11    1    3    3    0    0 -0.13695513262E+02 -0.24270397737E+01  0.16306738825E+01  0.14004167349E+02  0.51100000000E-03 0. -1.
        -11    1    3    3    0    0  0.26094232328E+02  0.18121682871E+02  0.12560827223E+02  0.34162534034E+02  0.51100000000E-03 0.  1.
        -12    1    3    3    0    0  0.30614680857E+01 -0.25429681316E+01  0.10399802591E+02  0.11135311747E+02  0.00000000000E+00 0.  1.
</event>
<event>
 7    1  0.7674040E-012  0.5930195E+02  0.7816164E-02  0.1266605E+00
        -11   -1    0    0    0    0  0.00000000000E+00  0.00000000000E+00  0.45593999997E+02  0.45594000000E+02  0.51100000000E-03 0.  1.
         11   -1    0    0    0    0 -0.00000000000E+00 -0.00000000000E+00 -0.45593999997E+02  0.45594000000E+02  0.51100000000E-03 0. -1.
    9900012    2    1    2    0    0  0.19244758425E+02  0.13158834413E+02  0.21753262186E+02  0.59301951865E+02  0.50000014293E+02 0.  0.
         12    1    1    2    0    0 -0.19244758425E+02 -0.13158834413E+02 -0.21753262186E+02  0.31886048135E+02  0.00000000000E+00 0. -1.
         11    1    3    3    0    0 -0.93531014728E+00  0.14110944812E+02 -0.36739837142E+01  0.14611356034E+02  0.51100000000E-03 0. -1.
        -11    1    3    3    0    0  0.12506371635E+02  0.60280683340E+01  0.30225247408E+02  0.33261276591E+02  0.51100000000E-03 0.  1.
        -12    1    3    3    0    0  0.76736969375E+01 -0.69801787330E+01 -0.47980015081E+01  0.11429319241E+02  0.00000000000E+00 0.  1.
</event>
<event>
 7    1  0.7674040E-012  0.5930195E+02  0.7816164E-02  0.1266605E+00
        -11   -1    0    0    0    0  0.00000000000E+00  0.00000000000E+00  0.45593999997E+02  0.45594000000E+02  0.51100000000E-03 0.  1.
         11   -1    0    0    0    0 -0.00000000000E+00 -0.00000000000E+00 -0.45593999997E+02  0.45594000000E+02  0.51100000000E-03 0. -1.
    9900012    2    1    2    0    0  0.19959421534E+01  0.30770383606E+02  0.81191061748E+01  0.59301950113E+02  0.50000011098E+02 0.  0.
         12    1    1    2    0    0 -0.19959421534E+01 -0.30770383606E+02 -0.81191061748E+01  0.31886049887E+02  0.00000000000E+00 0. -1.
         11    1    3    3    0    0  0.73332776365E+01 -0.74283451614E+01  0.16798239582E+01  0.10572562675E+02  0.51100000000E-03 0. -1.
        -11    1    3    3    0    0 -0.26362974359E+01  0.29955912763E+02  0.17406839833E+02  0.34746292563E+02  0.51100000000E-03 0.  1.
        -12    1    3    3    0    0 -0.27010380472E+01  0.82428160038E+01 -0.10967557616E+02  0.13983094875E+02  0.00000000000E+00 0.  1.
</event>
<event>
 7    1  0.7674040E-012  0.5930197E+02  0.7816164E-02  0.1266605E+00
        -11   -1    0    0    0    0  0.00000000000E+00  0.00000000000E+00  0.45593999997E+02  0.45594000000E+02  0.51100000000E-03 0.  1.
         11   -1    0    0    0    0 -0.00000000000E+00 -0.00000000000E+00 -0.45593999997E+02  0.45594000000E+02  0.51100000000E-03 0. -1.
    9900012    2    1    2    0    0  0.42495375595E+01 -0.91756661599E+01  0.30240168670E+02  0.59301965124E+02  0.50000038474E+02 0.  0.
         12    1    1    2    0    0 -0.42495375595E+01  0.91756661599E+01 -0.30240168670E+02  0.31886034876E+02  0.00000000000E+00 0. -1.
         11    1    3    3    0    0  0.69017298762E+01  0.64865147114E+01  0.76159951159E+01  0.12153687928E+02  0.51100000000E-03 0. -1.
        -11    1    3    3    0    0 -0.17372449839E+02  0.19100891203E+01  0.14876383481E+02  0.22951192553E+02  0.51100000000E-03 0.  1.
        -12    1    3    3    0    0  0.14720257523E+02 -0.17572269991E+02  0.77477900733E+01  0.24197084643E+02  0.00000000000E+00 0.  1.
</event>
<event>
 7    1  0.7674040E-012  0.5930195E+02  0.7816164E-02  0.1266605E+00
        -11   -1    0    0    0    0  0.00000000000E+00  0.00000000000E+00  0.45593999997E+02  0.45594000000E+02  0.51100000000E-03 0.  1.
         11   -1    0    0    0    0 -0.00000000000E+00 -0.00000000000E+00 -0.45593999997E+02  0.45594000000E+02  0.51100000000E-03 0. -1.
    9900012    2    1    2    0    0  0.21256643517E+02  0.40341591585E+01  0.23422223770E+02  0.59301954462E+02  0.50000019029E+02 0.  0.
         12    1    1    2    0    0 -0.21256643517E+02 -0.40341591585E+01 -0.23422223770E+02  0.31886045538E+02  0.00000000000E+00 0. -1.
         11    1    3    3    0    0  0.11610025928E+02 -0.10896776370E+02 -0.29274133947E+01  0.16189570307E+02  0.51100000000E-03 0. -1.
        -11    1    3    3    0    0  0.19665366885E+02  0.13763591447E+02  0.19408349933E+02  0.30868222359E+02  0.51100000000E-03 0.  1.
         12    1    3    3    0    0 -0.10018749295E+02  0.11673440810E+01  0.69412872317E+01  0.12244161795E+02  0.00000000000E+00 0. -1.
</event>
<event>
 7    1  0.7674040E-012  0.5930196E+02  0.7816164E-02  0.1266605E+00
        -11   -1    0    0    0    0  0.00000000000E+00  0.00000000000E+00  0.45593999997E+02  0.45594000000E+02  0.51100000000E-03 0. -1.
         11   -1    0    0    0    0 -0.00000000000E+00 -0.00000000000E+00 -0.45593999997E+02  0.45594000000E+02  0.51100000000E-03 0.  1.
    9900012    2    1    2    0    0 -0.13859118939E+02  0.23418482043E+02 -0.16619849071E+02  0.59301955057E+02  0.50000020116E+02 0.  0.
         12    1    1    2    0    0  0.13859118939E+02 -0.23418482043E+02  0.16619849071E+02  0.31886044943E+02  0.00000000000E+00 0. -1.
         11    1    3    3    0    0 -0.30841032952E+02  0.19933701152E+02 -0.11753827815E+02  0.38557414640E+02  0.51100000000E-03 0. -1.
        -11    1    3    3    0    0  0.91068918445E+01  0.56751538326E+01  0.85944593703E+00  0.10764826876E+02  0.51100000000E-03 0.  1.
         12    1    3    3    0    0  0.78750221690E+01 -0.21903729419E+01 -0.57254671930E+01  0.99797135413E+01  0.00000000000E+00 0. -1.
</event>
<event>
 7    1  0.7674040E-012  0.5930194E+02  0.7816164E-02  0.1266605E+00
        -11   -1    0    0    0    0  0.00000000000E+00  0.00000000000E+00  0.45593999997E+02  0.45594000000E+02  0.51100000000E-03 0. -1.
         11   -1    0    0    0    0 -0.00000000000E+00 -0.00000000000E+00 -0.45593999997E+02  0.45594000000E+02  0.51100000000E-03 0.  1.
    9900012    2    1    2    0    0 -0.20553010474E+02 -0.40243328024E+01 -0.24043689799E+02  0.59301944847E+02  0.50000001494E+02 0.  0.
         12    1    1    2    0    0  0.20553010474E+02  0.40243328024E+01  0.24043689799E+02  0.31886055153E+02  0.00000000000E+00 0. -1.
         11    1    3    3    0    0  0.15419870681E+02  0.16762331199E+01 -0.13570457410E+02  0.20609208715E+02  0.51100000000E-03 0. -1.
        -11    1    3    3    0    0 -0.18376916595E+02 -0.64444414518E+01 -0.73003691787E+01  0.20797530612E+02  0.51100000000E-03 0.  1.
         12    1    3    3    0    0 -0.17595964561E+02  0.74387552950E+00 -0.31728632107E+01  0.17895205520E+02  0.00000000000E+00 0. -1.
</event>
<event>
 7    1  0.7674040E-012  0.5930194E+02  0.7816164E-02  0.1266605E+00
        -11   -1    0    0    0    0  0.00000000000E+00  0.00000000000E+00  0.45593999997E+02  0.45594000000E+02  0.51100000000E-03 0. -1.
         11   -1    0    0    0    0 -0.00000000000E+00 -0.00000000000E+00 -0.45593999997E+02  0.45594000000E+02  0.51100000000E-03 0.  1.
    9900012    2    1    2    0    0  0.29584354574E+02  0.84796365317E+01  0.83416149327E+01  0.59301940178E+02  0.49999992979E+02 0.  0.
         12    1    1    2    0    0 -0.29584354574E+02 -0.84796365317E+01 -0.83416149327E+01  0.31886059822E+02  0.00000000000E+00 0. -1.
         11    1    3    3    0    0  0.20945340194E+02  0.10570055783E+02 -0.11036213045E+02  0.25927424741E+02  0.51100000000E-03 0. -1.
        -11    1    3    3    0    0  0.78326366434E+01 -0.87053120267E+01 -0.11742362944E+01  0.11769090254E+02  0.51100000000E-03 0.  1.
         12    1    3    3    0    0  0.80637773707E+00  0.66148927758E+01  0.20552064272E+02  0.21605425183E+02  0.00000000000E+00 0. -1.
</event>
<event>
 7    1  0.7674040E-012  0.5930196E+02  0.7816164E-02  0.1266605E+00
        -11   -1    0    0    0    0  0.00000000000E+00  0.00000000000E+00  0.45593999997E+02  0.45594000000E+02  0.51100000000E-03 0.  1.
         11   -1    0    0    0    0 -0.00000000000E+00 -0.00000000000E+00 -0.45593999997E+02  0.45594000000E+02  0.51100000000E-03 0. -1.
    9900012    2    1    2    0    0  0.21527384521E+02  0.76400878103E+01  0.22246803608E+02  0.59301960784E+02  0.50000030560E+02 0.  0.
         12    1    1    2    0    0 -0.21527384521E+02 -0.76400878103E+01 -0.22246803608E+02  0.31886039216E+02  0.00000000000E+00 0. -1.
         11    1    3    3    0    0  0.11469704356E+02  0.22341891988E+02  0.25679002642E+01  0.25244967175E+02  0.51100000000E-03 0. -1.
        -11    1    3    3    0    0  0.12822036742E+01 -0.14956598460E+02  0.20309623961E+02  0.25255191733E+02  0.51100000000E-03 0.  1.
        -12    1    3    3    0    0  0.87754764912E+01  0.25479428228E+00 -0.63072061721E+00  0.88018018763E+01  0.00000000000E+00 0.  1.
</event>
<event>
 7    1  0.7674040E-012  0.5930198E+02  0.7816164E-02  0.1266605E+00
        -11   -1    0    0    0    0  0.00000000000E+00  0.00000000000E+00  0.45593999997E+02  0.45594000000E+02  0.51100000000E-03 0.  1.
         11   -1    0    0    0    0 -0.00000000000E+00 -0.00000000000E+00 -0.45593999997E+02  0.45594000000E+02  0.51100000000E-03 0. -1.
    9900012    2    1    2    0    0 -0.31563042720E+02 -0.24739243855E+01  0.37911207364E+01  0.59301975411E+02  0.50000057236E+02 0.  0.
         12    1    1    2    0    0  0.31563042720E+02  0.24739243855E+01 -0.37911207364E+01  0.31886024589E+02  0.00000000000E+00 0. -1.
         11    1    3    3    0    0 -0.10044287824E+02  0.50283736704E+01  0.14909642928E+02  0.18667343468E+02  0.51100000000E-03 0. -1.
        -11    1    3    3    0    0 -0.22819546218E+02  0.48822751270E+01 -0.14819118013E+02  0.27643707403E+02  0.51100000000E-03 0.  1.
        -12    1    3    3    0    0  0.13007913215E+01 -0.12384573183E+02  0.37005958223E+01  0.12990924541E+02  0.00000000000E+00 0.  1.
</event>
<event>
 7    1  0.7674040E-012  0.5930195E+02  0.7816164E-02  0.1266605E+00
        -11   -1    0    0    0    0  0.00000000000E+00  0.00000000000E+00  0.45593999997E+02  0.45594000000E+02  0.51100000000E-03 0.  1.
         11   -1    0    0    0    0 -0.00000000000E+00 -0.00000000000E+00 -0.45593999997E+02  0.45594000000E+02  0.51100000000E-03 0. -1.
    9900012    2    1    2    0    0  0.14280875148E+02 -0.34734607330E+01  0.28296847431E+02  0.59301954479E+02  0.50000019060E+02 0.  0.
         12    1    1    2    0    0 -0.14280875148E+02  0.34734607330E+01 -0.28296847431E+02  0.31886045521E+02  0.00000000000E+00 0. -1.
         11    1    3    3    0    0 -0.45199205614E+01  0.18369818697E+02  0.14755649015E+02  0.23991854846E+02  0.51100000000E-03 0. -1.
        -11    1    3    3    0    0  0.19374081950E+02 -0.12780408614E+02  0.74528382252E+01  0.24377011581E+02  0.51100000000E-03 0.  1.
         12    1    3    3    0    0 -0.57328624055E+00 -0.90628708153E+01  0.60883601903E+01  0.10933088051E+02  0.00000000000E+00 0. -1.
</event>
<event>
 7    1  0.7674040E-012  0.5930195E+02  0.7816164E-02  0.1266605E+00
        -11   -1    0    0    0    0  0.00000000000E+00  0.00000000000E+00  0.45593999997E+02  0.45594000000E+02  0.51100000000E-03 0. -1.
         11   -1    0    0    0    0 -0.00000000000E+00 -0.00000000000E+00 -0.45593999997E+02  0.45594000000E+02  0.51100000000E-03 0.  1.
    9900012    2    1    2    0    0  0.45549075956E+01  0.16054745615E+02 -0.27170169650E+02  0.59301950405E+02  0.50000011630E+02 0.  0.
         12    1    1    2    0    0 -0.45549075956E+01 -0.16054745615E+02  0.27170169650E+02  0.31886049595E+02  0.00000000000E+00 0. -1.
         11    1    3    3    0    0 -0.77394065320E+01  0.26740185999E+02 -0.11279548222E+02  0.30036047827E+02  0.51100000000E-03 0. -1.
        -11    1    3    3    0    0  0.52078113212E+01 -0.98985212290E+00  0.35749370440E+01  0.63938471292E+01  0.51100000000E-03 0.  1.
         12    1    3    3    0    0  0.70865028065E+01 -0.96955882616E+01 -0.19465558473E+02  0.22872055448E+02  0.00000000000E+00 0. -1.
</event>
<event>
 7    1  0.7674040E-012  0.5930195E+02  0.7816164E-02  0.1266605E+00
        -11   -1    0    0    0    0  0.00000000000E+00  0.00000000000E+00  0.45593999997E+02  0.45594000000E+02  0.51100000000E-03 0. -1.
         11   -1    0    0    0    0 -0.00000000000E+00 -0.00000000000E+00 -0.45593999997E+02  0.45594000000E+02  0.51100000000E-03 0.  1.
    9900012    2    1    2    0    0  0.26370310299E+01  0.10959617722E+02 -0.29827053574E+02  0.59301948533E+02  0.50000008216E+02 0.  0.
         12    1    1    2    0    0 -0.26370310299E+01 -0.10959617722E+02  0.29827053574E+02  0.31886051467E+02  0.00000000000E+00 0. -1.
         11    1    3    3    0    0  0.13282412598E+02  0.16174692422E+02 -0.30848620962E+02  0.37278419694E+02  0.51100000000E-03 0.  1.
        -11    1    3    3    0    0 -0.81708354831E+01 -0.88910747325E+01 -0.61822471624E+01  0.13565911051E+02  0.51100000000E-03 0. -1.
         12    1    3    3    0    0 -0.24745460848E+01  0.36760000324E+01  0.72038145507E+01  0.84576177878E+01  0.00000000000E+00 0. -1.
</event>
<event>
 7    1  0.7674040E-012  0.5930195E+02  0.7816164E-02  0.1266605E+00
        -11   -1    0    0    0    0  0.00000000000E+00  0.00000000000E+00  0.45593999997E+02  0.45594000000E+02  0.51100000000E-03 0. -1.
         11   -1    0    0    0    0 -0.00000000000E+00 -0.00000000000E+00 -0.45593999997E+02  0.45594000000E+02  0.51100000000E-03 0.  1.
    9900012    2    1    2    0    0 -0.24293011025E+02 -0.19361107685E+02 -0.71914954527E+01  0.59301945332E+02  0.50000002378E+02 0.  0.
         12    1    1    2    0    0  0.24293011025E+02  0.19361107685E+02  0.71914954527E+01  0.31886054668E+02  0.00000000000E+00 0. -1.
         11    1    3    3    0    0  0.46831011896E+01 -0.10063534480E+02  0.81859812618E+01  0.13791898073E+02  0.51100000000E-03 0. -1.
        -11    1    3    3    0    0 -0.19048349624E+02  0.69722553659E+01  0.11017256382E+01  0.20314176526E+02  0.51100000000E-03 0.  1.
        -12    1    3    3    0    0 -0.99277625905E+01 -0.16269828571E+02 -0.16479202353E+02  0.25195870733E+02  0.00000000000E+00 0.  1.
</event>
<event>
 7    1  0.7674040E-012  0.5930192E+02  0.7816164E-02  0.1266605E+00
        -11   -1    0    0    0    0  0.00000000000E+00  0.00000000000E+00  0.45593999997E+02  0.45594000000E+02  0.51100000000E-03 0.  1.
         11   -1    0    0    0    0 -0.00000000000E+00 -0.00000000000E+00 -0.45593999997E+02  0.45594000000E+02  0.51100000000E-03 0. -1.
    9900012    2    1    2    0    0  0.24742443160E+02 -0.96604754703E+01  0.17641114713E+02  0.59301918269E+02  0.49999953022E+02 0.  0.
         12    1    1    2    0    0 -0.24742443160E+02  0.96604754703E+01 -0.17641114713E+02  0.31886081731E+02  0.00000000000E+00 0. -1.
         11    1    3    3    0    0  0.15024190407E+02  0.55773885493E+01 -0.10389407656E+02  0.19099040607E+02  0.51100000000E-03 0. -1.
        -11    1    3    3    0    0  0.10157049141E+02 -0.15079796396E+02  0.75009342329E+01  0.19667992303E+02  0.51100000000E-03 0.  1.
         12    1    3    3    0    0 -0.43879638794E+00 -0.15806762393E+00  0.20529588136E+02  0.20534885359E+02  0.00000000000E+00 0. -1.
</event>
<event>
 7    1  0.7674040E-012  0.5930192E+02  0.7816164E-02  0.1266605E+00
        -11   -1    0    0    0    0  0.00000000000E+00  0.00000000000E+00  0.45593999997E+02  0.45594000000E+02  0.51100000000E-03 0.  1.
         11   -1    0    0    0    0 -0.00000000000E+00 -0.00000000000E+00 -0.45593999997E+02  0.45594000000E+02  0.51100000000E-03 0. -1.
    9900012    2    1    2    0    0  0.24676246357E+02 -0.19234743640E+02  0.61505635560E+01  0.59301922643E+02  0.49999961000E+02 0.  0.
         12    1    1    2    0    0 -0.24676246357E+02  0.19234743640E+02 -0.61505635560E+01  0.31886077357E+02  0.00000000000E+00 0. -1.
         11    1    3    3    0    0  0.58158772822E+00  0.12650624444E+02  0.61320833021E+01  0.14070500666E+02  0.51100000000E-03 0. -1.
        -11    1    3    3    0    0  0.60853066650E+01 -0.13762975961E+02  0.97064870216E+01  0.17907159324E+02  0.51100000000E-03 0.  1.
         12    1    3    3    0    0  0.18009351964E+02 -0.18122392123E+02 -0.96880067676E+01  0.27324262653E+02  0.00000000000E+00 0. -1.
</event>
<event>
 7    1  0.7674040E-012  0.5930196E+02  0.7816164E-02  0.1266605E+00
        -11   -1    0    0    0    0  0.00000000000E+00  0.00000000000E+00  0.45593999997E+02  0.45594000000E+02  0.51100000000E-03 0.  1.
         11   -1    0    0    0    0 -0.00000000000E+00 -0.00000000000E+00 -0.45593999997E+02  0.45594000000E+02  0.51100000000E-03 0. -1.
    9900012    2    1    2    0    0 -0.19857911652E+02  0.34883260770E+01 -0.24702523041E+02  0.59301957308E+02  0.50000024219E+02 0.  0.
         12    1    1    2    0    0  0.19857911652E+02 -0.34883260770E+01  0.24702523041E+02  0.31886042692E+02  0.00000000000E+00 0. -1.
         11    1    3    3    0    0 -0.31953435266E+01 -0.27461872584E+01 -0.29086056275E+01  0.51197413674E+01  0.51100000000E-03 0. -1.
        -11    1    3    3    0    0 -0.23292553070E+01  0.24460299139E+02 -0.38666262869E+01  0.24873328353E+02  0.51100000000E-03 0.  1.
        -12    1    3    3    0    0 -0.14333312818E+02 -0.18225785803E+02 -0.17927291127E+02  0.29308887588E+02  0.00000000000E+00 0.  1.
</event>
<event>
 7    1  0.7674040E-012  0.5930195E+02  0.7816164E-02  0.1266605E+00
        -11   -1    0    0    0    0  0.00000000000E+00  0.00000000000E+00  0.45593999997E+02  0.45594000000E+02  0.51100000000E-03 0. -1.
         11   -1    0    0    0    0 -0.00000000000E+00 -0.00000000000E+00 -0.45593999997E+02  0.45594000000E+02  0.51100000000E-03 0.  1.
    9900012    2    1    2    0    0 -0.25072825500E+02  0.15912333256E+02 -0.11613418313E+02  0.59301946417E+02  0.50000004357E+02 0.  0.
         12    1    1    2    0    0  0.25072825500E+02 -0.15912333256E+02  0.11613418313E+02  0.31886053583E+02  0.00000000000E+00 0. -1.
         11    1    3    3    0    0  0.14542904976E+01  0.93938920972E+01  0.26448578128E+01  0.98668861703E+01  0.51100000000E-03 0. -1.
        -11    1    3    3    0    0 -0.18526711709E+02 -0.34582605181E+01 -0.25974176358E+02  0.32091376572E+02  0.51100000000E-03 0.  1.
        -12    1    3    3    0    0 -0.80004042889E+01  0.99767016765E+01  0.11715900233E+02  0.17343683674E+02  0.00000000000E+00 0.  1.
</event>
<event>
 7    1  0.7674040E-012  0.5930207E+02  0.7816164E-02  0.1266604E+00
        -11   -1    0    0    0    0  0.00000000000E+00  0.00000000000E+00  0.45593999997E+02  0.45594000000E+02  0.51100000000E-03 0. -1.
         11   -1    0    0    0    0 -0.00000000000E+00 -0.00000000000E+00 -0.45593999997E+02  0.45594000000E+02  0.51100000000E-03 0.  1.
    9900012    2    1    2    0    0  0.91663376052E+01  0.20062520485E+02 -0.23025768558E+02  0.59302070643E+02  0.50000230915E+02 0.  0.
         12    1    1    2    0    0 -0.91663376052E+01 -0.20062520485E+02  0.23025768558E+02  0.31885929357E+02  0.00000000000E+00 0. -1.
         11    1    3    3    0    0 -0.95524908081E+01  0.52576070643E+01 -0.82240893955E+01  0.13657531231E+02  0.51100000000E-03 0. -1.
        -11    1    3    3    0    0  0.72598711832E+01 -0.10225141141E+02 -0.12991780631E+02  0.18056732960E+02  0.51100000000E-03 0.  1.
        -12    1    3    3    0    0  0.11458957230E+02  0.25030054561E+02 -0.18098985311E+01  0.27587806452E+02  0.00000000000E+00 0.  1.
</event>
<event>
 7    1  0.7674040E-012  0.5930194E+02  0.7816164E-02  0.1266605E+00
        -11   -1    0    0    0    0  0.00000000000E+00  0.00000000000E+00  0.45593999997E+02  0.45594000000E+02  0.51100000000E-03 0. -1.
         11   -1    0    0    0    0 -0.00000000000E+00 -0.00000000000E+00 -0.45593999997E+02  0.45594000000E+02  0.51100000000E-03 0.  1.
    9900012    2    1    2    0    0 -0.21945088891E+02  0.86005456416E+01 -0.21474742301E+02  0.59301939274E+02  0.49999991330E+02 0.  0.
         12    1    1    2    0    0  0.21945088891E+02 -0.86005456416E+01  0.21474742301E+02  0.31886060726E+02  0.00000000000E+00 0. -1.
         11    1    3    3    0    0 -0.28314465908E+02  0.95597253741E+01 -0.16929213887E+00  0.29885213550E+02  0.51100000000E-03 0. -1.
        -11    1    3    3    0    0  0.49072538366E+01 -0.93940044360E+01 -0.16468335919E+02  0.19584038086E+02  0.51100000000E-03 0.  1.
        -12    1    3    3    0    0  0.14621231803E+01  0.84348247035E+01 -0.48371142433E+01  0.98326876375E+01  0.00000000000E+00 0.  1.
</event>
<event>
 7    1  0.7674040E-012  0.5930194E+02  0.7816164E-02  0.1266605E+00
        -11   -1    0    0    0    0  0.00000000000E+00  0.00000000000E+00  0.45593999997E+02  0.45594000000E+02  0.51100000000E-03 0. -1.
         11   -1    0    0    0    0 -0.00000000000E+00 -0.00000000000E+00 -0.45593999997E+02  0.45594000000E+02  0.51100000000E-03 0.  1.
    9900012    2    1    2    0    0  0.26556249275E+02  0.59887615335E+01 -0.16601840606E+02  0.59301941107E+02  0.49999994672E+02 0.  0.
         12    1    1    2    0    0 -0.26556249275E+02 -0.59887615335E+01  0.16601840606E+02  0.31886058893E+02  0.00000000000E+00 0. -1.
         11    1    3    3    0    0  0.26540255988E+02  0.17257799631E+02 -0.57421786728E+00  0.31663015688E+02  0.51100000000E-03 0. -1.
        -11    1    3    3    0    0  0.41743589186E+01 -0.24365160405E+01 -0.17144496205E+02  0.17812794087E+02  0.51100000000E-03 0.  1.
         12    1    3    3    0    0 -0.41583656316E+01 -0.88325220573E+01  0.11168734661E+01  0.98261313322E+01  0.00000000000E+00 0. -1.
</event>
<event>
 7    1  0.7674040E-012  0.5930205E+02  0.7816164E-02  0.1266604E+00
        -11   -1    0    0    0    0  0.00000000000E+00  0.00000000000E+00  0.45593999997E+02  0.45594000000E+02  0.51100000000E-03 0. -1.
         11   -1    0    0    0    0 -0.00000000000E+00 -0.00000000000E+00 -0.45593999997E+02  0.45594000000E+02  0.51100000000E-03 0.  1.
    9900012    2    1    2    0    0  0.23072369591E+02 -0.93745390180E+01 -0.19912242487E+02  0.59302052920E+02  0.50000198592E+02 0.  0.
         12    1    1    2    0    0 -0.23072369591E+02  0.93745390180E+01  0.19912242487E+02  0.31885947080E+02  0.00000000000E+00 0. -1.
         11    1    3    3    0    0  0.52769895918E+01 -0.45023685690E+01  0.46000413361E+01  0.83233600450E+01  0.51100000000E-03 0. -1.
        -11    1    3    3    0    0  0.39846420274E+01 -0.33759554048E+00 -0.33598999421E+02  0.33836136085E+02  0.51100000000E-03 0.  1.
        -12    1    3    3    0    0  0.13810737972E+02 -0.45345749086E+01  0.90867155975E+01  0.17142556789E+02  0.00000000000E+00 0.  1.
</event>
<event>
 7    1  0.7674040E-012  0.5930193E+02  0.7816164E-02  0.1266605E+00
        -11   -1    0    0    0    0  0.00000000000E+00  0.00000000000E+00  0.45593999997E+02  0.45594000000E+02  0.51100000000E-03 0. -1.
         11   -1    0    0    0    0 -0.00000000000E+00 -0.00000000000E+00 -0.45593999997E+02  0.45594000000E+02  0.51100000000E-03 0.  1.
    9900012    2    1    2    0    0  0.24953631863E+02 -0.12599738766E+02 -0.15338975424E+02  0.59301932083E+02  0.49999978216E+02 0.  0.
         12    1    1    2    0    0 -0.24953631863E+02  0.12599738766E+02  0.15338975424E+02  0.31886067917E+02  0.00000000000E+00 0. -1.
         11    1    3    3    0    0 -0.11689988376E+02  0.15841273930E+01 -0.68987653664E+01  0.13665952278E+02  0.51100000000E-03 0. -1.
        -11    1    3    3    0    0  0.82448782631E+01 -0.10778843394E+02  0.44247418402E+01  0.14273745938E+02  0.51100000000E-03 0.  1.
         12    1    3    3    0    0  0.28398741976E+02 -0.34050227648E+01 -0.12864951898E+02  0.31362233868E+02  0.00000000000E+00 0. -1.
</event>
<event>
 7    1  0.7674040E-012  0.5930194E+02  0.7816164E-02  0.1266605E+00
        -11   -1    0    0    0    0  0.00000000000E+00  0.00000000000E+00  0.45593999997E+02  0.45594000000E+02  0.51100000000E-03 0.  1.
         11   -1    0    0    0    0 -0.00000000000E+00 -0.00000000000E+00 -0.45593999997E+02  0.45594000000E+02  0.51100000000E-03 0. -1.
    9900012    2    1    2    0    0  0.77903339427E+01  0.47075140584E+00  0.30916171456E+02  0.59301943999E+02  0.49999999948E+02 0.  0.
         12    1    1    2    0    0 -0.77903339427E+01 -0.47075140584E+00 -0.30916171456E+02  0.31886056001E+02  0.00000000000E+00 0. -1.
         11    1    3    3    0    0  0.40712696851E+01  0.21212406166E+02  0.35622845783E+01  0.21891351806E+02  0.51100000000E-03 0. -1.
        -11    1    3    3    0    0 -0.33846370844E+01 -0.16250316377E+02  0.21528542532E+02  0.27184677566E+02  0.51100000000E-03 0.  1.
        -12    1    3    3    0    0  0.71037013420E+01 -0.44913383835E+01  0.58253443451E+01  0.10225914628E+02  0.00000000000E+00 0.  1.
</event>
<event>
 7    1  0.7674040E-012  0.5930190E+02  0.7816164E-02  0.1266605E+00
        -11   -1    0    0    0    0  0.00000000000E+00  0.00000000000E+00  0.45593999997E+02  0.45594000000E+02  0.51100000000E-03 0. -1.
         11   -1    0    0    0    0 -0.00000000000E+00 -0.00000000000E+00 -0.45593999997E+02  0.45594000000E+02  0.51100000000E-03 0.  1.
    9900012    2    1    2    0    0  0.26884892560E+02 -0.15627847341E+02  0.70495501960E+01  0.59301902427E+02  0.49999924130E+02 0.  0.
         12    1    1    2    0    0 -0.26884892560E+02  0.15627847341E+02 -0.70495501960E+01  0.31886097573E+02  0.00000000000E+00 0. -1.
         11    1    3    3    0    0  0.19682657468E+02 -0.20578894910E+01 -0.18303481675E+02  0.26956619889E+02  0.51100000000E-03 0. -1.
        -11    1    3    3    0    0  0.30442628303E+01 -0.63693010075E+01  0.16830115089E+01  0.72572763144E+01  0.51100000000E-03 0.  1.
         12    1    3    3    0    0  0.41579722622E+01 -0.72006568422E+01  0.23670020363E+02  0.25088006223E+02  0.00000000000E+00 0. -1.
</event>
<event>
 7    1  0.7674040E-012  0.5930216E+02  0.7816164E-02  0.1266604E+00
        -11   -1    0    0    0    0  0.00000000000E+00  0.00000000000E+00  0.45593999997E+02  0.45594000000E+02  0.51100000000E-03 0.  1.
         11   -1    0    0    0    0 -0.00000000000E+00 -0.00000000000E+00 -0.45593999997E+02  0.45594000000E+02  0.51100000000E-03 0. -1.
    9900012    2    1    2    0    0 -0.22535968875E+01 -0.88299451228E+00  0.31793837786E+02  0.59302164596E+02  0.50000402262E+02 0.  0.
         12    1    1    2    0    0  0.22535968875E+01  0.88299451228E+00 -0.31793837786E+02  0.31885835404E+02  0.00000000000E+00 0. -1.
         11    1    3    3    0    0 -0.15248064173E+02 -0.11676254856E+01 -0.71868630176E+01  0.16897272283E+02  0.51100000000E-03 0. -1.
        -11    1    3    3    0    0  0.20184221005E+01  0.32505220215E+01  0.19303800410E+02  0.19679345307E+02  0.51100000000E-03 0.  1.
         12    1    3    3    0    0  0.10976045185E+02 -0.29658910482E+01  0.19676900394E+02  0.22725547006E+02  0.00000000000E+00 0. -1.
</event>
<event>
 7    1  0.7674040E-012  0.5930166E+02  0.7816164E-02  0.1266606E+00
        -11   -1    0    0    0    0  0.00000000000E+00  0.00000000000E+00  0.45593999997E+02  0.45594000000E+02  0.51100000000E-03 0.  1.
         11   -1    0    0    0    0 -0.00000000000E+00 -0.00000000000E+00 -0.45593999997E+02  0.45594000000E+02  0.51100000000E-03 0. -1.
    9900012    2    1    2    0    0  0.70098622190E+01  0.11819361660E+02  0.28773311063E+02  0.59301656404E+02  0.49999475441E+02 0.  0.
         12    1    1    2    0    0 -0.70098622190E+01 -0.11819361660E+02 -0.28773311063E+02  0.31886343596E+02  0.00000000000E+00 0. -1.
         11    1    3    3    0    0  0.24833325745E+01  0.61947805878E+01 -0.10040229683E+02  0.12056054892E+02  0.51100000000E-03 0. -1.
        -11    1    3    3    0    0  0.10240353730E+02  0.49746748015E+01  0.39812953316E+02  0.41408736830E+02  0.51100000000E-03 0.  1.
        -12    1    3    3    0    0 -0.57138240851E+01  0.64990627074E+00 -0.99941256998E+00  0.58368646824E+01  0.00000000000E+00 0.  1.
</event>
<event>
 7    1  0.7674040E-012  0.5930194E+02  0.7816164E-02  0.1266605E+00
        -11   -1    0    0    0    0  0.00000000000E+00  0.00000000000E+00  0.45593999997E+02  0.45594000000E+02  0.51100000000E-03 0. -1.
         11   -1    0    0    0    0 -0.00000000000E+00 -0.00000000000E+00 -0.45593999997E+02  0.45594000000E+02  0.51100000000E-03 0.  1.
    9900012    2    1    2    0    0 -0.74121614769E+01 -0.22719028951E+02 -0.21109872595E+02  0.59301935093E+02  0.49999983706E+02 0.  0.
         12    1    1    2    0    0  0.74121614769E+01  0.22719028951E+02  0.21109872595E+02  0.31886064907E+02  0.00000000000E+00 0. -1.
         11    1    3    3    0    0 -0.82422428327E+01  0.10154368399E+02 -0.10818194166E+02  0.16972892793E+02  0.51100000000E-03 0. -1.
        -11    1    3    3    0    0 -0.98428334106E+01 -0.18298801838E+02 -0.12311907899E+02  0.24151823836E+02  0.51100000000E-03 0.  1.
         12    1    3    3    0    0  0.10672914766E+02 -0.14574595513E+02  0.20202294695E+01  0.18177218464E+02  0.00000000000E+00 0. -1.
</event>
<event>
 7    1  0.7674040E-012  0.5930196E+02  0.7816164E-02  0.1266605E+00
        -11   -1    0    0    0    0  0.00000000000E+00  0.00000000000E+00  0.45593999997E+02  0.45594000000E+02  0.51100000000E-03 0. -1.
         11   -1    0    0    0    0 -0.00000000000E+00 -0.00000000000E+00 -0.45593999997E+02  0.45594000000E+02  0.51100000000E-03 0.  1.
    9900012    2    1    2    0    0  0.28761010862E+02  0.13735045211E+02 -0.93399834536E+00  0.59301959705E+02  0.50000028592E+02 0.  0.
         12    1    1    2    0    0 -0.28761010862E+02 -0.13735045211E+02  0.93399834536E+00  0.31886040295E+02  0.00000000000E+00 0. -1.
         11    1    3    3    0    0  0.33385887527E+02  0.13214641996E+02  0.10029985786E+02  0.37280623173E+02  0.51100000000E-03 0. -1.
        -11    1    3    3    0    0 -0.85233546410E+01  0.44496173229E+01 -0.12960184294E+02  0.16137318422E+02  0.51100000000E-03 0.  1.
         12    1    3    3    0    0  0.38984779764E+01 -0.39292141076E+01  0.19962001631E+01  0.58840181107E+01  0.00000000000E+00 0. -1.
</event>
<event>
 7    1  0.7674040E-012  0.5930193E+02  0.7816164E-02  0.1266605E+00
        -11   -1    0    0    0    0  0.00000000000E+00  0.00000000000E+00  0.45593999997E+02  0.45594000000E+02  0.51100000000E-03 0. -1.
         11   -1    0    0    0    0 -0.00000000000E+00 -0.00000000000E+00 -0.45593999997E+02  0.45594000000E+02  0.51100000000E-03 0.  1.
    9900012    2    1    2    0    0  0.27345521049E+02  0.23434075845E+01 -0.16231217464E+02  0.59301929360E+02  0.49999973249E+02 0.  0.
         12    1    1    2    0    0 -0.27345521049E+02 -0.23434075845E+01  0.16231217464E+02  0.31886070640E+02  0.00000000000E+00 0. -1.
         11    1    3    3    0    0 -0.78780176611E-01  0.16703675851E+00  0.13868144344E+02  0.13869374009E+02  0.51100000000E-03 0. -1.
        -11    1    3    3    0    0  0.14792992680E+02  0.10359616971E+02 -0.21573981547E+02  0.28135226608E+02  0.51100000000E-03 0.  1.
         12    1    3    3    0    0  0.12631308545E+02 -0.81832461450E+01 -0.85253802612E+01  0.17297328743E+02  0.00000000000E+00 0. -1.
</event>
<event>
 7    1  0.7674040E-012  0.5930198E+02  0.7816164E-02  0.1266605E+00
        -11   -1    0    0    0    0  0.00000000000E+00  0.00000000000E+00  0.45593999997E+02  0.45594000000E+02  0.51100000000E-03 0.  1.
         11   -1    0    0    0    0 -0.00000000000E+00 -0.00000000000E+00 -0.45593999997E+02  0.45594000000E+02  0.51100000000E-03 0. -1.
    9900012    2    1    2    0    0 -0.38340514905E+01  0.28816715456E+02  0.13100197254E+02  0.59301980986E+02  0.50000067402E+02 0.  0.
         12    1    1    2    0    0  0.38340514905E+01 -0.28816715456E+02 -0.13100197254E+02  0.31886019014E+02  0.00000000000E+00 0. -1.
         11    1    3    3    0    0 -0.45681454863E+01  0.39967159536E+02 -0.12606572724E+01  0.40247124762E+02  0.51100000000E-03 0.  1.
        -11    1    3    3    0    0 -0.41602417873E+00 -0.75266422115E+01  0.52603403233E+01  0.91920944118E+01  0.51100000000E-03 0. -1.
        -12    1    3    3    0    0  0.11501181746E+01 -0.36238018688E+01  0.91005142031E+01  0.98627618120E+01  0.00000000000E+00 0.  1.
</event>
<event>
 7    1  0.7674040E-012  0.5930195E+02  0.7816164E-02  0.1266605E+00
        -11   -1    0    0    0    0  0.00000000000E+00  0.00000000000E+00  0.45593999997E+02  0.45594000000E+02  0.51100000000E-03 0. -1.
         11   -1    0    0    0    0 -0.00000000000E+00 -0.00000000000E+00 -0.45593999997E+02  0.45594000000E+02  0.51100000000E-03 0.  1.
    9900012    2    1    2    0    0  0.16357110064E+02  0.22465951863E+02 -0.15634779906E+02  0.59301946850E+02  0.50000005147E+02 0.  0.
         12    1    1    2    0    0 -0.16357110064E+02 -0.22465951863E+02  0.15634779906E+02  0.31886053150E+02  0.00000000000E+00 0. -1.
         11    1    3    3    0    0 -0.35665058422E+00 -0.64150547402E+00  0.24072358964E+01  0.25166473401E+01  0.51100000000E-03 0. -1.
        -11    1    3    3    0    0  0.79116702478E+01  0.82606204908E+01 -0.32383779232E+02  0.34344454204E+02  0.51100000000E-03 0.  1.
        -12    1    3    3    0    0  0.88020904007E+01  0.14846836846E+02  0.14341763429E+02  0.22440845306E+02  0.00000000000E+00 0.  1.
</event>
<event>
 7    1  0.7674040E-012  0.5930193E+02  0.7816164E-02  0.1266605E+00
        -11   -1    0    0    0    0  0.00000000000E+00  0.00000000000E+00  0.45593999997E+02  0.45594000000E+02  0.51100000000E-03 0. -1.
         11   -1    0    0    0    0 -0.00000000000E+00 -0.00000000000E+00 -0.45593999997E+02  0.45594000000E+02  0.51100000000E-03 0.  1.
    9900012    2    1    2    0    0 -0.89652908799E+01  0.29176101806E+02 -0.92249736267E+01  0.59301929443E+02  0.49999973400E+02 0.  0.
         12    1    1    2    0    0  0.89652908799E+01 -0.29176101806E+02  0.92249736267E+01  0.31886070557E+02  0.00000000000E+00 0. -1.
         11    1    3    3    0    0  0.17030382147E+02  0.17130674478E+02 -0.45069562708E+01  0.24572476050E+02  0.51100000000E-03 0. -1.
        -11    1    3    3    0    0 -0.25442325198E+02  0.10112663090E+02  0.22562246568E+01  0.27471228880E+02  0.51100000000E-03 0.  1.
        -12    1    3    3    0    0 -0.55334782924E+00  0.19327642382E+01 -0.69742420127E+01  0.72582245124E+01  0.00000000000E+00 0.  1.
</event>
<event>
 7    1  0.7674040E-012  0.5930198E+02  0.7816164E-02  0.1266605E+00
        -11   -1    0    0    0    0  0.00000000000E+00  0.00000000000E+00  0.45593999997E+02  0.45594000000E+02  0.51100000000E-03 0. -1.
         11   -1    0    0    0    0 -0.00000000000E+00 -0.00000000000E+00 -0.45593999997E+02  0.45594000000E+02  0.51100000000E-03 0.  1.
    9900012    2    1    2    0    0  0.61464979053E+01 -0.13064597299E+02 -0.28429828202E+02  0.59301980012E+02  0.50000065627E+02 0.  0.
         12    1    1    2    0    0 -0.61464979053E+01  0.13064597299E+02  0.28429828202E+02  0.31886019988E+02  0.00000000000E+00 0. -1.
         11    1    3    3    0    0  0.20857136685E+02  0.34524388243E+01 -0.88607090320E+01  0.22922732153E+02  0.51100000000E-03 0.  1.
        -11    1    3    3    0    0 -0.14072360802E+02 -0.16716836422E+02 -0.58190812972E+01  0.22612953498E+02  0.51100000000E-03 0. -1.
         12    1    3    3    0    0 -0.63827797784E+00  0.19980029953E+00 -0.13750037873E+02  0.13766294361E+02  0.00000000000E+00 0. -1.
</event>
<event>
 7    1  0.7674040E-012  0.5930202E+02  0.7816164E-02  0.1266605E+00
        -11   -1    0    0    0    0  0.00000000000E+00  0.00000000000E+00  0.45593999997E+02  0.45594000000E+02  0.51100000000E-03 0.  1.
         11   -1    0    0    0    0 -0.00000000000E+00 -0.00000000000E+00 -0.45593999997E+02  0.45594000000E+02  0.51100000000E-03 0. -1.
    9900012    2    1    2    0    0  0.16406133193E+02  0.20834484389E+02  0.17705338006E+02  0.59302016559E+02  0.50000132279E+02 0.  0.
         12    1    1    2    0    0 -0.16406133193E+02 -0.20834484389E+02 -0.17705338006E+02  0.31885983441E+02  0.00000000000E+00 0. -1.
         11    1    3    3    0    0 -0.54673886366E+01  0.40369837224E+01  0.59748065983E+01  0.90491927942E+01  0.51100000000E-03 0. -1.
        -11    1    3    3    0    0  0.20622184202E+02  0.55944141755E+01  0.24969935907E+02  0.32864413134E+02  0.51100000000E-03 0.  1.
        -12    1    3    3    0    0  0.12513376275E+01  0.11203086491E+02 -0.13239404498E+02  0.17388410630E+02  0.00000000000E+00 0.  1.
</event>
<event>
 7    1  0.7674040E-012  0.5930194E+02  0.7816164E-02  0.1266605E+00
        -11   -1    0    0    0    0  0.00000000000E+00  0.00000000000E+00  0.45593999997E+02  0.45594000000E+02  0.51100000000E-03 0.  1.
         11   -1    0    0    0    0 -0.00000000000E+00 -0.00000000000E+00 -0.45593999997E+02  0.45594000000E+02  0.51100000000E-03 0. -1.
    9900012    2    1    2    0    0 -0.24402895023E+02 -0.13193569531E+02 -0.15720977717E+02  0.59301941874E+02  0.49999996072E+02 0.  0.
         12    1    1    2    0    0  0.24402895023E+02  0.13193569531E+02  0.15720977717E+02  0.31886058126E+02  0.00000000000E+00 0. -1.
         11    1    3    3    0    0  0.48867491346E+01 -0.27131729446E+01  0.72184342084E+01  0.91294806651E+01  0.51100000000E-03 0. -1.
        -11    1    3    3    0    0 -0.11989994186E+02  0.33993113063E+01 -0.24962959450E+02  0.27900978884E+02  0.51100000000E-03 0.  1.
        -12    1    3    3    0    0 -0.17299649972E+02 -0.13879707893E+02  0.20235475253E+01  0.22271482324E+02  0.00000000000E+00 0.  1.
</event>
<event>
 7    1  0.7674040E-012  0.5930210E+02  0.7816164E-02  0.1266604E+00
        -11   -1    0    0    0    0  0.00000000000E+00  0.00000000000E+00  0.45593999997E+02  0.45594000000E+02  0.51100000000E-03 0.  1.
         11   -1    0    0    0    0 -0.00000000000E+00 -0.00000000000E+00 -0.45593999997E+02  0.45594000000E+02  0.51100000000E-03 0. -1.
    9900012    2    1    2    0    0  0.91499153621E+01  0.19127619666E+01  0.30484934235E+02  0.59302096770E+02  0.50000278565E+02 0.  0.
         12    1    1    2    0    0 -0.91499153621E+01 -0.19127619666E+01 -0.30484934235E+02  0.31885903230E+02  0.00000000000E+00 0. -1.
         11    1    3    3    0    0  0.20057874476E+02 -0.84598802249E+01 -0.21027492813E+01  0.21870287074E+02  0.51100000000E-03 0. -1.
        -11    1    3    3    0    0 -0.93473921049E+01  0.25775394620E+01  0.23108384243E+02  0.25060224888E+02  0.51100000000E-03 0.  1.
         12    1    3    3    0    0 -0.15605670090E+01  0.77951027295E+01  0.94792992732E+01  0.12371584808E+02  0.00000000000E+00 0. -1.
</event>
<event>
 7    1  0.7674040E-012  0.5930199E+02  0.7816164E-02  0.1266605E+00
        -11   -1    0    0    0    0  0.00000000000E+00  0.00000000000E+00  0.45593999997E+02  0.45594000000E+02  0.51100000000E-03 0. -1.
         11   -1    0    0    0    0 -0.00000000000E+00 -0.00000000000E+00 -0.45593999997E+02  0.45594000000E+02  0.51100000000E-03 0.  1.
    9900012    2    1    2    0    0  0.25315624343E+02 -0.19019198619E+01 -0.19292990670E+02  0.59301990152E+02  0.50000084119E+02 0.  0.
         12    1    1    2    0    0 -0.25315624343E+02  0.19019198619E+01  0.19292990670E+02  0.31886009848E+02  0.00000000000E+00 0. -1.
         11    1    3    3    0    0  0.34727158432E+01  0.81826833468E+01  0.33392065662E+01  0.94955970236E+01  0.51100000000E-03 0. -1.
        -11    1    3    3    0    0  0.73379024984E+01 -0.32870614840E+01 -0.30795236268E+02  0.31827600653E+02  0.51100000000E-03 0.  1.
        -12    1    3    3    0    0  0.14505006002E+02 -0.67975417247E+01  0.81630390323E+01  0.17978792475E+02  0.00000000000E+00 0.  1.
</event>
<event>
 7    1  0.7674040E-012  0.5930192E+02  0.7816164E-02  0.1266605E+00
        -11   -1    0    0    0    0  0.00000000000E+00  0.00000000000E+00  0.45593999997E+02  0.45594000000E+02  0.51100000000E-03 0.  1.
         11   -1    0    0    0    0 -0.00000000000E+00 -0.00000000000E+00 -0.45593999997E+02  0.45594000000E+02  0.51100000000E-03 0. -1.
    9900012    2    1    2    0    0 -0.14519322917E+02  0.10725238334E+02  0.26284603449E+02  0.59301923826E+02  0.49999963157E+02 0.  0.
         12    1    1    2    0    0  0.14519322917E+02 -0.10725238334E+02 -0.26284603449E+02  0.31886076174E+02  0.00000000000E+00 0. -1.
         11    1    3    3    0    0 -0.17711337090E+00  0.27052943772E+02  0.32999841823E+01  0.27254046154E+02  0.51100000000E-03 0. -1.
        -11    1    3    3    0    0 -0.20777266769E+01 -0.23746621890E+01  0.10995326575E+01  0.33413980579E+01  0.51100000000E-03 0.  1.
         12    1    3    3    0    0 -0.12264482870E+02 -0.13953043249E+02  0.21885086609E+02  0.28706479615E+02  0.00000000000E+00 0. -1.
</event>
<event>
 7    1  0.7674040E-012  0.5930192E+02  0.7816164E-02  0.1266605E+00
        -11   -1    0    0    0    0  0.00000000000E+00  0.00000000000E+00  0.45593999997E+02  0.45594000000E+02  0.51100000000E-03 0.  1.
         11   -1    0    0    0    0 -0.00000000000E+00 -0.00000000000E+00 -0.45593999997E+02  0.45594000000E+02  0.51100000000E-03 0. -1.
    9900012    2    1    2    0    0  0.19734054483E+02 -0.25555579788E+01  0.24915026768E+02  0.59301916174E+02  0.49999949202E+02 0.  0.
         12    1    1    2    0    0 -0.19734054483E+02  0.25555579788E+01 -0.24915026768E+02  0.31886083826E+02  0.00000000000E+00 0. -1.
         11    1    3    3    0    0  0.26539362048E+01 -0.10907835439E+02  0.30823440016E+01  0.11641524649E+02  0.51100000000E-03 0. -1.
        -11    1    3    3    0    0 -0.80017492146E+00  0.12223130706E+02 -0.65515384744E+01  0.13891287226E+02  0.51100000000E-03 0.  1.
        -12    1    3    3    0    0  0.17880293199E+02 -0.38708532457E+01  0.28384221241E+02  0.33769104299E+02  0.00000000000E+00 0.  1.
</event>
<event>
 7    1  0.7674040E-012  0.5930195E+02  0.7816164E-02  0.1266605E+00
        -11   -1    0    0    0    0  0.00000000000E+00  0.00000000000E+00  0.45593999997E+02  0.45594000000E+02  0.51100000000E-03 0.  1.
         11   -1    0    0    0    0 -0.00000000000E+00 -0.00000000000E+00 -0.45593999997E+02  0.45594000000E+02  0.51100000000E-03 0. -1.
    9900012    2    1    2    0    0  0.20574094195E+02 -0.64418490923E+01 -0.23493177350E+02  0.59301950485E+02  0.50000011777E+02 0.  0.
         12    1    1    2    0    0 -0.20574094195E+02  0.64418490923E+01  0.23493177350E+02  0.31886049515E+02  0.00000000000E+00 0. -1.
         11    1    3    3    0    0 -0.75787177533E+01 -0.80008134142E+01 -0.59451252891E+01  0.12521760780E+02  0.51100000000E-03 0. -1.
        -11    1    3    3    0    0  0.18613902751E+02  0.16031355114E+02 -0.42438795815E+01  0.24929746019E+02  0.51100000000E-03 0.  1.
        -12    1    3    3    0    0  0.95389091979E+01 -0.14472390792E+02 -0.13304172479E+02  0.21850443686E+02  0.00000000000E+00 0.  1.
</event>
<event>
 7    1  0.7674040E-012  0.5930190E+02  0.7816164E-02  0.1266605E+00
        -11   -1    0    0    0    0  0.00000000000E+00  0.00000000000E+00  0.45593999997E+02  0.45594000000E+02  0.51100000000E-03 0. -1.
         11   -1    0    0    0    0 -0.00000000000E+00 -0.00000000000E+00 -0.45593999997E+02  0.45594000000E+02  0.51100000000E-03 0.  1.
    9900012    2    1    2    0    0 -0.29364676469E+00 -0.66512819107E+01 -0.31183294601E+02  0.59301895790E+02  0.49999912027E+02 0.  0.
         12    1    1    2    0    0  0.29364676469E+00  0.66512819107E+01  0.31183294601E+02  0.31886104210E+02  0.00000000000E+00 0. -1.
         11    1    3    3    0    0  0.47473121961E+01  0.83439641505E+01  0.47235910397E+01  0.10699113206E+02  0.51100000000E-03 0. -1.
        -11    1    3    3    0    0  0.74081970783E+01 -0.14412268780E+02 -0.31427680831E+02  0.35359496575E+02  0.51100000000E-03 0.  1.
        -12    1    3    3    0    0 -0.12449156039E+02 -0.58297728089E+00 -0.44792048102E+01  0.13243286009E+02  0.00000000000E+00 0.  1.
</event>
<event>
 7    1  0.7674040E-012  0.5930194E+02  0.7816164E-02  0.1266605E+00
        -11   -1    0    0    0    0  0.00000000000E+00  0.00000000000E+00  0.45593999997E+02  0.45594000000E+02  0.51100000000E-03 0. -1.
         11   -1    0    0    0    0 -0.00000000000E+00 -0.00000000000E+00 -0.45593999997E+02  0.45594000000E+02  0.51100000000E-03 0.  1.
    9900012    2    1    2    0    0 -0.28399157893E+02 -0.81296834436E+01 -0.12004882080E+02  0.59301935400E+02  0.49999984265E+02 0.  0.
         12    1    1    2    0    0  0.28399157893E+02  0.81296834436E+01  0.12004882080E+02  0.31886064600E+02  0.00000000000E+00 0. -1.
         11    1    3    3    0    0 -0.17251918024E+01 -0.14411219082E+02 -0.65698531035E+01  0.15931807564E+02  0.51100000000E-03 0. -1.
        -11    1    3    3    0    0  0.38977036062E+01  0.97164970124E+01 -0.69546302831E+01  0.12568583462E+02  0.51100000000E-03 0.  1.
        -12    1    3    3    0    0 -0.30571669697E+02 -0.34349613738E+01  0.15196013066E+01  0.30801544374E+02  0.00000000000E+00 0.  1.
</event>
<event>
 7    1  0.7674040E-012  0.5930195E+02  0.7816164E-02  0.1266605E+00
        -11   -1    0    0    0    0  0.00000000000E+00  0.00000000000E+00  0.45593999997E+02  0.45594000000E+02  0.51100000000E-03 0. -1.
         11   -1    0    0    0    0 -0.00000000000E+00 -0.00000000000E+00 -0.45593999997E+02  0.45594000000E+02  0.51100000000E-03 0.  1.
    9900012    2    1    2    0    0  0.59338161209E+01 -0.48516804376E+01 -0.30951109528E+02  0.59301950419E+02  0.50000011657E+02 0.  0.
         12    1    1    2    0    0 -0.59338161209E+01  0.48516804376E+01  0.30951109528E+02  0.31886049581E+02  0.00000000000E+00 0. -1.
         11    1    3    3    0    0  0.37677537948E+01 -0.93087694116E+01  0.24689349170E+01  0.10341411727E+02  0.51100000000E-03 0. -1.
        -11    1    3    3    0    0 -0.69842988041E+01  0.76417327505E+01 -0.37159926866E+02  0.38575078408E+02  0.51100000000E-03 0.  1.
        -12    1    3    3    0    0  0.91503611303E+01 -0.31846437764E+01  0.37398824210E+01  0.10385460284E+02  0.00000000000E+00 0.  1.
</event>
<event>
 7    1  0.7674040E-012  0.5930200E+02  0.7816164E-02  0.1266605E+00
        -11   -1    0    0    0    0  0.00000000000E+00  0.00000000000E+00  0.45593999997E+02  0.45594000000E+02  0.51100000000E-03 0. -1.
         11   -1    0    0    0    0 -0.00000000000E+00 -0.00000000000E+00 -0.45593999997E+02  0.45594000000E+02  0.51100000000E-03 0.  1.
    9900012    2    1    2    0    0 -0.45466471129E+01  0.21315519581E+02 -0.23274316587E+02  0.59301996996E+02  0.50000096601E+02 0.  0.
         12    1    1    2    0    0  0.45466471129E+01 -0.21315519581E+02  0.23274316587E+02  0.31886003004E+02  0.00000000000E+00 0. -1.
         11    1    3    3    0    0 -0.31644198081E+01 -0.73860781728E+01 -0.68326874017E+00  0.80644007793E+01  0.51100000000E-03 0. -1.
        -11    1    3    3    0    0 -0.18044107620E-01  0.32244747611E+02 -0.29274284045E+02  0.43551208717E+02  0.51100000000E-03 0.  1.
        -12    1    3    3    0    0 -0.13641831972E+01 -0.35431498574E+01  0.66832361980E+01  0.76863874991E+01  0.00000000000E+00 0.  1.
</event>
<event>
 7    1  0.7674040E-012  0.5930195E+02  0.7816164E-02  0.1266605E+00
        -11   -1    0    0    0    0  0.00000000000E+00  0.00000000000E+00  0.45593999997E+02  0.45594000000E+02  0.51100000000E-03 0. -1.
         11   -1    0    0    0    0 -0.00000000000E+00 -0.00000000000E+00 -0.45593999997E+02  0.45594000000E+02  0.51100000000E-03 0.  1.
    9900012    2    1    2    0    0 -0.30611553570E+02  0.86848510685E+01 -0.20558134861E+01  0.59301949459E+02  0.50000009905E+02 0.  0.
         12    1    1    2    0    0  0.30611553570E+02 -0.86848510685E+01  0.20558134861E+01  0.31886050541E+02  0.00000000000E+00 0. -1.
         11    1    3    3    0    0 -0.19646959998E+02  0.11638323786E+02  0.13486356199E+02  0.26520471744E+02  0.51100000000E-03 0. -1.
        -11    1    3    3    0    0 -0.67307770049E+01 -0.59745733307E+01 -0.22419698668E+02  0.24158679066E+02  0.51100000000E-03 0.  1.
        -12    1    3    3    0    0 -0.42338165667E+01  0.30211006130E+01  0.68775289825E+01  0.86227986490E+01  0.00000000000E+00 0.  1.
</event>
<event>
 7    1  0.7674040E-012  0.5930175E+02  0.7816164E-02  0.1266605E+00
        -11   -1    0    0    0    0  0.00000000000E+00  0.00000000000E+00  0.45593999997E+02  0.45594000000E+02  0.51100000000E-03 0.  1.
         11   -1    0    0    0    0 -0.00000000000E+00 -0.00000000000E+00 -0.45593999997E+02  0.45594000000E+02  0.51100000000E-03 0. -1.
    9900012    2    1    2    0    0  0.29558113779E+02 -0.10539778246E+02 -0.56536421775E+01  0.59301753976E+02  0.49999653390E+02 0.  0.
         12    1    1    2    0    0 -0.29558113779E+02  0.10539778246E+02  0.56536421775E+01  0.31886246024E+02  0.00000000000E+00 0. -1.
         11    1    3    3    0    0  0.22004038415E+02  0.92155211299E+01 -0.17578660830E+02  0.29632969023E+02  0.51100000000E-03 0. -1.
        -11    1    3    3    0    0  0.89763675323E+01 -0.12777297988E+02 -0.18925215394E+00  0.15616348311E+02  0.51100000000E-03 0.  1.
         12    1    3    3    0    0 -0.14222921688E+01 -0.69780013879E+01  0.12114270807E+02  0.14052436641E+02  0.00000000000E+00 0. -1.
</event>
<event>
 7    1  0.7674040E-012  0.5930195E+02  0.7816164E-02  0.1266605E+00
        -11   -1    0    0    0    0  0.00000000000E+00  0.00000000000E+00  0.45593999997E+02  0.45594000000E+02  0.51100000000E-03 0.  1.
         11   -1    0    0    0    0 -0.00000000000E+00 -0.00000000000E+00 -0.45593999997E+02  0.45594000000E+02  0.51100000000E-03 0. -1.
    9900012    2    1    2    0    0 -0.17002931915E+02  0.24204132884E+02  0.11907164577E+02  0.59301948024E+02  0.50000007288E+02 0.  0.
         12    1    1    2    0    0  0.17002931915E+02 -0.24204132884E+02 -0.11907164577E+02  0.31886051976E+02  0.00000000000E+00 0. -1.
         11    1    3    3    0    0 -0.54555604732E+00 -0.46348329033E+01  0.67221718952E+01  0.81833307822E+01  0.51100000000E-03 0. -1.
        -11    1    3    3    0    0 -0.20830485438E+02  0.96466514248E+01 -0.11167597524E+02  0.25528067730E+02  0.51100000000E-03 0.  1.
        -12    1    3    3    0    0  0.43731095705E+01  0.19192314362E+02  0.16352590205E+02  0.25590549512E+02  0.00000000000E+00 0.  1.
</event>
<event>
 7    1  0.7674040E-012  0.5930182E+02  0.7816164E-02  0.1266605E+00
        -11   -1    0    0    0    0  0.00000000000E+00  0.00000000000E+00  0.45593999997E+02  0.45594000000E+02  0.51100000000E-03 0. -1.
         11   -1    0    0    0    0 -0.00000000000E+00 -0.00000000000E+00 -0.45593999997E+02  0.45594000000E+02  0.51100000000E-03 0.  1.
    9900012    2    1    2    0    0  0.92317159893E+01  0.17946655315E+02 -0.24686459289E+02  0.59301822912E+02  0.49999779113E+02 0.  0.
         12    1    1    2    0    0 -0.92317159893E+01 -0.17946655315E+02  0.24686459289E+02  0.31886177088E+02  0.00000000000E+00 0. -1.
         11    1    3    3    0    0 -0.11041842429E+02 -0.11542079474E+02 -0.34648408490E+01  0.16344632305E+02  0.51100000000E-03 0. -1.
        -11    1    3    3    0    0  0.13614585726E+02  0.12207627395E+02 -0.14195804205E+02  0.23149599746E+02  0.51100000000E-03 0.  1.
         12    1    3    3    0    0  0.66589726922E+01  0.17281107393E+02 -0.70258142343E+01  0.19807590861E+02  0.00000000000E+00 0. -1.
</event>
<event>
 7    1  0.7674040E-012  0.5930195E+02  0.7816164E-02  0.1266605E+00
        -11   -1    0    0    0    0  0.00000000000E+00  0.00000000000E+00  0.45593999997E+02  0.45594000000E+02  0.51100000000E-03 0. -1.
         11   -1    0    0    0    0 -0.00000000000E+00 -0.00000000000E+00 -0.45593999997E+02  0.45594000000E+02  0.51100000000E-03 0.  1.
    9900012    2    1    2    0    0  0.22207258237E+02 -0.15466081532E+02 -0.16862928520E+02  0.59301947334E+02  0.50000006031E+02 0.  0.
         12    1    1    2    0    0 -0.22207258237E+02  0.15466081532E+02  0.16862928520E+02  0.31886052666E+02  0.00000000000E+00 0. -1.
         11    1    3    3    0    0  0.13107299197E+02 -0.22859632138E+02 -0.11269834424E+02  0.28659609940E+02  0.51100000000E-03 0. -1.
        -11    1    3    3    0    0  0.52602903275E+01  0.79262574999E+01  0.10453552163E+02  0.14134106458E+02  0.51100000000E-03 0.  1.
        -12    1    3    3    0    0  0.38396687120E+01 -0.53270689338E+00 -0.16046646259E+02  0.16508230936E+02  0.00000000000E+00 0.  1.
</event>
<event>
 7    1  0.7674040E-012  0.5930193E+02  0.7816164E-02  0.1266605E+00
        -11   -1    0    0    0    0  0.00000000000E+00  0.00000000000E+00  0.45593999997E+02  0.45594000000E+02  0.51100000000E-03 0.  1.
         11   -1    0    0    0    0 -0.00000000000E+00 -0.00000000000E+00 -0.45593999997E+02  0.45594000000E+02  0.51100000000E-03 0. -1.
    9900012    2    1    2    0    0  0.19946938332E+02 -0.24504008381E+02  0.42889294632E+01  0.59301926371E+02  0.49999967799E+02 0.  0.
         12    1    1    2    0    0 -0.19946938332E+02  0.24504008381E+02 -0.42889294632E+01  0.31886073629E+02  0.00000000000E+00 0. -1.
         11    1    3    3    0    0 -0.12426574151E+01  0.13731920822E+02  0.26149967652E+01  0.14033818271E+02  0.51100000000E-03 0. -1.
        -11    1    3    3    0    0  0.42706867685E+01 -0.19132150518E+02  0.23299022076E+01  0.19740982586E+02  0.51100000000E-03 0.  1.
         12    1    3    3    0    0  0.16918908978E+02 -0.19103778685E+02 -0.65596950966E+00  0.25527125515E+02  0.00000000000E+00 0. -1.
</event>
<event>
 7    1  0.7674040E-012  0.5930193E+02  0.7816164E-02  0.1266605E+00
        -11   -1    0    0    0    0  0.00000000000E+00  0.00000000000E+00  0.45593999997E+02  0.45594000000E+02  0.51100000000E-03 0. -1.
         11   -1    0    0    0    0 -0.00000000000E+00 -0.00000000000E+00 -0.45593999997E+02  0.45594000000E+02  0.51100000000E-03 0.  1.
    9900012    2    1    2    0    0 -0.27302339564E+02  0.85971838406E+01 -0.14049634883E+02  0.59301928495E+02  0.49999971672E+02 0.  0.
         12    1    1    2    0    0  0.27302339564E+02 -0.85971838406E+01  0.14049634883E+02  0.31886071505E+02  0.00000000000E+00 0. -1.
         11    1    3    3    0    0 -0.68011087358E+01 -0.24089768761E+01  0.10353213295E+02  0.12619321512E+02  0.51100000000E-03 0. -1.
        -11    1    3    3    0    0  0.60463305129E+01  0.92133434468E+01 -0.14674984659E+02  0.18352083945E+02  0.51100000000E-03 0.  1.
        -12    1    3    3    0    0 -0.26547561341E+02  0.17928172699E+01 -0.97278635197E+01  0.28330523038E+02  0.00000000000E+00 0.  1.
</event>
<event>
 7    1  0.7674040E-012  0.5930195E+02  0.7816164E-02  0.1266605E+00
        -11   -1    0    0    0    0  0.00000000000E+00  0.00000000000E+00  0.45593999997E+02  0.45594000000E+02  0.51100000000E-03 0.  1.
         11   -1    0    0    0    0 -0.00000000000E+00 -0.00000000000E+00 -0.45593999997E+02  0.45594000000E+02  0.51100000000E-03 0. -1.
    9900012    2    1    2    0    0  0.61361452331E+01 -0.14374042319E+01  0.31257023465E+02  0.59301954069E+02  0.50000018312E+02 0.  0.
         12    1    1    2    0    0 -0.61361452331E+01  0.14374042319E+01 -0.31257023465E+02  0.31886045931E+02  0.00000000000E+00 0. -1.
         11    1    3    3    0    0  0.20730554883E+02 -0.64716859531E+01  0.75720741320E+00  0.21730439208E+02  0.51100000000E-03 0. -1.
        -11    1    3    3    0    0 -0.30918988928E+01 -0.27981265090E+01  0.19194002505E+02  0.19641768840E+02  0.51100000000E-03 0.  1.
         12    1    3    3    0    0 -0.11502510758E+02  0.78324082302E+01  0.11305813547E+02  0.17929746021E+02  0.00000000000E+00 0. -1.
</event>
<event>
 7    1  0.7674040E-012  0.5930195E+02  0.7816164E-02  0.1266605E+00
        -11   -1    0    0    0    0  0.00000000000E+00  0.00000000000E+00  0.45593999997E+02  0.45594000000E+02  0.51100000000E-03 0. -1.
         11   -1    0    0    0    0 -0.00000000000E+00 -0.00000000000E+00 -0.45593999997E+02  0.45594000000E+02  0.51100000000E-03 0.  1.
    9900012    2    1    2    0    0 -0.22056605858E+02  0.18810587732E+02 -0.13281128443E+02  0.59301945909E+02  0.50000003430E+02 0.  0.
         12    1    1    2    0    0  0.22056605858E+02 -0.18810587732E+02  0.13281128443E+02  0.31886054091E+02  0.00000000000E+00 0. -1.
         11    1    3    3    0    0 -0.25843226621E+02  0.28052032788E+02  0.21195521376E+00  0.38142284029E+02  0.51100000000E-03 0. -1.
        -11    1    3    3    0    0  0.44032696793E+01 -0.82692818072E+01 -0.19626868800E+01  0.95719353072E+01  0.51100000000E-03 0.  1.
         12    1    3    3    0    0 -0.61664891693E+00 -0.97216324911E+00 -0.11530396777E+02  0.11587726572E+02  0.00000000000E+00 0. -1.
</event>
<event>
 7    1  0.7674040E-012  0.5930191E+02  0.7816164E-02  0.1266605E+00
        -11   -1    0    0    0    0  0.00000000000E+00  0.00000000000E+00  0.45593999997E+02  0.45594000000E+02  0.51100000000E-03 0. -1.
         11   -1    0    0    0    0 -0.00000000000E+00 -0.00000000000E+00 -0.45593999997E+02  0.45594000000E+02  0.51100000000E-03 0.  1.
    9900012    2    1    2    0    0  0.92996424867E+00 -0.31860293774E+02  0.88300518083E+00  0.59301908188E+02  0.49999934637E+02 0.  0.
         12    1    1    2    0    0 -0.92996424867E+00  0.31860293774E+02 -0.88300518083E+00  0.31886091812E+02  0.00000000000E+00 0. -1.
         11    1    3    3    0    0 -0.17940180495E+02 -0.25723750672E+02  0.15970365293E+01  0.31402419505E+02  0.51100000000E-03 0. -1.
        -11    1    3    3    0    0  0.15579612521E+02  0.46013471406E+01 -0.27778131577E+01  0.16480684695E+02  0.51100000000E-03 0.  1.
         12    1    3    3    0    0  0.32905322228E+01 -0.10737890243E+02  0.20637818092E+01  0.11418803989E+02  0.00000000000E+00 0. -1.
</event>
<event>
 7    1  0.7674040E-012  0.5930193E+02  0.7816164E-02  0.1266605E+00
        -11   -1    0    0    0    0  0.00000000000E+00  0.00000000000E+00  0.45593999997E+02  0.45594000000E+02  0.51100000000E-03 0.  1.
         11   -1    0    0    0    0 -0.00000000000E+00 -0.00000000000E+00 -0.45593999997E+02  0.45594000000E+02  0.51100000000E-03 0. -1.
    9900012    2    1    2    0    0 -0.17680773003E+02 -0.80744922152E+01  0.25276759141E+02  0.59301926062E+02  0.49999967234E+02 0.  0.
         12    1    1    2    0    0  0.17680773003E+02  0.80744922152E+01 -0.25276759141E+02  0.31886073938E+02  0.00000000000E+00 0. -1.
         11    1    3    3    0    0 -0.46920129279E+01 -0.17282264615E+02 -0.93120642456E+01  0.20184305693E+02  0.51100000000E-03 0. -1.
        -11    1    3    3    0    0 -0.43665494076E+00  0.32849070023E+01  0.13280624957E+02  0.13687815058E+02  0.51100000000E-03 0.  1.
         12    1    3    3    0    0 -0.12552105134E+02  0.59228653972E+01  0.21308198430E+02  0.25429805311E+02  0.00000000000E+00 0. -1.
</event>
<event>
 7    1  0.7674040E-012  0.5930198E+02  0.7816164E-02  0.1266605E+00
        -11   -1    0    0    0    0  0.00000000000E+00  0.00000000000E+00  0.45593999997E+02  0.45594000000E+02  0.51100000000E-03 0.  1.
         11   -1    0    0    0    0 -0.00000000000E+00 -0.00000000000E+00 -0.45593999997E+02  0.45594000000E+02  0.51100000000E-03 0. -1.
    9900012    2    1    2    0    0  0.27516986067E+02 -0.12132197592E+02  0.10599230349E+02  0.59301977598E+02  0.50000061223E+02 0.  0.
         12    1    1    2    0    0 -0.27516986067E+02  0.12132197592E+02 -0.10599230349E+02  0.31886022402E+02  0.00000000000E+00 0. -1.
         11    1    3    3    0    0  0.19195132398E+02  0.17764074773E+01  0.15286989334E+02  0.24602861103E+02  0.51100000000E-03 0. -1.
        -11    1    3    3    0    0 -0.11070419392E+02 -0.85033341743E+01 -0.41397346716E+01  0.14560160748E+02  0.51100000000E-03 0.  1.
        -12    1    3    3    0    0  0.19392273061E+02 -0.54052708954E+01 -0.54802431337E+00  0.20138955747E+02  0.00000000000E+00 0.  1.
</event>
<event>
 7    1  0.7674040E-012  0.5930196E+02  0.7816164E-02  0.1266605E+00
        -11   -1    0    0    0    0  0.00000000000E+00  0.00000000000E+00  0.45593999997E+02  0.45594000000E+02  0.51100000000E-03 0.  1.
         11   -1    0    0    0    0 -0.00000000000E+00 -0.00000000000E+00 -0.45593999997E+02  0.45594000000E+02  0.51100000000E-03 0. -1.
    9900012    2    1    2    0    0  0.22573134375E+02  0.18144988048E+02 -0.13339130131E+02  0.59301962626E+02  0.50000033920E+02 0.  0.
         12    1    1    2    0    0 -0.22573134375E+02 -0.18144988048E+02  0.13339130131E+02  0.31886037374E+02  0.00000000000E+00 0. -1.
         11    1    3    3    0    0 -0.18588057894E+01  0.13629626855E+02  0.40397913511E+01  0.14336729111E+02  0.51100000000E-03 0. -1.
        -11    1    3    3    0    0  0.10165463169E+02 -0.14309468111E+02 -0.47646840234E+01  0.18187900736E+02  0.51100000000E-03 0.  1.
        -12    1    3    3    0    0  0.14266476995E+02  0.18824829304E+02 -0.12614237458E+02  0.26777332780E+02  0.00000000000E+00 0.  1.
</event>
<event>
 7    1  0.7674040E-012  0.5930195E+02  0.7816164E-02  0.1266605E+00
        -11   -1    0    0    0    0  0.00000000000E+00  0.00000000000E+00  0.45593999997E+02  0.45594000000E+02  0.51100000000E-03 0. -1.
         11   -1    0    0    0    0 -0.00000000000E+00 -0.00000000000E+00 -0.45593999997E+02  0.45594000000E+02  0.51100000000E-03 0.  1.
    9900012    2    1    2    0    0 -0.83632413705E+01 -0.16242283882E+02 -0.26133596603E+02  0.59301945630E+02  0.50000002922E+02 0.  0.
         12    1    1    2    0    0  0.83632413705E+01  0.16242283882E+02  0.26133596603E+02  0.31886054370E+02  0.00000000000E+00 0. -1.
         11    1    3    3    0    0  0.15647459591E+02 -0.12911938503E+01  0.20803088077E+01  0.15837861542E+02  0.51100000000E-03 0. -1.
        -11    1    3    3    0    0 -0.51717810374E+01 -0.11283531860E+02 -0.17586536616E+02  0.21525605235E+02  0.51100000000E-03 0.  1.
         12    1    3    3    0    0 -0.18838919925E+02 -0.36675581710E+01 -0.10627368795E+02  0.21938478852E+02  0.00000000000E+00 0. -1.
</event>
<event>
 7    1  0.7674040E-012  0.5930194E+02  0.7816164E-02  0.1266605E+00
        -11   -1    0    0    0    0  0.00000000000E+00  0.00000000000E+00  0.45593999997E+02  0.45594000000E+02  0.51100000000E-03 0.  1.
         11   -1    0    0    0    0 -0.00000000000E+00 -0.00000000000E+00 -0.45593999997E+02  0.45594000000E+02  0.51100000000E-03 0. -1.
    9900012    2    1    2    0    0  0.30767703856E+02 -0.42942663794E+01 -0.71852908570E+01  0.59301941463E+02  0.49999995323E+02 0.  0.
         12    1    1    2    0    0 -0.30767703856E+02  0.42942663794E+01  0.71852908570E+01  0.31886058537E+02  0.00000000000E+00 0. -1.
         11    1    3    3    0    0  0.23556759776E+02  0.59246889689E+00 -0.16090642106E+02  0.28533852075E+02  0.51100000000E-03 0. -1.
        -11    1    3    3    0    0  0.25636496556E+01 -0.16112732972E+02  0.89687178716E+01  0.18618011814E+02  0.51100000000E-03 0.  1.
        -12    1    3    3    0    0  0.46472944238E+01  0.11225997696E+02 -0.63366622171E-01  0.12150077574E+02  0.00000000000E+00 0.  1.
</event>
<event>
 7    1  0.7674040E-012  0.5930194E+02  0.7816164E-02  0.1266605E+00
        -11   -1    0    0    0    0  0.00000000000E+00  0.00000000000E+00  0.45593999997E+02  0.45594000000E+02  0.51100000000E-03 0. -1.
         11   -1    0    0    0    0 -0.00000000000E+00 -0.00000000000E+00 -0.45593999997E+02  0.45594000000E+02  0.51100000000E-03 0.  1.
    9900012    2    1    2    0    0 -0.27964332407E+02 -0.15231012946E+02 -0.16532475257E+01  0.59301939257E+02  0.49999991299E+02 0.  0.
         12    1    1    2    0    0  0.27964332407E+02  0.15231012946E+02  0.16532475257E+01  0.31886060743E+02  0.00000000000E+00 0. -1.
         11    1    3    3    0    0 -0.88109104561E+01  0.39075828399E+01  0.24325656480E+01  0.99407606655E+01  0.51100000000E-03 0. -1.
        -11    1    3    3    0    0 -0.51324158900E+01  0.28637714464E+01 -0.18599400361E+02  0.19505911253E+02  0.51100000000E-03 0.  1.
        -12    1    3    3    0    0 -0.14021006061E+02 -0.22002367232E+02  0.14513587188E+02  0.29855267338E+02  0.00000000000E+00 0.  1.
</event>
<event>
 7    1  0.7674040E-012  0.5930193E+02  0.7816164E-02  0.1266605E+00
        -11   -1    0    0    0    0  0.00000000000E+00  0.00000000000E+00  0.45593999997E+02  0.45594000000E+02  0.51100000000E-03 0.  1.
         11   -1    0    0    0    0 -0.00000000000E+00 -0.00000000000E+00 -0.45593999997E+02  0.45594000000E+02  0.51100000000E-03 0. -1.
    9900012    2    1    2    0    0  0.16284829719E+02  0.27371907581E+02 -0.15179422142E+01  0.59301934828E+02  0.49999983221E+02 0.  0.
         12    1    1    2    0    0 -0.16284829719E+02 -0.27371907581E+02  0.15179422142E+01  0.31886065172E+02  0.00000000000E+00 0. -1.
         11    1    3    3    0    0 -0.61497865358E+01 -0.67557615109E+01 -0.47588412430E+01  0.10300813476E+02  0.51100000000E-03 0. -1.
        -11    1    3    3    0    0  0.25815154284E+02  0.24334820098E+02  0.97171288062E+01  0.36783532353E+02  0.51100000000E-03 0.  1.
        -12    1    3    3    0    0 -0.33805380292E+01  0.97928489948E+01 -0.64762297774E+01  0.12217588998E+02  0.00000000000E+00 0.  1.
</event>
<event>
 7    1  0.7674040E-012  0.5930195E+02  0.7816164E-02  0.1266605E+00
        -11   -1    0    0    0    0  0.00000000000E+00  0.00000000000E+00  0.45593999997E+02  0.45594000000E+02  0.51100000000E-03 0.  1.
         11   -1    0    0    0    0 -0.00000000000E+00 -0.00000000000E+00 -0.45593999997E+02  0.45594000000E+02  0.51100000000E-03 0. -1.
    9900012    2    1    2    0    0 -0.54284319486E+01 -0.25163710412E+02  0.18815944139E+02  0.59301953695E+02  0.50000017630E+02 0.  0.
         12    1    1    2    0    0  0.54284319486E+01  0.25163710412E+02 -0.18815944139E+02  0.31886046305E+02  0.00000000000E+00 0. -1.
         11    1    3    3    0    0 -0.21836952309E+02 -0.73876464654E+01  0.34987305025E+01  0.23316751957E+02  0.51100000000E-03 0. -1.
        -11    1    3    3    0    0  0.20731709565E+02 -0.87412091249E+01  0.11487026923E+02  0.25261914144E+02  0.51100000000E-03 0.  1.
        -12    1    3    3    0    0 -0.43231892047E+01 -0.90348548220E+01  0.38301867133E+01  0.10723287593E+02  0.00000000000E+00 0.  1.
</event>
<event>
 7    1  0.7674040E-012  0.5930194E+02  0.7816164E-02  0.1266605E+00
        -11   -1    0    0    0    0  0.00000000000E+00  0.00000000000E+00  0.45593999997E+02  0.45594000000E+02  0.51100000000E-03 0.  1.
         11   -1    0    0    0    0 -0.00000000000E+00 -0.00000000000E+00 -0.45593999997E+02  0.45594000000E+02  0.51100000000E-03 0. -1.
    9900012    2    1    2    0    0  0.20136995482E+02  0.30849698370E+01  0.24529682020E+02  0.59301938375E+02  0.49999989690E+02 0.  0.
         12    1    1    2    0    0 -0.20136995482E+02 -0.30849698370E+01 -0.24529682020E+02  0.31886061625E+02  0.00000000000E+00 0. -1.
         11    1    3    3    0    0  0.23334118198E+02 -0.52639319193E+01 -0.53443120675E+01  0.24510237107E+02  0.51100000000E-03 0. -1.
        -11    1    3    3    0    0 -0.76299003157E+01  0.35570904924E+01  0.68286304458E+01  0.10839670919E+02  0.51100000000E-03 0.  1.
         12    1    3    3    0    0  0.44327776003E+01  0.47918112638E+01  0.23045363642E+02  0.23952030349E+02  0.00000000000E+00 0. -1.
</event>
<event>
 7    1  0.7674040E-012  0.5930203E+02  0.7816164E-02  0.1266604E+00
        -11   -1    0    0    0    0  0.00000000000E+00  0.00000000000E+00  0.45593999997E+02  0.45594000000E+02  0.51100000000E-03 0.  1.
         11   -1    0    0    0    0 -0.00000000000E+00 -0.00000000000E+00 -0.45593999997E+02  0.45594000000E+02  0.51100000000E-03 0. -1.
    9900012    2    1    2    0    0  0.16931913373E+02 -0.74924134723E+01  0.25959374935E+02  0.59302029776E+02  0.50000156383E+02 0.  0.
         12    1    1    2    0    0 -0.16931913373E+02  0.74924134723E+01 -0.25959374935E+02  0.31885970224E+02  0.00000000000E+00 0. -1.
         11    1    3    3    0    0  0.12339345344E+02 -0.17365464659E+02 -0.44820464679E+01  0.21769417704E+02  0.51100000000E-03 0. -1.
        -11    1    3    3    0    0  0.10274616338E+02  0.51527849035E-01  0.11234586307E+02  0.15224530395E+02  0.51100000000E-03 0.  1.
         12    1    3    3    0    0 -0.56820483089E+01  0.98215233381E+01  0.19206835097E+02  0.22308081677E+02  0.00000000000E+00 0. -1.
</event>
<event>
 7    1  0.7674040E-012  0.5930196E+02  0.7816164E-02  0.1266605E+00
        -11   -1    0    0    0    0  0.00000000000E+00  0.00000000000E+00  0.45593999997E+02  0.45594000000E+02  0.51100000000E-03 0. -1.
         11   -1    0    0    0    0 -0.00000000000E+00 -0.00000000000E+00 -0.45593999997E+02  0.45594000000E+02  0.51100000000E-03 0.  1.
    9900012    2    1    2    0    0  0.16084262187E+02  0.20678216880E+01 -0.27454332743E+02  0.59301956611E+02  0.50000022948E+02 0.  0.
         12    1    1    2    0    0 -0.16084262187E+02 -0.20678216880E+01  0.27454332743E+02  0.31886043389E+02  0.00000000000E+00 0. -1.
         11    1    3    3    0    0 -0.15760134808E+02 -0.22411671506E+01 -0.98190137956E+01  0.18703414436E+02  0.51100000000E-03 0. -1.
        -11    1    3    3    0    0  0.23301248076E+02  0.91554667445E+01 -0.17894361036E+02  0.30773022120E+02  0.51100000000E-03 0.  1.
        -12    1    3    3    0    0  0.85431489194E+01 -0.48464779060E+01  0.25904208831E+00  0.98255200552E+01  0.00000000000E+00 0.  1.
</event>
<event>
 7    1  0.7674040E-012  0.5930195E+02  0.7816164E-02  0.1266605E+00
        -11   -1    0    0    0    0  0.00000000000E+00  0.00000000000E+00  0.45593999997E+02  0.45594000000E+02  0.51100000000E-03 0. -1.
         11   -1    0    0    0    0 -0.00000000000E+00 -0.00000000000E+00 -0.45593999997E+02  0.45594000000E+02  0.51100000000E-03 0.  1.
    9900012    2    1    2    0    0  0.79263395231E+01 -0.29300753077E+02  0.97652042050E+01  0.59301949723E+02  0.50000010387E+02 0.  0.
         12    1    1    2    0    0 -0.79263395231E+01  0.29300753077E+02 -0.97652042050E+01  0.31886050277E+02  0.00000000000E+00 0. -1.
         11    1    3    3    0    0  0.20590727623E+02 -0.54861494617E+01  0.14958475270E+02  0.26035204678E+02  0.51100000000E-03 0. -1.
        -11    1    3    3    0    0 -0.43969559719E+00 -0.16023183326E+02 -0.88583308260E+01  0.18314086420E+02  0.51100000000E-03 0.  1.
         12    1    3    3    0    0 -0.12224692503E+02 -0.77914202896E+01  0.36650597615E+01  0.14952658626E+02  0.00000000000E+00 0. -1.
</event>
<event>
 7    1  0.7674040E-012  0.5930207E+02  0.7816164E-02  0.1266604E+00
        -11   -1    0    0    0    0  0.00000000000E+00  0.00000000000E+00  0.45593999997E+02  0.45594000000E+02  0.51100000000E-03 0. -1.
         11   -1    0    0    0    0 -0.00000000000E+00 -0.00000000000E+00 -0.45593999997E+02  0.45594000000E+02  0.51100000000E-03 0.  1.
    9900012    2    1    2    0    0 -0.24831752165E+02 -0.12826683159E+02 -0.15348390112E+02  0.59302065868E+02  0.50000222208E+02 0.  0.
         12    1    1    2    0    0  0.24831752165E+02  0.12826683159E+02  0.15348390112E+02  0.31885934132E+02  0.00000000000E+00 0. -1.
         11    1    3    3    0    0 -0.14883998748E+02 -0.66611229124E+01  0.15028159463E+02  0.22175426812E+02  0.51100000000E-03 0. -1.
        -11    1    3    3    0    0  0.12712573491E+01 -0.80519230919E+01 -0.56789110578E+01  0.99347668211E+01  0.51100000000E-03 0.  1.
         12    1    3    3    0    0 -0.11219010765E+02  0.18863628455E+01 -0.24697638517E+02  0.27191872235E+02  0.00000000000E+00 0. -1.
</event>
<event>
 7    1  0.7674040E-012  0.5930195E+02  0.7816164E-02  0.1266605E+00
        -11   -1    0    0    0    0  0.00000000000E+00  0.00000000000E+00  0.45593999997E+02  0.45594000000E+02  0.51100000000E-03 0.  1.
         11   -1    0    0    0    0 -0.00000000000E+00 -0.00000000000E+00 -0.45593999997E+02  0.45594000000E+02  0.51100000000E-03 0. -1.
    9900012    2    1    2    0    0 -0.10099202588E+02 -0.28878619489E+02  0.89862037534E+01  0.59301946397E+02  0.50000004320E+02 0.  0.
         12    1    1    2    0    0  0.10099202588E+02  0.28878619489E+02 -0.89862037534E+01  0.31886053603E+02  0.00000000000E+00 0. -1.
         11    1    3    3    0    0 -0.21517923363E+02 -0.14451036426E+02  0.12140660154E+02  0.28622527997E+02  0.51100000000E-03 0. -1.
        -11    1    3    3    0    0  0.14522217551E+02 -0.14162202914E+01  0.44981484027E+01  0.15268720373E+02  0.51100000000E-03 0.  1.
         12    1    3    3    0    0 -0.31034967761E+01 -0.13011362771E+02 -0.76526048038E+01  0.15410698027E+02  0.00000000000E+00 0. -1.
</event>
<event>
 7    1  0.7674040E-012  0.5930196E+02  0.7816164E-02  0.1266605E+00
        -11   -1    0    0    0    0  0.00000000000E+00  0.00000000000E+00  0.45593999997E+02  0.45594000000E+02  0.51100000000E-03 0.  1.
         11   -1    0    0    0    0 -0.00000000000E+00 -0.00000000000E+00 -0.45593999997E+02  0.45594000000E+02  0.51100000000E-03 0. -1.
    9900012    2    1    2    0    0 -0.17452755487E+00 -0.29073931929E+02  0.13091808972E+02  0.59301961679E+02  0.50000032191E+02 0.  0.
         12    1    1    2    0    0  0.17452755487E+00  0.29073931929E+02 -0.13091808972E+02  0.31886038321E+02  0.00000000000E+00 0. -1.
         11    1    3    3    0    0  0.42331637026E+00  0.68920003216E+01 -0.68433343447E+01  0.97216300277E+01  0.51100000000E-03 0. -1.
        -11    1    3    3    0    0 -0.25126400077E+01 -0.39656939661E+02  0.21448278402E+02  0.45155452271E+02  0.51100000000E-03 0.  1.
        -12    1    3    3    0    0  0.19147960826E+01  0.36910074110E+01 -0.15131350853E+01  0.44248793805E+01  0.00000000000E+00 0.  1.
</event>
<event>
 7    1  0.7674040E-012  0.5930196E+02  0.7816164E-02  0.1266605E+00
        -11   -1    0    0    0    0  0.00000000000E+00  0.00000000000E+00  0.45593999997E+02  0.45594000000E+02  0.51100000000E-03 0. -1.
         11   -1    0    0    0    0 -0.00000000000E+00 -0.00000000000E+00 -0.45593999997E+02  0.45594000000E+02  0.51100000000E-03 0.  1.
    9900012    2    1    2    0    0 -0.92667768794E+00 -0.26463860147E+02 -0.17763023890E+02  0.59301958491E+02  0.50000026378E+02 0.  0.
         12    1    1    2    0    0  0.92667768794E+00  0.26463860147E+02  0.17763023890E+02  0.31886041509E+02  0.00000000000E+00 0. -1.
         11    1    3    3    0    0  0.80628635847E+01 -0.18594525366E+02  0.97584364545E+01  0.22494293166E+02  0.51100000000E-03 0. -1.
        -11    1    3    3    0    0 -0.11155007257E+02  0.40231578591E+01 -0.99495639437E+01  0.15479464106E+02  0.51100000000E-03 0.  1.
        -12    1    3    3    0    0  0.21654659845E+01 -0.11892492640E+02 -0.17571896401E+02  0.21328201219E+02  0.00000000000E+00 0.  1.
</event>
<event>
 7    1  0.7674040E-012  0.5930192E+02  0.7816164E-02  0.1266605E+00
        -11   -1    0    0    0    0  0.00000000000E+00  0.00000000000E+00  0.45593999997E+02  0.45594000000E+02  0.51100000000E-03 0.  1.
         11   -1    0    0    0    0 -0.00000000000E+00 -0.00000000000E+00 -0.45593999997E+02  0.45594000000E+02  0.51100000000E-03 0. -1.
    9900012    2    1    2    0    0  0.81809360909E+01 -0.20838797177E+02  0.22705476786E+02  0.59301923741E+02  0.49999963002E+02 0.  0.
         12    1    1    2    0    0 -0.81809360909E+01  0.20838797177E+02 -0.22705476786E+02  0.31886076259E+02  0.00000000000E+00 0. -1.
         11    1    3    3    0    0 -0.15567852838E+02 -0.20659781814E+01  0.75596837638E+00  0.15722525124E+02  0.51100000000E-03 0. -1.
        -11    1    3    3    0    0  0.13636545652E+02 -0.22274482649E+02  0.19519781254E+02  0.32605671517E+02  0.51100000000E-03 0.  1.
         12    1    3    3    0    0  0.10112243276E+02  0.35016636533E+01  0.24297271559E+01  0.10973727100E+02  0.00000000000E+00 0. -1.
</event>
<event>
 7    1  0.7674040E-012  0.5930195E+02  0.7816164E-02  0.1266605E+00
        -11   -1    0    0    0    0  0.00000000000E+00  0.00000000000E+00  0.45593999997E+02  0.45594000000E+02  0.51100000000E-03 0.  1.
         11   -1    0    0    0    0 -0.00000000000E+00 -0.00000000000E+00 -0.45593999997E+02  0.45594000000E+02  0.51100000000E-03 0. -1.
    9900012    2    1    2    0    0 -0.27276015114E+02  0.15971332761E+02  0.42018744876E+01  0.59301949447E+02  0.50000009884E+02 0.  0.
         12    1    1    2    0    0  0.27276015114E+02 -0.15971332761E+02 -0.42018744876E+01  0.31886050553E+02  0.00000000000E+00 0. -1.
         11    1    3    3    0    0 -0.37179347066E+01 -0.20390257821E+01 -0.85173949814E+01  0.95145510747E+01  0.51100000000E-03 0. -1.
        -11    1    3    3    0    0 -0.45982336964E+01 -0.98374132496E+01  0.11869408452E+02  0.16087302752E+02  0.51100000000E-03 0.  1.
        -12    1    3    3    0    0 -0.18959846711E+02  0.27847771792E+02  0.84986101690E+00  0.33700095621E+02  0.00000000000E+00 0.  1.
</event>
<event>
 7    1  0.7674040E-012  0.5930194E+02  0.7816164E-02  0.1266605E+00
        -11   -1    0    0    0    0  0.00000000000E+00  0.00000000000E+00  0.45593999997E+02  0.45594000000E+02  0.51100000000E-03 0. -1.
         11   -1    0    0    0    0 -0.00000000000E+00 -0.00000000000E+00 -0.45593999997E+02  0.45594000000E+02  0.51100000000E-03 0.  1.
    9900012    2    1    2    0    0 -0.16526861755E+02 -0.22814494918E+02 -0.14935943877E+02  0.59301941019E+02  0.49999994514E+02 0.  0.
         12    1    1    2    0    0  0.16526861755E+02  0.22814494918E+02  0.14935943877E+02  0.31886058981E+02  0.00000000000E+00 0. -1.
         11    1    3    3    0    0  0.86092526753E+01 -0.14354805664E+02 -0.22088668588E+01  0.16883683554E+02  0.51100000000E-03 0. -1.
        -11    1    3    3    0    0 -0.50112895801E+01 -0.20728787583E+01 -0.19503557681E+02  0.20243483200E+02  0.51100000000E-03 0.  1.
        -12    1    3    3    0    0 -0.20124824850E+02 -0.63868104957E+01  0.67764806632E+01  0.22174774266E+02  0.00000000000E+00 0.  1.
</event>
<event>
 7    1  0.7674040E-012  0.5930196E+02  0.7816164E-02  0.1266605E+00
        -11   -1    0    0    0    0  0.00000000000E+00  0.00000000000E+00  0.45593999997E+02  0.45594000000E+02  0.51100000000E-03 0.  1.
         11   -1    0    0    0    0 -0.00000000000E+00 -0.00000000000E+00 -0.45593999997E+02  0.45594000000E+02  0.51100000000E-03 0. -1.
    9900012    2    1    2    0    0 -0.18700621195E+02  0.22933619944E+02  0.11876673335E+02  0.59301960323E+02  0.50000029719E+02 0.  0.
         12    1    1    2    0    0  0.18700621195E+02 -0.22933619944E+02 -0.11876673335E+02  0.31886039677E+02  0.00000000000E+00 0. -1.
         11    1    3    3    0    0 -0.11130824937E+00 -0.18372894412E+01  0.16242610428E+02  0.16346571989E+02  0.51100000000E-03 0. -1.
        -11    1    3    3    0    0 -0.16965454738E+02  0.27419287011E+02 -0.12241622424E+02  0.34489147199E+02  0.51100000000E-03 0.  1.
        -12    1    3    3    0    0 -0.16238582071E+01 -0.26483776262E+01  0.78756853314E+01  0.84662411356E+01  0.00000000000E+00 0.  1.
</event>
<event>
 7    1  0.7674040E-012  0.5930195E+02  0.7816164E-02  0.1266605E+00
        -11   -1    0    0    0    0  0.00000000000E+00  0.00000000000E+00  0.45593999997E+02  0.45594000000E+02  0.51100000000E-03 0.  1.
         11   -1    0    0    0    0 -0.00000000000E+00 -0.00000000000E+00 -0.45593999997E+02  0.45594000000E+02  0.51100000000E-03 0. -1.
    9900012    2    1    2    0    0 -0.31677926635E+02  0.35945206482E+01 -0.55526530227E+00  0.59301953928E+02  0.50000018055E+02 0.  0.
         12    1    1    2    0    0  0.31677926635E+02 -0.35945206482E+01  0.55526530227E+00  0.31886046072E+02  0.00000000000E+00 0. -1.
         11    1    3    3    0    0  0.49422513507E+01 -0.44823388053E+01 -0.59681408142E+01  0.89518665438E+01  0.51100000000E-03 0. -1.
        -11    1    3    3    0    0 -0.27627990283E+02  0.10953219166E+02  0.17901095070E+02  0.34694784365E+02  0.51100000000E-03 0.  1.
         12    1    3    3    0    0 -0.89921877029E+01 -0.28763597128E+01 -0.12488219558E+02  0.15655303019E+02  0.00000000000E+00 0. -1.
</event>
<event>
 7    1  0.7749346E-012  0.5930194E+02  0.7816164E-02  0.1266605E+00
        -11   -1    0    0    0    0  0.00000000000E+00  0.00000000000E+00  0.45593999997E+02  0.45594000000E+02  0.51100000000E-03 0.  1.
         11   -1    0    0    0    0 -0.00000000000E+00 -0.00000000000E+00 -0.45593999997E+02  0.45594000000E+02  0.51100000000E-03 0. -1.
    9900012    2    1    2    0    0  0.93322714204E+01 -0.29596579292E+02  0.73261173867E+01  0.59301940482E+02  0.49999993533E+02 0.  0.
         12    1    1    2    0    0 -0.93322714204E+01  0.29596579292E+02 -0.73261173867E+01  0.31886059518E+02  0.00000000000E+00 0. -1.
         11    1    3    3    0    0 -0.47133375245E+01  0.56901188844E+01 -0.51634640555E+01  0.90141203038E+01  0.51100000000E-03 0. -1.
        -11    1    3    3    0    0 -0.25181279938E+01 -0.30728001496E+02  0.12051229326E+02  0.33102615804E+02  0.51100000000E-03 0.  1.
        -12    1    3    3    0    0  0.16563736939E+02 -0.45586966799E+01  0.43835211598E+00  0.17185204374E+02  0.00000000000E+00 0.  1.
</event>
<event>
 7    1  0.7674040E-012  0.5930188E+02  0.7816164E-02  0.1266605E+00
        -11   -1    0    0    0    0  0.00000000000E+00  0.00000000000E+00  0.45593999997E+02  0.45594000000E+02  0.51100000000E-03 0. -1.
         11   -1    0    0    0    0 -0.00000000000E+00 -0.00000000000E+00 -0.45593999997E+02  0.45594000000E+02  0.51100000000E-03 0.  1.
    9900012    2    1    2    0    0 -0.22746941777E+02  0.96327100211E+01 -0.20162140941E+02  0.59301884058E+02  0.49999890629E+02 0.  0.
         12    1    1    2    0    0  0.22746941777E+02 -0.96327100211E+01  0.20162140941E+02  0.31886115942E+02  0.00000000000E+00 0. -1.
         11    1    3    3    0    0 -0.43519505999E+01 -0.70219080146E+01 -0.20942210028E+02  0.22512725897E+02  0.51100000000E-03 0. -1.
        -11    1    3    3    0    0 -0.25061418970E+01  0.20212991108E+02 -0.11065082983E+01  0.20397796882E+02  0.51100000000E-03 0.  1.
        -12    1    3    3    0    0 -0.15888849280E+02 -0.35583730724E+01  0.18865773850E+01  0.16391361279E+02  0.00000000000E+00 0.  1.
</event>
<event>
 7    1  0.7674040E-012  0.5930200E+02  0.7816164E-02  0.1266605E+00
        -11   -1    0    0    0    0  0.00000000000E+00  0.00000000000E+00  0.45593999997E+02  0.45594000000E+02  0.51100000000E-03 0.  1.
         11   -1    0    0    0    0 -0.00000000000E+00 -0.00000000000E+00 -0.45593999997E+02  0.45594000000E+02  0.51100000000E-03 0. -1.
    9900012    2    1    2    0    0  0.34088384861E+01  0.24836695564E+02  0.19703695810E+02  0.59301995940E+02  0.50000094675E+02 0.  0.
         12    1    1    2    0    0 -0.34088384861E+01 -0.24836695564E+02 -0.19703695810E+02  0.31886004060E+02  0.00000000000E+00 0. -1.
         11    1    3    3    0    0  0.35445098444E+01  0.40103056110E+01 -0.43454850329E+01  0.68941527081E+01  0.51100000000E-03 0. -1.
        -11    1    3    3    0    0 -0.15933678837E+02 -0.41261401605E+01  0.12618963212E+02  0.20739946642E+02  0.51100000000E-03 0.  1.
        -12    1    3    3    0    0  0.15798007479E+02  0.24952530113E+02  0.11430217631E+02  0.31667896590E+02  0.00000000000E+00 0.  1.
</event>
<event>
 7    1  0.7674040E-012  0.5930195E+02  0.7816164E-02  0.1266605E+00
        -11   -1    0    0    0    0  0.00000000000E+00  0.00000000000E+00  0.45593999997E+02  0.45594000000E+02  0.51100000000E-03 0.  1.
         11   -1    0    0    0    0 -0.00000000000E+00 -0.00000000000E+00 -0.45593999997E+02  0.45594000000E+02  0.51100000000E-03 0. -1.
    9900012    2    1    2    0    0 -0.45326148740E+01 -0.83642492919E+01  0.30433776906E+02  0.59301952259E+02  0.50000015011E+02 0.  0.
         12    1    1    2    0    0  0.45326148740E+01  0.83642492919E+01 -0.30433776906E+02  0.31886047741E+02  0.00000000000E+00 0. -1.
         11    1    3    3    0    0 -0.20998614504E+02 -0.11233729958E+02  0.24690800364E+02  0.34304141480E+02  0.51100000000E-03 0. -1.
        -11    1    3    3    0    0  0.97563871344E+01  0.10245171506E+02  0.17428556543E+01  0.14254408974E+02  0.51100000000E-03 0.  1.
         12    1    3    3    0    0  0.67096124952E+01 -0.73756908401E+01  0.40001208879E+01  0.10743401804E+02  0.00000000000E+00 0. -1.
</event>
<event>
 7    1  0.7674040E-012  0.5930197E+02  0.7816164E-02  0.1266605E+00
        -11   -1    0    0    0    0  0.00000000000E+00  0.00000000000E+00  0.45593999997E+02  0.45594000000E+02  0.51100000000E-03 0.  1.
         11   -1    0    0    0    0 -0.00000000000E+00 -0.00000000000E+00 -0.45593999997E+02  0.45594000000E+02  0.51100000000E-03 0. -1.
    9900012    2    1    2    0    0 -0.35232312619E+01  0.25275314055E+02  0.19117127304E+02  0.59301965197E+02  0.50000038608E+02 0.  0.
         12    1    1    2    0    0  0.35232312619E+01 -0.25275314055E+02 -0.19117127304E+02  0.31886034803E+02  0.00000000000E+00 0. -1.
         11    1    3    3    0    0 -0.21975272519E+02  0.22936845800E+02  0.23936967589E+02  0.39774236827E+02  0.51100000000E-03 0. -1.
        -11    1    3    3    0    0  0.10734767126E+02  0.70717646403E+00 -0.11227108118E+01  0.10816459847E+02  0.51100000000E-03 0.  1.
         12    1    3    3    0    0  0.77172741313E+01  0.16312917908E+01 -0.36971294736E+01  0.87112685223E+01  0.00000000000E+00 0. -1.
</event>
<event>
 7    1  0.7674040E-012  0.5930192E+02  0.7816164E-02  0.1266605E+00
        -11   -1    0    0    0    0  0.00000000000E+00  0.00000000000E+00  0.45593999997E+02  0.45594000000E+02  0.51100000000E-03 0.  1.
         11   -1    0    0    0    0 -0.00000000000E+00 -0.00000000000E+00 -0.45593999997E+02  0.45594000000E+02  0.51100000000E-03 0. -1.
    9900012    2    1    2    0    0  0.13601412160E+02 -0.28753397221E+02  0.22283666602E+01  0.59301923376E+02  0.49999962336E+02 0.  0.
         12    1    1    2    0    0 -0.13601412160E+02  0.28753397221E+02 -0.22283666602E+01  0.31886076624E+02  0.00000000000E+00 0. -1.
         11    1    3    3    0    0 -0.44889445145E+00  0.80993472491E+01 -0.57324432531E+01  0.99328665551E+01  0.51100000000E-03 0. -1.
        -11    1    3    3    0    0  0.26066200184E+01 -0.31968756384E+02  0.14628009693E+02  0.35253007254E+02  0.51100000000E-03 0.  1.
         12    1    3    3    0    0  0.11443686593E+02 -0.48839880869E+01 -0.66671997794E+01  0.14116049567E+02  0.00000000000E+00 0. -1.
</event>
<event>
 7    1  0.7674040E-012  0.5930184E+02  0.7816164E-02  0.1266605E+00
        -11   -1    0    0    0    0  0.00000000000E+00  0.00000000000E+00  0.45593999997E+02  0.45594000000E+02  0.51100000000E-03 0.  1.
         11   -1    0    0    0    0 -0.00000000000E+00 -0.00000000000E+00 -0.45593999997E+02  0.45594000000E+02  0.51100000000E-03 0. -1.
    9900012    2    1    2    0    0 -0.12351974971E+02 -0.24354758832E+02  0.16462122979E+02  0.59301842244E+02  0.49999814371E+02 0.  0.
         12    1    1    2    0    0  0.12351974971E+02  0.24354758832E+02 -0.16462122979E+02  0.31886157756E+02  0.00000000000E+00 0. -1.
         11    1    3    3    0    0 -0.49150116016E+01  0.66607713508E+01 -0.23607925712E+01  0.86079356327E+01  0.51100000000E-03 0. -1.
        -11    1    3    3    0    0 -0.10591442276E+02 -0.24947121851E+02 -0.35178454169E+01  0.27329704989E+02  0.51100000000E-03 0.  1.
        -12    1    3    3    0    0  0.31544789069E+01 -0.60684083318E+01  0.22340760967E+02  0.23364201622E+02  0.00000000000E+00 0.  1.
</event>
<event>
 7    1  0.7674040E-012  0.5930196E+02  0.7816164E-02  0.1266605E+00
        -11   -1    0    0    0    0  0.00000000000E+00  0.00000000000E+00  0.45593999997E+02  0.45594000000E+02  0.51100000000E-03 0.  1.
         11   -1    0    0    0    0 -0.00000000000E+00 -0.00000000000E+00 -0.45593999997E+02  0.45594000000E+02  0.51100000000E-03 0. -1.
    9900012    2    1    2    0    0  0.23551393886E+02  0.18828168045E+02 -0.10370715746E+02  0.59301955859E+02  0.50000021577E+02 0.  0.
         12    1    1    2    0    0 -0.23551393886E+02 -0.18828168045E+02  0.10370715746E+02  0.31886044141E+02  0.00000000000E+00 0. -1.
         11    1    3    3    0    0 -0.85869738318E+00 -0.11534231230E+02  0.79610393429E+01  0.14041153761E+02  0.51100000000E-03 0. -1.
        -11    1    3    3    0    0  0.11044769225E+01  0.82681694276E+01 -0.12033448616E+00  0.83424801831E+01  0.51100000000E-03 0.  1.
         12    1    3    3    0    0  0.23305614347E+02  0.22094229847E+02 -0.18211420603E+02  0.36918321915E+02  0.00000000000E+00 0. -1.
</event>
<event>
 7    1  0.7674040E-012  0.5930199E+02  0.7816164E-02  0.1266605E+00
        -11   -1    0    0    0    0  0.00000000000E+00  0.00000000000E+00  0.45593999997E+02  0.45594000000E+02  0.51100000000E-03 0.  1.
         11   -1    0    0    0    0 -0.00000000000E+00 -0.00000000000E+00 -0.45593999997E+02  0.45594000000E+02  0.51100000000E-03 0. -1.
    9900012    2    1    2    0    0  0.83613398049E+01 -0.51333341324E+01  0.30338989628E+02  0.59301993441E+02  0.50000090117E+02 0.  0.
         12    1    1    2    0    0 -0.83613398049E+01  0.51333341324E+01 -0.30338989628E+02  0.31886006559E+02  0.00000000000E+00 0. -1.
         11    1    3    3    0    0  0.31936896121E+01 -0.18492247279E+02 -0.15103212312E+01  0.18826681419E+02  0.51100000000E-03 0. -1.
        -11    1    3    3    0    0 -0.51696503816E+01  0.35032084084E+01  0.22629438698E+02  0.23475290206E+02  0.51100000000E-03 0.  1.
         12    1    3    3    0    0  0.10337300574E+02  0.98557047383E+01  0.92198721615E+01  0.17000021815E+02  0.00000000000E+00 0. -1.
</event>
<event>
 7    1  0.7674040E-012  0.5930197E+02  0.7816164E-02  0.1266605E+00
        -11   -1    0    0    0    0  0.00000000000E+00  0.00000000000E+00  0.45593999997E+02  0.45594000000E+02  0.51100000000E-03 0.  1.
         11   -1    0    0    0    0 -0.00000000000E+00 -0.00000000000E+00 -0.45593999997E+02  0.45594000000E+02  0.51100000000E-03 0. -1.
    9900012    2    1    2    0    0 -0.70100566700E+01 -0.43498816664E+01  0.30800272893E+02  0.59301965827E+02  0.50000039756E+02 0.  0.
         12    1    1    2    0    0  0.70100566700E+01  0.43498816664E+01 -0.30800272893E+02  0.31886034173E+02  0.00000000000E+00 0. -1.
         11    1    3    3    0    0 -0.12186756747E+02 -0.23443037187E+01 -0.40524761449E+01  0.13055089548E+02  0.51100000000E-03 0. -1.
        -11    1    3    3    0    0  0.64493495905E+01  0.12029984798E+02  0.26645223518E+02  0.29937978906E+02  0.51100000000E-03 0.  1.
         12    1    3    3    0    0 -0.12726495137E+01 -0.14035562746E+02  0.82075255200E+01  0.16308897373E+02  0.00000000000E+00 0. -1.
</event>
<event>
 7    1  0.7674040E-012  0.5930195E+02  0.7816164E-02  0.1266605E+00
        -11   -1    0    0    0    0  0.00000000000E+00  0.00000000000E+00  0.45593999997E+02  0.45594000000E+02  0.51100000000E-03 0.  1.
         11   -1    0    0    0    0 -0.00000000000E+00 -0.00000000000E+00 -0.45593999997E+02  0.45594000000E+02  0.51100000000E-03 0. -1.
    9900012    2    1    2    0    0  0.98152967892E+00  0.87154526099E+00  0.31859020817E+02  0.59301949773E+02  0.50000010478E+02 0.  0.
         12    1    1    2    0    0 -0.98152967892E+00 -0.87154526099E+00 -0.31859020817E+02  0.31886050227E+02  0.00000000000E+00 0. -1.
         11    1    3    3    0    0  0.16138821933E+02  0.10673885621E+02  0.29046380376E+02  0.34901083376E+02  0.51100000000E-03 0. -1.
        -11    1    3    3    0    0 -0.11908285609E+02  0.60459087121E+00 -0.26379890145E+01  0.12211952447E+02  0.51100000000E-03 0.  1.
        -12    1    3    3    0    0 -0.32490066452E+01 -0.10406931231E+02  0.54506294559E+01  0.12188913950E+02  0.00000000000E+00 0.  1.
</event>
<event>
 7    1  0.7674040E-012  0.5930193E+02  0.7816164E-02  0.1266605E+00
        -11   -1    0    0    0    0  0.00000000000E+00  0.00000000000E+00  0.45593999997E+02  0.45594000000E+02  0.51100000000E-03 0. -1.
         11   -1    0    0    0    0 -0.00000000000E+00 -0.00000000000E+00 -0.45593999997E+02  0.45594000000E+02  0.51100000000E-03 0.  1.
    9900012    2    1    2    0    0 -0.10069101748E+02  0.87416598812E+01 -0.28964078214E+02  0.59301933226E+02  0.49999980301E+02 0.  0.
         12    1    1    2    0    0  0.10069101748E+02 -0.87416598812E+01  0.28964078214E+02  0.31886066774E+02  0.00000000000E+00 0. -1.
         11    1    3    3    0    0  0.12747895227E+02  0.78385545194E+00 -0.28015030354E+02  0.30789043312E+02  0.51100000000E-03 0. -1.
        -11    1    3    3    0    0 -0.16406965459E+02 -0.20288672944E+01  0.61526865541E+00  0.16543378550E+02  0.51100000000E-03 0.  1.
         12    1    3    3    0    0 -0.64100315157E+01  0.99866717236E+01 -0.15643165160E+01  0.11969511365E+02  0.00000000000E+00 0. -1.
</event>
<event>
 7    1  0.7674040E-012  0.5930197E+02  0.7816164E-02  0.1266605E+00
        -11   -1    0    0    0    0  0.00000000000E+00  0.00000000000E+00  0.45593999997E+02  0.45594000000E+02  0.51100000000E-03 0.  1.
         11   -1    0    0    0    0 -0.00000000000E+00 -0.00000000000E+00 -0.45593999997E+02  0.45594000000E+02  0.51100000000E-03 0. -1.
    9900012    2    1    2    0    0  0.20527413120E+02  0.47310324161E+01  0.23936613859E+02  0.59301971082E+02  0.50000049341E+02 0.  0.
         12    1    1    2    0    0 -0.20527413120E+02 -0.47310324161E+01 -0.23936613859E+02  0.31886028918E+02  0.00000000000E+00 0. -1.
         11    1    3    3    0    0 -0.91266778080E+01 -0.48147542631E+01 -0.28050322599E+01  0.10693283531E+02  0.51100000000E-03 0. -1.
        -11    1    3    3    0    0  0.16596001724E+02  0.70210125351E+00  0.28243777701E+02  0.32766311945E+02  0.51100000000E-03 0.  1.
        -12    1    3    3    0    0  0.13058089204E+02  0.88436854257E+01 -0.15021315826E+01  0.15842375606E+02  0.00000000000E+00 0.  1.
</event>
<event>
 7    1  0.7674040E-012  0.5930193E+02  0.7816164E-02  0.1266605E+00
        -11   -1    0    0    0    0  0.00000000000E+00  0.00000000000E+00  0.45593999997E+02  0.45594000000E+02  0.51100000000E-03 0.  1.
         11   -1    0    0    0    0 -0.00000000000E+00 -0.00000000000E+00 -0.45593999997E+02  0.45594000000E+02  0.51100000000E-03 0. -1.
    9900012    2    1    2    0    0  0.29268341975E+02 -0.35836222800E+01  0.12134371410E+02  0.59301934702E+02  0.49999982993E+02 0.  0.
         12    1    1    2    0    0 -0.29268341975E+02  0.35836222800E+01 -0.12134371410E+02  0.31886065298E+02  0.00000000000E+00 0. -1.
         11    1    3    3    0    0 -0.85596332227E+01 -0.14067877931E+02  0.11312583900E+01  0.16506127838E+02  0.51100000000E-03 0. -1.
        -11    1    3    3    0    0  0.30150729850E+02  0.24638493692E+01  0.78077796449E+01  0.31242574917E+02  0.51100000000E-03 0.  1.
         12    1    3    3    0    0  0.76772453480E+01  0.80204062816E+01  0.31953333753E+01  0.11553231948E+02  0.00000000000E+00 0. -1.
</event>
<event>
 7    1  0.7674040E-012  0.5930198E+02  0.7816164E-02  0.1266605E+00
        -11   -1    0    0    0    0  0.00000000000E+00  0.00000000000E+00  0.45593999997E+02  0.45594000000E+02  0.51100000000E-03 0.  1.
         11   -1    0    0    0    0 -0.00000000000E+00 -0.00000000000E+00 -0.45593999997E+02  0.45594000000E+02  0.51100000000E-03 0. -1.
    9900012    2    1    2    0    0  0.27105259896E+02 -0.68824481905E+01  0.15318453611E+02  0.59301980679E+02  0.50000066842E+02 0.  0.
         12    1    1    2    0    0 -0.27105259896E+02  0.68824481905E+01 -0.15318453611E+02  0.31886019321E+02  0.00000000000E+00 0. -1.
         11    1    3    3    0    0  0.87051109576E+01  0.19850316506E+01  0.13900596752E+01  0.90361260283E+01  0.51100000000E-03 0. -1.
        -11    1    3    3    0    0 -0.75517693372E+01  0.46375816180E+01  0.18634234916E+02  0.20634221443E+02  0.51100000000E-03 0.  1.
        -12    1    3    3    0    0  0.25951918276E+02 -0.13505061459E+02 -0.47058409801E+01  0.29631633207E+02  0.00000000000E+00 0.  1.
</event>
<event>
 7    1  0.7674040E-012  0.5930196E+02  0.7816164E-02  0.1266605E+00
        -11   -1    0    0    0    0  0.00000000000E+00  0.00000000000E+00  0.45593999997E+02  0.45594000000E+02  0.51100000000E-03 0.  1.
         11   -1    0    0    0    0 -0.00000000000E+00 -0.00000000000E+00 -0.45593999997E+02  0.45594000000E+02  0.51100000000E-03 0. -1.
    9900012    2    1    2    0    0  0.72792184877E+01 -0.73849890401E+01  0.30152856042E+02  0.59301955836E+02  0.50000021536E+02 0.  0.
         12    1    1    2    0    0 -0.72792184877E+01  0.73849890401E+01 -0.30152856042E+02  0.31886044164E+02  0.00000000000E+00 0. -1.
         11    1    3    3    0    0  0.64339505818E+01 -0.73307835194E+01 -0.10273625229E+02  0.14166279776E+02  0.51100000000E-03 0. -1.
        -11    1    3    3    0    0  0.18657736060E+01  0.70620743524E+01  0.35910534121E+02  0.36645879256E+02  0.51100000000E-03 0.  1.
        -12    1    3    3    0    0 -0.10205057001E+01 -0.71162798731E+01  0.45159471499E+01  0.84897968042E+01  0.00000000000E+00 0.  1.
</event>
<event>
 7    1  0.7674040E-012  0.5930195E+02  0.7816164E-02  0.1266605E+00
        -11   -1    0    0    0    0  0.00000000000E+00  0.00000000000E+00  0.45593999997E+02  0.45594000000E+02  0.51100000000E-03 0. -1.
         11   -1    0    0    0    0 -0.00000000000E+00 -0.00000000000E+00 -0.45593999997E+02  0.45594000000E+02  0.51100000000E-03 0.  1.
    9900012    2    1    2    0    0 -0.18704323815E+02  0.84695297550E+01 -0.24395397065E+02  0.59301951929E+02  0.50000014409E+02 0.  0.
         12    1    1    2    0    0  0.18704323815E+02 -0.84695297550E+01  0.24395397065E+02  0.31886048071E+02  0.00000000000E+00 0. -1.
         11    1    3    3    0    0 -0.39964552888E+01  0.18460761321E+02 -0.17182742836E+02  0.25534643429E+02  0.51100000000E-03 0. -1.
        -11    1    3    3    0    0 -0.21927959927E+02 -0.93378874034E+01 -0.10202575663E+02  0.25925356664E+02  0.51100000000E-03 0.  1.
         12    1    3    3    0    0  0.72200914004E+01 -0.65334416208E+00  0.29899214340E+01  0.78419518365E+01  0.00000000000E+00 0. -1.
</event>
<event>
 7    1  0.7674040E-012  0.5930181E+02  0.7816164E-02  0.1266605E+00
        -11   -1    0    0    0    0  0.00000000000E+00  0.00000000000E+00  0.45593999997E+02  0.45594000000E+02  0.51100000000E-03 0.  1.
         11   -1    0    0    0    0 -0.00000000000E+00 -0.00000000000E+00 -0.45593999997E+02  0.45594000000E+02  0.51100000000E-03 0. -1.
    9900012    2    1    2    0    0 -0.22123745723E+02  0.11230092443E+02  0.20028830014E+02  0.59301809685E+02  0.49999754991E+02 0.  0.
         12    1    1    2    0    0  0.22123745723E+02 -0.11230092443E+02 -0.20028830014E+02  0.31886190315E+02  0.00000000000E+00 0. -1.
         11    1    3    3    0    0 -0.14380431849E+02 -0.10230815674E+02 -0.10025070121E+02  0.20297005708E+02  0.51100000000E-03 0. -1.
        -11    1    3    3    0    0 -0.49004640966E+01  0.72171023575E+01  0.50267946166E+01  0.10068256015E+02  0.51100000000E-03 0.  1.
         12    1    3    3    0    0 -0.28428497774E+01  0.14243805759E+02  0.25027105518E+02  0.28936547963E+02  0.00000000000E+00 0. -1.
</event>
<event>
 7    1  0.7674040E-012  0.5930192E+02  0.7816164E-02  0.1266605E+00
        -11   -1    0    0    0    0  0.00000000000E+00  0.00000000000E+00  0.45593999997E+02  0.45594000000E+02  0.51100000000E-03 0.  1.
         11   -1    0    0    0    0 -0.00000000000E+00 -0.00000000000E+00 -0.45593999997E+02  0.45594000000E+02  0.51100000000E-03 0. -1.
    9900012    2    1    2    0    0 -0.23523953344E+02 -0.53359379376E+01  0.20853616403E+02  0.59301922604E+02  0.49999960928E+02 0.  0.
         12    1    1    2    0    0  0.23523953344E+02  0.53359379376E+01 -0.20853616403E+02  0.31886077396E+02  0.00000000000E+00 0. -1.
         11    1    3    3    0    0 -0.48760125606E+01  0.56629385020E+01 -0.11146438007E+02  0.13419666593E+02  0.51100000000E-03 0. -1.
        -11    1    3    3    0    0 -0.30980930361E+01 -0.14450456319E+02  0.23676125984E+02  0.27910084381E+02  0.51100000000E-03 0.  1.
         12    1    3    3    0    0 -0.15549847748E+02  0.34515798793E+01  0.83239284257E+01  0.17972171629E+02  0.00000000000E+00 0. -1.
</event>
<event>
 7    1  0.7674040E-012  0.5930199E+02  0.7816164E-02  0.1266605E+00
        -11   -1    0    0    0    0  0.00000000000E+00  0.00000000000E+00  0.45593999997E+02  0.45594000000E+02  0.51100000000E-03 0. -1.
         11   -1    0    0    0    0 -0.00000000000E+00 -0.00000000000E+00 -0.45593999997E+02  0.45594000000E+02  0.51100000000E-03 0.  1.
    9900012    2    1    2    0    0  0.68760099956E+01  0.13374151218E+01 -0.31107066368E+02  0.59301987853E+02  0.50000079926E+02 0.  0.
         12    1    1    2    0    0 -0.68760099956E+01 -0.13374151218E+01  0.31107066368E+02  0.31886012147E+02  0.00000000000E+00 0. -1.
         11    1    3    3    0    0  0.17124343853E+02  0.11711667262E+02 -0.12876925250E+02  0.24417647442E+02  0.51100000000E-03 0. -1.
        -11    1    3    3    0    0 -0.12662815931E+02 -0.10906441884E+02 -0.23631600537E+02  0.28943910000E+02  0.51100000000E-03 0.  1.
        -12    1    3    3    0    0  0.24144820737E+01  0.53218974299E+00  0.54014594193E+01  0.59404304108E+01  0.00000000000E+00 0.  1.
</event>
<event>
 7    1  0.7674040E-012  0.5930194E+02  0.7816164E-02  0.1266605E+00
        -11   -1    0    0    0    0  0.00000000000E+00  0.00000000000E+00  0.45593999997E+02  0.45594000000E+02  0.51100000000E-03 0.  1.
         11   -1    0    0    0    0 -0.00000000000E+00 -0.00000000000E+00 -0.45593999997E+02  0.45594000000E+02  0.51100000000E-03 0. -1.
    9900012    2    1    2    0    0 -0.30993471649E+02 -0.41566353189E+01  0.62328019450E+01  0.59301941571E+02  0.49999995520E+02 0.  0.
         12    1    1    2    0    0  0.30993471649E+02  0.41566353189E+01 -0.62328019450E+01  0.31886058429E+02  0.00000000000E+00 0. -1.
         11    1    3    3    0    0 -0.49360734565E+00  0.80246617523E+01 -0.58249824945E+01  0.99282055666E+01  0.51100000000E-03 0. -1.
        -11    1    3    3    0    0  0.13522588359E+01 -0.15745146873E+02  0.32371118354E+01  0.16131247544E+02  0.51100000000E-03 0.  1.
        -12    1    3    3    0    0 -0.31852123139E+02  0.35638498023E+01  0.88206726041E+01  0.33242488461E+02  0.00000000000E+00 0.  1.
</event>
<event>
 7    1  0.7674040E-012  0.5930193E+02  0.7816164E-02  0.1266605E+00
        -11   -1    0    0    0    0  0.00000000000E+00  0.00000000000E+00  0.45593999997E+02  0.45594000000E+02  0.51100000000E-03 0. -1.
         11   -1    0    0    0    0 -0.00000000000E+00 -0.00000000000E+00 -0.45593999997E+02  0.45594000000E+02  0.51100000000E-03 0.  1.
    9900012    2    1    2    0    0 -0.40481529639E+01 -0.23434955833E+02  0.21239978947E+02  0.59301930895E+02  0.49999976049E+02 0.  0.
         12    1    1    2    0    0  0.40481529639E+01  0.23434955833E+02 -0.21239978947E+02  0.31886069105E+02  0.00000000000E+00 0. -1.
         11    1    3    3    0    0  0.61772201459E+01 -0.16502235623E+02  0.23443202764E+02  0.29326874797E+02  0.51100000000E-03 0. -1.
        -11    1    3    3    0    0  0.30004136657E+01  0.39571138076E+01 -0.99900941723E+01  0.11156308246E+02  0.51100000000E-03 0.  1.
         12    1    3    3    0    0 -0.13225786776E+02 -0.10889834018E+02  0.77868703552E+01  0.18818747851E+02  0.00000000000E+00 0. -1.
</event>
<event>
 7    1  0.7674040E-012  0.5930158E+02  0.7816164E-02  0.1266606E+00
        -11   -1    0    0    0    0  0.00000000000E+00  0.00000000000E+00  0.45593999997E+02  0.45594000000E+02  0.51100000000E-03 0.  1.
         11   -1    0    0    0    0 -0.00000000000E+00 -0.00000000000E+00 -0.45593999997E+02  0.45594000000E+02  0.51100000000E-03 0. -1.
    9900012    2    1    2    0    0 -0.22200200573E+02  0.11485510699E+02  0.19798434014E+02  0.59301578895E+02  0.49999334080E+02 0.  0.
         12    1    1    2    0    0  0.22200200573E+02 -0.11485510699E+02 -0.19798434014E+02  0.31886421105E+02  0.00000000000E+00 0. -1.
         11    1    3    3    0    0 -0.18437530058E+02  0.13193368993E+02 -0.69854936029E+01  0.23723503560E+02  0.51100000000E-03 0. -1.
        -11    1    3    3    0    0  0.34045137959E+01  0.70700100784E+01  0.21853690235E+02  0.23219809083E+02  0.51100000000E-03 0.  1.
         12    1    3    3    0    0 -0.71671843113E+01 -0.87778683724E+01  0.49302373821E+01  0.12358266252E+02  0.00000000000E+00 0. -1.
</event>
<event>
 7    1  0.7674040E-012  0.5930197E+02  0.7816164E-02  0.1266605E+00
        -11   -1    0    0    0    0  0.00000000000E+00  0.00000000000E+00  0.45593999997E+02  0.45594000000E+02  0.51100000000E-03 0. -1.
         11   -1    0    0    0    0 -0.00000000000E+00 -0.00000000000E+00 -0.45593999997E+02  0.45594000000E+02  0.51100000000E-03 0.  1.
    9900012    2    1    2    0    0 -0.11268584522E+02 -0.18646741318E+02 -0.23281692197E+02  0.59301966216E+02  0.50000040465E+02 0.  0.
         12    1    1    2    0    0  0.11268584522E+02  0.18646741318E+02  0.23281692197E+02  0.31886033784E+02  0.00000000000E+00 0. -1.
         11    1    3    3    0    0  0.13526973387E+02 -0.66523249597E+01 -0.12354954979E+02  0.19490442508E+02  0.51100000000E-03 0. -1.
        -11    1    3    3    0    0 -0.10232196468E+02 -0.10440840291E+02 -0.18293560653E+02  0.23417159353E+02  0.51100000000E-03 0.  1.
         12    1    3    3    0    0 -0.14563361441E+02 -0.15535760679E+01  0.73668234348E+01  0.16394364354E+02  0.00000000000E+00 0. -1.
</event>
<event>
 7    1  0.7674040E-012  0.5930196E+02  0.7816164E-02  0.1266605E+00
        -11   -1    0    0    0    0  0.00000000000E+00  0.00000000000E+00  0.45593999997E+02  0.45594000000E+02  0.51100000000E-03 0.  1.
         11   -1    0    0    0    0 -0.00000000000E+00 -0.00000000000E+00 -0.45593999997E+02  0.45594000000E+02  0.51100000000E-03 0. -1.
    9900012    2    1    2    0    0 -0.77161262147E+01 -0.48724270452E+01  0.30552261929E+02  0.59301955121E+02  0.50000020232E+02 0.  0.
         12    1    1    2    0    0  0.77161262147E+01  0.48724270452E+01 -0.30552261929E+02  0.31886044879E+02  0.00000000000E+00 0. -1.
         11    1    3    3    0    0  0.58858148950E+00  0.37148051761E+01 -0.63131686696E+01  0.73486260333E+01  0.51100000000E-03 0. -1.
        -11    1    3    3    0    0  0.17610986044E+01 -0.18003777353E+02  0.33008079764E+02  0.37640015903E+02  0.51100000000E-03 0.  1.
         12    1    3    3    0    0 -0.10065806309E+02  0.94165451313E+01  0.38573508343E+01  0.14313313184E+02  0.00000000000E+00 0. -1.
</event>
<event>
 7    1  0.7674040E-012  0.5930194E+02  0.7816164E-02  0.1266605E+00
        -11   -1    0    0    0    0  0.00000000000E+00  0.00000000000E+00  0.45593999997E+02  0.45594000000E+02  0.51100000000E-03 0.  1.
         11   -1    0    0    0    0 -0.00000000000E+00 -0.00000000000E+00 -0.45593999997E+02  0.45594000000E+02  0.51100000000E-03 0. -1.
    9900012    2    1    2    0    0  0.13423141642E+02 -0.28417438001E+02 -0.53841822300E+01  0.59301938275E+02  0.49999989508E+02 0.  0.
         12    1    1    2    0    0 -0.13423141642E+02  0.28417438001E+02  0.53841822300E+01  0.31886061725E+02  0.00000000000E+00 0. -1.
         11    1    3    3    0    0 -0.47533242116E+01  0.50533981786E+01 -0.12872494408E+02  0.14622996846E+02  0.51100000000E-03 0. -1.
        -11    1    3    3    0    0  0.13458407472E+02 -0.58348415899E+01  0.78573476310E+01  0.16640673668E+02  0.51100000000E-03 0.  1.
         12    1    3    3    0    0  0.47180583813E+01 -0.27635994590E+02 -0.36903545294E+00  0.28038267761E+02  0.00000000000E+00 0. -1.
</event>
<event>
 7    1  0.7674040E-012  0.5930193E+02  0.7816164E-02  0.1266605E+00
        -11   -1    0    0    0    0  0.00000000000E+00  0.00000000000E+00  0.45593999997E+02  0.45594000000E+02  0.51100000000E-03 0. -1.
         11   -1    0    0    0    0 -0.00000000000E+00 -0.00000000000E+00 -0.45593999997E+02  0.45594000000E+02  0.51100000000E-03 0.  1.
    9900012    2    1    2    0    0 -0.20818811745E+02  0.11023107168E+02 -0.21489284747E+02  0.59301934500E+02  0.49999982624E+02 0.  0.
         12    1    1    2    0    0  0.20818811745E+02 -0.11023107168E+02  0.21489284747E+02  0.31886065500E+02  0.00000000000E+00 0. -1.
         11    1    3    3    0    0 -0.14698647793E+02 -0.10076962167E+02 -0.25175450147E+02  0.30844751641E+02  0.51100000000E-03 0. -1.
        -11    1    3    3    0    0  0.31818616997E+01  0.27563321482E+01  0.64527188288E+01  0.77044916336E+01  0.51100000000E-03 0.  1.
        -12    1    3    3    0    0 -0.93020256520E+01  0.18343737187E+02 -0.27665534284E+01  0.20752691225E+02  0.00000000000E+00 0.  1.
</event>
<event>
 7    1  0.7674040E-012  0.5930193E+02  0.7816164E-02  0.1266605E+00
        -11   -1    0    0    0    0  0.00000000000E+00  0.00000000000E+00  0.45593999997E+02  0.45594000000E+02  0.51100000000E-03 0. -1.
         11   -1    0    0    0    0 -0.00000000000E+00 -0.00000000000E+00 -0.45593999997E+02  0.45594000000E+02  0.51100000000E-03 0.  1.
    9900012    2    1    2    0    0  0.76161552692E+01 -0.15172684079E+02 -0.26990842127E+02  0.59301925893E+02  0.49999966926E+02 0.  0.
         12    1    1    2    0    0 -0.76161552692E+01  0.15172684079E+02  0.26990842127E+02  0.31886074107E+02  0.00000000000E+00 0. -1.
         11    1    3    3    0    0  0.11921425611E+02  0.10956580098E+02 -0.16645666820E+02  0.23221654984E+02  0.51100000000E-03 0. -1.
        -11    1    3    3    0    0  0.71026412917E+01 -0.18953653440E+02 -0.10053673887E+02  0.22600107321E+02  0.51100000000E-03 0.  1.
         12    1    3    3    0    0 -0.11407911633E+02 -0.71756107371E+01 -0.29150141950E+00  0.13480163588E+02  0.00000000000E+00 0. -1.
</event>
<event>
 7    1  0.7674040E-012  0.5930190E+02  0.7816164E-02  0.1266605E+00
        -11   -1    0    0    0    0  0.00000000000E+00  0.00000000000E+00  0.45593999997E+02  0.45594000000E+02  0.51100000000E-03 0. -1.
         11   -1    0    0    0    0 -0.00000000000E+00 -0.00000000000E+00 -0.45593999997E+02  0.45594000000E+02  0.51100000000E-03 0.  1.
    9900012    2    1    2    0    0 -0.10646437947E+02  0.19771304964E+02 -0.22637853112E+02  0.59301897471E+02  0.49999915092E+02 0.  0.
         12    1    1    2    0    0  0.10646437947E+02 -0.19771304964E+02  0.22637853112E+02  0.31886102529E+02  0.00000000000E+00 0. -1.
         11    1    3    3    0    0 -0.13479711194E+02  0.33828524761E+02 -0.85260773233E+01  0.37400076152E+02  0.51100000000E-03 0. -1.
        -11    1    3    3    0    0 -0.17922576427E+01 -0.10041065887E+02 -0.63537236553E+01  0.12016862991E+02  0.51100000000E-03 0.  1.
         12    1    3    3    0    0  0.46255308904E+01 -0.40161539091E+01 -0.77580521335E+01  0.98849583280E+01  0.00000000000E+00 0. -1.
</event>
<event>
 7    1  0.7674040E-012  0.5930192E+02  0.7816164E-02  0.1266605E+00
        -11   -1    0    0    0    0  0.00000000000E+00  0.00000000000E+00  0.45593999997E+02  0.45594000000E+02  0.51100000000E-03 0.  1.
         11   -1    0    0    0    0 -0.00000000000E+00 -0.00000000000E+00 -0.45593999997E+02  0.45594000000E+02  0.51100000000E-03 0. -1.
    9900012    2    1    2    0    0  0.19003650906E+01 -0.71486289790E+01  0.31016254269E+02  0.59301916631E+02  0.49999950035E+02 0.  0.
         12    1    1    2    0    0 -0.19003650906E+01  0.71486289790E+01 -0.31016254269E+02  0.31886083369E+02  0.00000000000E+00 0. -1.
         11    1    3    3    0    0 -0.37697197403E+01 -0.98994762806E+01 -0.11256999004E+02  0.15457375081E+02  0.51100000000E-03 0. -1.
        -11    1    3    3    0    0 -0.10775779913E+01 -0.26398170152E+01  0.13745759555E+02  0.14038365796E+02  0.51100000000E-03 0.  1.
         12    1    3    3    0    0  0.67476628221E+01  0.53906643168E+01  0.28527493717E+02  0.29806175755E+02  0.00000000000E+00 0. -1.
</event>
<event>
 7    1  0.7674040E-012  0.5930193E+02  0.7816164E-02  0.1266605E+00
        -11   -1    0    0    0    0  0.00000000000E+00  0.00000000000E+00  0.45593999997E+02  0.45594000000E+02  0.51100000000E-03 0.  1.
         11   -1    0    0    0    0 -0.00000000000E+00 -0.00000000000E+00 -0.45593999997E+02  0.45594000000E+02  0.51100000000E-03 0. -1.
    9900012    2    1    2    0    0  0.12071524435E+02 -0.76089615136E+00  0.29502893241E+02  0.59301931338E+02  0.49999976857E+02 0.  0.
         12    1    1    2    0    0 -0.12071524435E+02  0.76089615136E+00 -0.29502893241E+02  0.31886068662E+02  0.00000000000E+00 0. -1.
         11    1    3    3    0    0 -0.12142242809E+02 -0.10247200136E+02  0.20955257759E+02  0.26297566410E+02  0.51100000000E-03 0. -1.
        -11    1    3    3    0    0  0.19620400030E+02  0.13301118950E+02  0.11496665924E+02  0.26344889264E+02  0.51100000000E-03 0.  1.
         12    1    3    3    0    0  0.45933672135E+01 -0.38148149654E+01 -0.29490304431E+01  0.66594756650E+01  0.00000000000E+00 0. -1.
</event>
<event>
 7    1  0.7674040E-012  0.5930193E+02  0.7816164E-02  0.1266605E+00
        -11   -1    0    0    0    0  0.00000000000E+00  0.00000000000E+00  0.45593999997E+02  0.45594000000E+02  0.51100000000E-03 0.  1.
         11   -1    0    0    0    0 -0.00000000000E+00 -0.00000000000E+00 -0.45593999997E+02  0.45594000000E+02  0.51100000000E-03 0. -1.
    9900012    2    1    2    0    0 -0.21594025169E+02 -0.12285647989E+02  0.19987056083E+02  0.59301929681E+02  0.49999973835E+02 0.  0.
         12    1    1    2    0    0  0.21594025169E+02  0.12285647989E+02 -0.19987056083E+02  0.31886070319E+02  0.00000000000E+00 0. -1.
         11    1    3    3    0    0  0.21313981961E+01 -0.45671742008E+01  0.27471372267E+02  0.27929880647E+02  0.51100000000E-03 0.  1.
        -11    1    3    3    0    0 -0.25496998474E+02 -0.75896726343E+01 -0.32751975395E+01  0.26803488226E+02  0.51100000000E-03 0. -1.
         12    1    3    3    0    0  0.17715751084E+01 -0.12880115361E+00 -0.42091186441E+01  0.45685608086E+01  0.00000000000E+00 0. -1.
</event>
<event>
 7    1  0.7674040E-012  0.5930203E+02  0.7816164E-02  0.1266604E+00
        -11   -1    0    0    0    0  0.00000000000E+00  0.00000000000E+00  0.45593999997E+02  0.45594000000E+02  0.51100000000E-03 0.  1.
         11   -1    0    0    0    0 -0.00000000000E+00 -0.00000000000E+00 -0.45593999997E+02  0.45594000000E+02  0.51100000000E-03 0. -1.
    9900012    2    1    2    0    0  0.17942385686E+02 -0.15267267403E+02  0.21487125544E+02  0.59302027815E+02  0.50000152807E+02 0.  0.
         12    1    1    2    0    0 -0.17942385686E+02  0.15267267403E+02 -0.21487125544E+02  0.31885972185E+02  0.00000000000E+00 0. -1.
         11    1    3    3    0    0 -0.92923399733E+01  0.19339560891E+01 -0.58440268444E+01  0.11146318601E+02  0.51100000000E-03 0. -1.
        -11    1    3    3    0    0  0.13266574358E+01 -0.54534741384E+01  0.16980560092E+02  0.17884066132E+02  0.51100000000E-03 0.  1.
         12    1    3    3    0    0  0.25908068224E+02 -0.11747749354E+02  0.10350592297E+02  0.30271643082E+02  0.00000000000E+00 0. -1.
</event>
<event>
 7    1  0.7674040E-012  0.5930193E+02  0.7816164E-02  0.1266605E+00
        -11   -1    0    0    0    0  0.00000000000E+00  0.00000000000E+00  0.45593999997E+02  0.45594000000E+02  0.51100000000E-03 0.  1.
         11   -1    0    0    0    0 -0.00000000000E+00 -0.00000000000E+00 -0.45593999997E+02  0.45594000000E+02  0.51100000000E-03 0. -1.
    9900012    2    1    2    0    0 -0.49679624940E+00  0.57327276633E+01  0.31362567174E+02  0.59301927920E+02  0.49999970623E+02 0.  0.
         12    1    1    2    0    0  0.49679624940E+00 -0.57327276633E+01 -0.31362567174E+02  0.31886072080E+02  0.00000000000E+00 0. -1.
         11    1    3    3    0    0  0.18151948763E+02 -0.10004291906E+02  0.61193335232E+01  0.21610769154E+02  0.51100000000E-03 0. -1.
        -11    1    3    3    0    0 -0.14150891893E+02  0.53137017518E+01  0.81535738929E+01  0.17174514117E+02  0.51100000000E-03 0.  1.
         12    1    3    3    0    0 -0.44978531188E+01  0.10423317817E+02  0.17089659757E+02  0.20516644648E+02  0.00000000000E+00 0. -1.
</event>
<event>
 7    1  0.7674040E-012  0.5930193E+02  0.7816164E-02  0.1266605E+00
        -11   -1    0    0    0    0  0.00000000000E+00  0.00000000000E+00  0.45593999997E+02  0.45594000000E+02  0.51100000000E-03 0.  1.
         11   -1    0    0    0    0 -0.00000000000E+00 -0.00000000000E+00 -0.45593999997E+02  0.45594000000E+02  0.51100000000E-03 0. -1.
    9900012    2    1    2    0    0 -0.19747503052E+02 -0.77639384074E+00  0.25023084526E+02  0.59301930575E+02  0.49999975466E+02 0.  0.
         12    1    1    2    0    0  0.19747503052E+02  0.77639384074E+00 -0.25023084526E+02  0.31886069425E+02  0.00000000000E+00 0. -1.
         11    1    3    3    0    0 -0.77807381333E+01 -0.56819688837E+01 -0.98738238895E+01  0.13795544743E+02  0.51100000000E-03 0. -1.
        -11    1    3    3    0    0 -0.13261768428E+02 -0.75159462345E+01  0.26117281575E+02  0.30240309965E+02  0.51100000000E-03 0.  1.
        -12    1    3    3    0    0  0.12950035101E+01  0.12421521278E+02  0.87796268402E+01  0.15266075868E+02  0.00000000000E+00 0.  1.
</event>
<event>
 7    1  0.7674040E-012  0.5930193E+02  0.7816164E-02  0.1266605E+00
        -11   -1    0    0    0    0  0.00000000000E+00  0.00000000000E+00  0.45593999997E+02  0.45594000000E+02  0.51100000000E-03 0.  1.
         11   -1    0    0    0    0 -0.00000000000E+00 -0.00000000000E+00 -0.45593999997E+02  0.45594000000E+02  0.51100000000E-03 0. -1.
    9900012    2    1    2    0    0 -0.31632089405E+02  0.30290654193E+01 -0.26376178362E+01  0.59301931799E+02  0.49999977698E+02 0.  0.
         12    1    1    2    0    0  0.31632089405E+02 -0.30290654193E+01  0.26376178362E+01  0.31886068201E+02  0.00000000000E+00 0. -1.
         11    1    3    3    0    0  0.92858402163E+01 -0.30304268942E+01  0.74305186161E+01  0.12272853085E+02  0.51100000000E-03 0. -1.
        -11    1    3    3    0    0 -0.26405043787E+02 -0.58380250736E+01 -0.76752032010E+01  0.28110809640E+02  0.51100000000E-03 0.  1.
        -12    1    3    3    0    0 -0.14512885835E+02  0.11897517387E+02 -0.23929332513E+01  0.18918269074E+02  0.00000000000E+00 0.  1.
</event>
<event>
 7    1  0.7674040E-012  0.5930193E+02  0.7816164E-02  0.1266605E+00
        -11   -1    0    0    0    0  0.00000000000E+00  0.00000000000E+00  0.45593999997E+02  0.45594000000E+02  0.51100000000E-03 0.  1.
         11   -1    0    0    0    0 -0.00000000000E+00 -0.00000000000E+00 -0.45593999997E+02  0.45594000000E+02  0.51100000000E-03 0. -1.
    9900012    2    1    2    0    0 -0.18994498961E+02  0.60119730167E+01  0.24895513632E+02  0.59301930795E+02  0.49999975866E+02 0.  0.
         12    1    1    2    0    0  0.18994498961E+02 -0.60119730167E+01 -0.24895513632E+02  0.31886069205E+02  0.00000000000E+00 0. -1.
         11    1    3    3    0    0 -0.69516594587E+01  0.10973895091E+02 -0.47380457292E+01  0.13827545707E+02  0.51100000000E-03 0. -1.
        -11    1    3    3    0    0 -0.15732797769E+02 -0.54904305407E+01  0.35101973546E+02  0.38856328960E+02  0.51100000000E-03 0.  1.
        -12    1    3    3    0    0  0.36899582662E+01  0.52850846682E+00 -0.54684141848E+01  0.66180561272E+01  0.00000000000E+00 0.  1.
</event>
<event>
 7    1  0.7674040E-012  0.5930198E+02  0.7816164E-02  0.1266605E+00
        -11   -1    0    0    0    0  0.00000000000E+00  0.00000000000E+00  0.45593999997E+02  0.45594000000E+02  0.51100000000E-03 0.  1.
         11   -1    0    0    0    0 -0.00000000000E+00 -0.00000000000E+00 -0.45593999997E+02  0.45594000000E+02  0.51100000000E-03 0. -1.
    9900012    2    1    2    0    0  0.21157677378E+02 -0.15216694446E+01  0.23806631291E+02  0.59301976677E+02  0.50000059545E+02 0.  0.
         12    1    1    2    0    0 -0.21157677378E+02  0.15216694446E+01 -0.23806631291E+02  0.31886023323E+02  0.00000000000E+00 0. -1.
         11    1    3    3    0    0 -0.29749998314E+01  0.10549901044E+01 -0.12771767066E+02  0.13156050410E+02  0.51100000000E-03 0. -1.
        -11    1    3    3    0    0  0.14921042520E+02 -0.79467477946E+01  0.26752609819E+02  0.31646333797E+02  0.51100000000E-03 0.  1.
         12    1    3    3    0    0  0.92116346896E+01  0.53700882457E+01  0.98257885385E+01  0.14499592471E+02  0.00000000000E+00 0. -1.
</event>
<event>
 7    1  0.7674040E-012  0.5930195E+02  0.7816164E-02  0.1266605E+00
        -11   -1    0    0    0    0  0.00000000000E+00  0.00000000000E+00  0.45593999997E+02  0.45594000000E+02  0.51100000000E-03 0.  1.
         11   -1    0    0    0    0 -0.00000000000E+00 -0.00000000000E+00 -0.45593999997E+02  0.45594000000E+02  0.51100000000E-03 0. -1.
    9900012    2    1    2    0    0  0.19384579677E+02  0.30873578704E+01  0.25128204154E+02  0.59301947377E+02  0.50000006108E+02 0.  0.
         12    1    1    2    0    0 -0.19384579677E+02 -0.30873578704E+01 -0.25128204154E+02  0.31886052623E+02  0.00000000000E+00 0. -1.
         11    1    3    3    0    0  0.22946511538E+01 -0.10137272873E+01 -0.11979801202E+02  0.12239636597E+02  0.51100000000E-03 0. -1.
        -11    1    3    3    0    0  0.16645400980E+02  0.10250236139E+02  0.35755701623E+02  0.40750544948E+02  0.51100000000E-03 0.  1.
        -12    1    3    3    0    0  0.44452754294E+00 -0.61491509816E+01  0.13523037331E+01  0.63117658320E+01  0.00000000000E+00 0.  1.
</event>
<event>
 7    1  0.7674040E-012  0.5930208E+02  0.7816164E-02  0.1266604E+00
        -11   -1    0    0    0    0  0.00000000000E+00  0.00000000000E+00  0.45593999997E+02  0.45594000000E+02  0.51100000000E-03 0. -1.
         11   -1    0    0    0    0 -0.00000000000E+00 -0.00000000000E+00 -0.45593999997E+02  0.45594000000E+02  0.51100000000E-03 0.  1.
    9900012    2    1    2    0    0  0.12609231007E+02 -0.20636333179E+02 -0.20781263620E+02  0.59302080360E+02  0.50000248637E+02 0.  0.
         12    1    1    2    0    0 -0.12609231007E+02  0.20636333179E+02  0.20781263620E+02  0.31885919640E+02  0.00000000000E+00 0. -1.
         11    1    3    3    0    0  0.20395615297E+02 -0.14499712530E+02  0.97916512816E+01  0.26871903949E+02  0.51100000000E-03 0. -1.
        -11    1    3    3    0    0 -0.66860988693E+01 -0.40231129472E+01 -0.27223061675E+02  0.28319329849E+02  0.51100000000E-03 0.  1.
        -12    1    3    3    0    0 -0.11002854211E+01 -0.21135077025E+01 -0.33498532264E+01  0.41108465618E+01  0.00000000000E+00 0.  1.
</event>
<event>
 7    1  0.7674040E-012  0.5930195E+02  0.7816164E-02  0.1266605E+00
        -11   -1    0    0    0    0  0.00000000000E+00  0.00000000000E+00  0.45593999997E+02  0.45594000000E+02  0.51100000000E-03 0. -1.
         11   -1    0    0    0    0 -0.00000000000E+00 -0.00000000000E+00 -0.45593999997E+02  0.45594000000E+02  0.51100000000E-03 0.  1.
    9900012    2    1    2    0    0  0.21188176557E+02  0.74013065289E+01 -0.22649550442E+02  0.59301948200E+02  0.50000007610E+02 0.  0.
         12    1    1    2    0    0 -0.21188176557E+02 -0.74013065289E+01  0.22649550442E+02  0.31886051800E+02  0.00000000000E+00 0. -1.
         11    1    3    3    0    0 -0.13717706802E+02  0.65232239945E+01 -0.11397489664E+02  0.18990279147E+02  0.51100000000E-03 0. -1.
        -11    1    3    3    0    0  0.26743287007E+02  0.12961611926E+01 -0.46607310489E+00  0.26778735186E+02  0.51100000000E-03 0.  1.
        -12    1    3    3    0    0  0.81625963520E+01 -0.41807865824E+00 -0.10785987673E+02  0.13532933867E+02  0.00000000000E+00 0.  1.
</event>
<event>
 7    1  0.7674040E-012  0.5930195E+02  0.7816164E-02  0.1266605E+00
        -11   -1    0    0    0    0  0.00000000000E+00  0.00000000000E+00  0.45593999997E+02  0.45594000000E+02  0.51100000000E-03 0.  1.
         11   -1    0    0    0    0 -0.00000000000E+00 -0.00000000000E+00 -0.45593999997E+02  0.45594000000E+02  0.51100000000E-03 0. -1.
    9900012    2    1    2    0    0 -0.12619834860E+01 -0.25085260430E+02  0.19643242501E+02  0.59301954947E+02  0.50000019915E+02 0.  0.
         12    1    1    2    0    0  0.12619834860E+01  0.25085260430E+02 -0.19643242501E+02  0.31886045053E+02  0.00000000000E+00 0. -1.
         11    1    3    3    0    0 -0.36464458491E+01 -0.11776440207E+01 -0.12099693481E+01  0.40183875939E+01  0.51100000000E-03 0. -1.
        -11    1    3    3    0    0  0.79737297179E+01  0.68259206492E+01  0.21623515451E+02  0.24036430248E+02  0.51100000000E-03 0.  1.
        -12    1    3    3    0    0 -0.55892673548E+01 -0.30733537058E+02 -0.77030360172E+00  0.31247137106E+02  0.00000000000E+00 0.  1.
</event>
<event>
 7    1  0.7674040E-012  0.5930198E+02  0.7816164E-02  0.1266605E+00
        -11   -1    0    0    0    0  0.00000000000E+00  0.00000000000E+00  0.45593999997E+02  0.45594000000E+02  0.51100000000E-03 0.  1.
         11   -1    0    0    0    0 -0.00000000000E+00 -0.00000000000E+00 -0.45593999997E+02  0.45594000000E+02  0.51100000000E-03 0. -1.
    9900012    2    1    2    0    0 -0.74610627404E+01  0.25222691032E+02  0.18024064681E+02  0.59301976295E+02  0.50000058847E+02 0.  0.
         12    1    1    2    0    0  0.74610627404E+01 -0.25222691032E+02 -0.18024064681E+02  0.31886023705E+02  0.00000000000E+00 0. -1.
         11    1    3    3    0    0 -0.14031414624E+02 -0.40218291299E+01  0.18301522631E+02  0.23409430509E+02  0.51100000000E-03 0. -1.
        -11    1    3    3    0    0  0.21736061885E+01  0.30971562954E+02 -0.12366884453E+01  0.31072361903E+02  0.51100000000E-03 0.  1.
         12    1    3    3    0    0  0.43967456955E+01 -0.17270427917E+01  0.95923049577E+00  0.48201838823E+01  0.00000000000E+00 0. -1.
</event>
<event>
 7    1  0.7674040E-012  0.5930195E+02  0.7816164E-02  0.1266605E+00
        -11   -1    0    0    0    0  0.00000000000E+00  0.00000000000E+00  0.45593999997E+02  0.45594000000E+02  0.51100000000E-03 0.  1.
         11   -1    0    0    0    0 -0.00000000000E+00 -0.00000000000E+00 -0.45593999997E+02  0.45594000000E+02  0.51100000000E-03 0. -1.
    9900012    2    1    2    0    0  0.17287591995E+02  0.23676011561E+02 -0.12542159317E+02  0.59301951001E+02  0.50000012718E+02 0.  0.
         12    1    1    2    0    0 -0.17287591995E+02 -0.23676011561E+02  0.12542159317E+02  0.31886048999E+02  0.00000000000E+00 0. -1.
         11    1    3    3    0    0 -0.23231654122E+01 -0.37146301480E+01  0.13615072724E+01  0.45879491042E+01  0.51100000000E-03 0. -1.
        -11    1    3    3    0    0  0.22062450845E+02  0.31084910760E+02  0.20323536768E+01  0.38172684946E+02  0.51100000000E-03 0.  1.
        -12    1    3    3    0    0 -0.24516934373E+01 -0.36942690517E+01 -0.15936020266E+02  0.16541316951E+02  0.00000000000E+00 0.  1.
</event>
<event>
 7    1  0.7674040E-012  0.5930194E+02  0.7816164E-02  0.1266605E+00
        -11   -1    0    0    0    0  0.00000000000E+00  0.00000000000E+00  0.45593999997E+02  0.45594000000E+02  0.51100000000E-03 0.  1.
         11   -1    0    0    0    0 -0.00000000000E+00 -0.00000000000E+00 -0.45593999997E+02  0.45594000000E+02  0.51100000000E-03 0. -1.
    9900012    2    1    2    0    0  0.19510409200E+02 -0.14591358476E+02  0.20570780783E+02  0.59301939858E+02  0.49999992396E+02 0.  0.
         12    1    1    2    0    0 -0.19510409200E+02  0.14591358476E+02 -0.20570780783E+02  0.31886060142E+02  0.00000000000E+00 0. -1.
         11    1    3    3    0    0 -0.17177779852E+01  0.10012055238E+02  0.22184165276E+02  0.24399368856E+02  0.51100000000E-03 0.  1.
        -11    1    3    3    0    0  0.20656698000E+02 -0.16011336032E+02 -0.24548512181E+01  0.26250492348E+02  0.51100000000E-03 0. -1.
        -12    1    3    3    0    0  0.57148918523E+00 -0.85920776823E+01  0.84146672531E+00  0.86520786542E+01  0.00000000000E+00 0.  1.
</event>
<event>
 7    1  0.7674040E-012  0.5930196E+02  0.7816164E-02  0.1266605E+00
        -11   -1    0    0    0    0  0.00000000000E+00  0.00000000000E+00  0.45593999997E+02  0.45594000000E+02  0.51100000000E-03 0.  1.
         11   -1    0    0    0    0 -0.00000000000E+00 -0.00000000000E+00 -0.45593999997E+02  0.45594000000E+02  0.51100000000E-03 0. -1.
    9900012    2    1    2    0    0 -0.24042346874E+02 -0.19209037087E+02  0.83485267549E+01  0.59301961551E+02  0.50000031957E+02 0.  0.
         12    1    1    2    0    0  0.24042346874E+02  0.19209037087E+02 -0.83485267549E+01  0.31886038449E+02  0.00000000000E+00 0. -1.
         11    1    3    3    0    0 -0.10764021035E+02 -0.96986930123E+01 -0.15583682091E+02  0.21278626430E+02  0.51100000000E-03 0. -1.
        -11    1    3    3    0    0 -0.17136997367E+02  0.21215674222E+01  0.14748147536E+02  0.22708711613E+02  0.51100000000E-03 0.  1.
         12    1    3    3    0    0  0.38586715282E+01 -0.11631911497E+02  0.91840613095E+01  0.15314623508E+02  0.00000000000E+00 0. -1.
</event>
<event>
 7    1  0.7674040E-012  0.5930195E+02  0.7816164E-02  0.1266605E+00
        -11   -1    0    0    0    0  0.00000000000E+00  0.00000000000E+00  0.45593999997E+02  0.45594000000E+02  0.51100000000E-03 0.  1.
         11   -1    0    0    0    0 -0.00000000000E+00 -0.00000000000E+00 -0.45593999997E+02  0.45594000000E+02  0.51100000000E-03 0. -1.
    9900012    2    1    2    0    0 -0.18239256214E+02 -0.23873312556E+02  0.10682435218E+02  0.59301953807E+02  0.50000017835E+02 0.  0.
         12    1    1    2    0    0  0.18239256214E+02  0.23873312556E+02 -0.10682435218E+02  0.31886046193E+02  0.00000000000E+00 0. -1.
         11    1    3    3    0    0 -0.33184120157E+01 -0.20268921772E+02 -0.85268751726E+01  0.22238449779E+02  0.51100000000E-03 0. -1.
        -11    1    3    3    0    0 -0.99360697254E+01 -0.41590530748E+01  0.26275857892E+02  0.28397956128E+02  0.51100000000E-03 0.  1.
        -12    1    3    3    0    0 -0.49847744732E+01  0.55466229113E+00 -0.70665475014E+01  0.86655478993E+01  0.00000000000E+00 0.  1.
</event>
<event>
 7    1  0.7674040E-012  0.5930194E+02  0.7816164E-02  0.1266605E+00
        -11   -1    0    0    0    0  0.00000000000E+00  0.00000000000E+00  0.45593999997E+02  0.45594000000E+02  0.51100000000E-03 0.  1.
         11   -1    0    0    0    0 -0.00000000000E+00 -0.00000000000E+00 -0.45593999997E+02  0.45594000000E+02  0.51100000000E-03 0. -1.
    9900012    2    1    2    0    0  0.15540202550E+02  0.41278183781E+01  0.27535140448E+02  0.59301941301E+02  0.49999995027E+02 0.  0.
         12    1    1    2    0    0 -0.15540202550E+02 -0.41278183781E+01 -0.27535140448E+02  0.31886058699E+02  0.00000000000E+00 0. -1.
         11    1    3    3    0    0  0.44302489133E+01  0.16008850270E+02  0.99772375590E+01  0.19376678301E+02  0.51100000000E-03 0. -1.
        -11    1    3    3    0    0  0.19783249879E+00 -0.81747235418E+01  0.24935271312E+02  0.26241817741E+02  0.51100000000E-03 0.  1.
        -12    1    3    3    0    0  0.10912121138E+02 -0.37063083499E+01 -0.73773684234E+01  0.13683445260E+02  0.00000000000E+00 0.  1.
</event>
<event>
 7    1  0.7674040E-012  0.5930182E+02  0.7816164E-02  0.1266605E+00
        -11   -1    0    0    0    0  0.00000000000E+00  0.00000000000E+00  0.45593999997E+02  0.45594000000E+02  0.51100000000E-03 0.  1.
         11   -1    0    0    0    0 -0.00000000000E+00 -0.00000000000E+00 -0.45593999997E+02  0.45594000000E+02  0.51100000000E-03 0. -1.
    9900012    2    1    2    0    0  0.25623057992E+02 -0.13006592235E+02  0.13820846568E+02  0.59301822081E+02  0.49999777597E+02 0.  0.
         12    1    1    2    0    0 -0.25623057992E+02  0.13006592235E+02 -0.13820846568E+02  0.31886177919E+02  0.00000000000E+00 0. -1.
         11    1    3    3    0    0  0.27977187414E+02  0.10254942820E+02 -0.75633853123E+00  0.29807027965E+02  0.51100000000E-03 0. -1.
        -11    1    3    3    0    0 -0.18931134597E+01 -0.19986313160E+02  0.70580155928E+01  0.21280323698E+02  0.51100000000E-03 0.  1.
         12    1    3    3    0    0 -0.46101596232E+00 -0.32752218952E+01  0.75191695068E+01  0.82144704182E+01  0.00000000000E+00 0. -1.
</event>
<event>
 7    1  0.7674040E-012  0.5930194E+02  0.7816164E-02  0.1266605E+00
        -11   -1    0    0    0    0  0.00000000000E+00  0.00000000000E+00  0.45593999997E+02  0.45594000000E+02  0.51100000000E-03 0.  1.
         11   -1    0    0    0    0 -0.00000000000E+00 -0.00000000000E+00 -0.45593999997E+02  0.45594000000E+02  0.51100000000E-03 0. -1.
    9900012    2    1    2    0    0 -0.37856687136E+01  0.24691900545E+02  0.19816655453E+02  0.59301936061E+02  0.49999985471E+02 0.  0.
         12    1    1    2    0    0  0.37856687136E+01 -0.24691900545E+02 -0.19816655453E+02  0.31886063939E+02  0.00000000000E+00 0. -1.
         11    1    3    3    0    0  0.30296426111E-01 -0.12982896010E+02  0.24650919904E+01  0.13214884996E+02  0.51100000000E-03 0. -1.
        -11    1    3    3    0    0  0.72321164893E+01  0.71297353886E+01  0.31168375431E+01  0.10623149823E+02  0.51100000000E-03 0.  1.
         12    1    3    3    0    0 -0.11048081629E+02  0.30545061167E+02  0.14234725919E+02  0.35463901243E+02  0.00000000000E+00 0. -1.
</event>
<event>
 7    1  0.7674040E-012  0.5930194E+02  0.7816164E-02  0.1266605E+00
        -11   -1    0    0    0    0  0.00000000000E+00  0.00000000000E+00  0.45593999997E+02  0.45594000000E+02  0.51100000000E-03 0.  1.
         11   -1    0    0    0    0 -0.00000000000E+00 -0.00000000000E+00 -0.45593999997E+02  0.45594000000E+02  0.51100000000E-03 0. -1.
    9900012    2    1    2    0    0  0.85132058051E+01 -0.28191595565E+02 -0.12226200114E+02  0.59301941874E+02  0.49999996071E+02 0.  0.
         12    1    1    2    0    0 -0.85132058051E+01  0.28191595565E+02  0.12226200114E+02  0.31886058126E+02  0.00000000000E+00 0. -1.
         11    1    3    3    0    0  0.16885215463E+02 -0.37806126799E+01  0.52898366244E+00  0.17311364979E+02  0.51100000000E-03 0. -1.
        -11    1    3    3    0    0 -0.17250667293E+02 -0.10484448799E+02  0.14045315042E+01  0.20235659062E+02  0.51100000000E-03 0.  1.
        -12    1    3    3    0    0  0.88786576345E+01 -0.13926534086E+02 -0.14159715281E+02  0.21754917832E+02  0.00000000000E+00 0.  1.
</event>
<event>
 7    1  0.7674040E-012  0.5930192E+02  0.7816164E-02  0.1266605E+00
        -11   -1    0    0    0    0  0.00000000000E+00  0.00000000000E+00  0.45593999997E+02  0.45594000000E+02  0.51100000000E-03 0. -1.
         11   -1    0    0    0    0 -0.00000000000E+00 -0.00000000000E+00 -0.45593999997E+02  0.45594000000E+02  0.51100000000E-03 0.  1.
    9900012    2    1    2    0    0 -0.22315040100E+02 -0.22729500732E+02 -0.14597199347E+01  0.59301921526E+02  0.49999958962E+02 0.  0.
         12    1    1    2    0    0  0.22315040100E+02  0.22729500732E+02  0.14597199347E+01  0.31886078474E+02  0.00000000000E+00 0. -1.
         11    1    3    3    0    0 -0.11604993703E+02 -0.34083591292E+02 -0.35177903766E+01  0.36176538304E+02  0.51100000000E-03 0. -1.
        -11    1    3    3    0    0 -0.10973255359E+02  0.15147011514E+02 -0.19645272958E+00  0.18705156639E+02  0.51100000000E-03 0.  1.
        -12    1    3    3    0    0  0.26320896196E+00 -0.37929209532E+01  0.22545231715E+01  0.44202265830E+01  0.00000000000E+00 0.  1.
</event>
<event>
 7    1  0.7674040E-012  0.5930190E+02  0.7816164E-02  0.1266605E+00
        -11   -1    0    0    0    0  0.00000000000E+00  0.00000000000E+00  0.45593999997E+02  0.45594000000E+02  0.51100000000E-03 0.  1.
         11   -1    0    0    0    0 -0.00000000000E+00 -0.00000000000E+00 -0.45593999997E+02  0.45594000000E+02  0.51100000000E-03 0. -1.
    9900012    2    1    2    0    0 -0.29650562432E+02  0.69228927270E+01  0.94678825308E+01  0.59301904349E+02  0.49999927635E+02 0.  0.
         12    1    1    2    0    0  0.29650562432E+02 -0.69228927270E+01 -0.94678825308E+01  0.31886095651E+02  0.00000000000E+00 0. -1.
         11    1    3    3    0    0  0.39746523041E+00  0.57023016409E+01 -0.13543356541E+01  0.58743891545E+01  0.51100000000E-03 0. -1.
        -11    1    3    3    0    0 -0.35474982804E+02 -0.79410256035E+01  0.18020622727E+02  0.40574340861E+02  0.51100000000E-03 0.  1.
        -12    1    3    3    0    0  0.54269551415E+01  0.91616166896E+01 -0.71984045423E+01  0.12853174333E+02  0.00000000000E+00 0.  1.
</event>
<event>
 7    1  0.7674040E-012  0.5930194E+02  0.7816164E-02  0.1266605E+00
        -11   -1    0    0    0    0  0.00000000000E+00  0.00000000000E+00  0.45593999997E+02  0.45594000000E+02  0.51100000000E-03 0. -1.
         11   -1    0    0    0    0 -0.00000000000E+00 -0.00000000000E+00 -0.45593999997E+02  0.45594000000E+02  0.51100000000E-03 0.  1.
    9900012    2    1    2    0    0  0.88553668553E+01 -0.29131613673E+02 -0.94684853078E+01  0.59301942681E+02  0.49999997543E+02 0.  0.
         12    1    1    2    0    0 -0.88553668553E+01  0.29131613673E+02  0.94684853078E+01  0.31886057319E+02  0.00000000000E+00 0. -1.
         11    1    3    3    0    0  0.20107445667E+02 -0.22979429600E+02  0.23785547766E+01  0.30627129788E+02  0.51100000000E-03 0. -1.
        -11    1    3    3    0    0 -0.11941766934E+02 -0.13100681662E+02 -0.12456542206E+02  0.21665620266E+02  0.51100000000E-03 0.  1.
         12    1    3    3    0    0  0.68968812238E+00  0.69484975886E+01  0.60950212146E+00  0.70091926269E+01  0.00000000000E+00 0. -1.
</event>
<event>
 7    1  0.7674040E-012  0.5930195E+02  0.7816164E-02  0.1266605E+00
        -11   -1    0    0    0    0  0.00000000000E+00  0.00000000000E+00  0.45593999997E+02  0.45594000000E+02  0.51100000000E-03 0.  1.
         11   -1    0    0    0    0 -0.00000000000E+00 -0.00000000000E+00 -0.45593999997E+02  0.45594000000E+02  0.51100000000E-03 0. -1.
    9900012    2    1    2    0    0  0.16345579246E+02  0.76059931908E+01  0.26300021311E+02  0.59301949535E+02  0.50000010044E+02 0.  0.
         12    1    1    2    0    0 -0.16345579246E+02 -0.76059931908E+01 -0.26300021311E+02  0.31886050465E+02  0.00000000000E+00 0. -1.
         11    1    3    3    0    0  0.41521682833E+01 -0.49317260696E+00 -0.43352047873E+01  0.60230989933E+01  0.51100000000E-03 0. -1.
        -11    1    3    3    0    0 -0.93796567656E+01 -0.11220887803E+02  0.98691056852E+01  0.17643285732E+02  0.51100000000E-03 0.  1.
        -12    1    3    3    0    0  0.21573067728E+02  0.19320053601E+02  0.20766120413E+02  0.35635564810E+02  0.00000000000E+00 0.  1.
</event>
<event>
 7    1  0.7674040E-012  0.5930192E+02  0.7816164E-02  0.1266605E+00
        -11   -1    0    0    0    0  0.00000000000E+00  0.00000000000E+00  0.45593999997E+02  0.45594000000E+02  0.51100000000E-03 0.  1.
         11   -1    0    0    0    0 -0.00000000000E+00 -0.00000000000E+00 -0.45593999997E+02  0.45594000000E+02  0.51100000000E-03 0. -1.
    9900012    2    1    2    0    0  0.29060448735E+02 -0.98345100776E+01  0.86887812960E+01  0.59301918560E+02  0.49999953553E+02 0.  0.
         12    1    1    2    0    0 -0.29060448735E+02  0.98345100776E+01 -0.86887812960E+01  0.31886081440E+02  0.00000000000E+00 0. -1.
         11    1    3    3    0    0  0.24319887723E+02 -0.21258011997E+02  0.41195736593E+01  0.32562722557E+02  0.51100000000E-03 0. -1.
        -11    1    3    3    0    0 -0.61478669784E+01 -0.86182290197E+00  0.78402384369E+01  0.10000417297E+02  0.51100000000E-03 0.  1.
         12    1    3    3    0    0  0.10888427991E+02  0.12285324822E+02 -0.32710308003E+01  0.16738778707E+02  0.00000000000E+00 0. -1.
</event>
<event>
 7    1  0.7674040E-012  0.5930197E+02  0.7816164E-02  0.1266605E+00
        -11   -1    0    0    0    0  0.00000000000E+00  0.00000000000E+00  0.45593999997E+02  0.45594000000E+02  0.51100000000E-03 0.  1.
         11   -1    0    0    0    0 -0.00000000000E+00 -0.00000000000E+00 -0.45593999997E+02  0.45594000000E+02  0.51100000000E-03 0. -1.
    9900012    2    1    2    0    0  0.42696777779E+01 -0.30032279574E+02 -0.98260471135E+01  0.59301965963E+02  0.50000040005E+02 0.  0.
         12    1    1    2    0    0 -0.42696777779E+01  0.30032279574E+02  0.98260471135E+01  0.31886034037E+02  0.00000000000E+00 0. -1.
         11    1    3    3    0    0  0.82278166522E+01 -0.29212403779E+02 -0.23910691801E+02  0.38636545965E+02  0.51100000000E-03 0. -1.
        -11    1    3    3    0    0 -0.76266282302E+01 -0.53238338387E+01  0.90731757778E+01  0.12993505449E+02  0.51100000000E-03 0.  1.
        -12    1    3    3    0    0  0.36684893560E+01  0.45039580439E+01  0.50114689097E+01  0.76719145491E+01  0.00000000000E+00 0.  1.
</event>
<event>
 7    1  0.7674040E-012  0.5930192E+02  0.7816164E-02  0.1266605E+00
        -11   -1    0    0    0    0  0.00000000000E+00  0.00000000000E+00  0.45593999997E+02  0.45594000000E+02  0.51100000000E-03 0. -1.
         11   -1    0    0    0    0 -0.00000000000E+00 -0.00000000000E+00 -0.45593999997E+02  0.45594000000E+02  0.51100000000E-03 0.  1.
    9900012    2    1    2    0    0 -0.21245839541E+02  0.50065941822E+01 -0.23243715244E+02  0.59301921824E+02  0.49999959505E+02 0.  0.
         12    1    1    2    0    0  0.21245839541E+02 -0.50065941822E+01  0.23243715244E+02  0.31886078176E+02  0.00000000000E+00 0. -1.
         11    1    3    3    0    0 -0.14288080031E+02  0.22909499818E+02 -0.22054668946E+02  0.34862628063E+02  0.51100000000E-03 0. -1.
        -11    1    3    3    0    0 -0.10689171088E+01 -0.92072364907E+01 -0.77278855683E+01  0.12067974279E+02  0.51100000000E-03 0.  1.
         12    1    3    3    0    0 -0.58888424015E+01 -0.86956691450E+01  0.65388392706E+01  0.12371319482E+02  0.00000000000E+00 0. -1.
</event>
<event>
 7    1  0.7674040E-012  0.5930158E+02  0.7816164E-02  0.1266606E+00
        -11   -1    0    0    0    0  0.00000000000E+00  0.00000000000E+00  0.45593999997E+02  0.45594000000E+02  0.51100000000E-03 0.  1.
         11   -1    0    0    0    0 -0.00000000000E+00 -0.00000000000E+00 -0.45593999997E+02  0.45594000000E+02  0.51100000000E-03 0. -1.
    9900012    2    1    2    0    0  0.10723107065E+02  0.29970736961E+02 -0.18744030992E+01  0.59301584615E+02  0.49999344513E+02 0.  0.
         12    1    1    2    0    0 -0.10723107065E+02 -0.29970736961E+02  0.18744030992E+01  0.31886415385E+02  0.00000000000E+00 0. -1.
         11    1    3    3    0    0 -0.11956838546E+02  0.21631675840E+02 -0.14073888270E+02  0.28442392990E+02  0.51100000000E-03 0. -1.
        -11    1    3    3    0    0  0.20395627268E+02  0.49127537618E+01  0.35469326509E+01  0.21276688950E+02  0.51100000000E-03 0.  1.
         12    1    3    3    0    0  0.22843183435E+01  0.34263073591E+01  0.86525525201E+01  0.95825026756E+01  0.00000000000E+00 0. -1.
</event>
<event>
 7    1  0.7674040E-012  0.5930197E+02  0.7816164E-02  0.1266605E+00
        -11   -1    0    0    0    0  0.00000000000E+00  0.00000000000E+00  0.45593999997E+02  0.45594000000E+02  0.51100000000E-03 0.  1.
         11   -1    0    0    0    0 -0.00000000000E+00 -0.00000000000E+00 -0.45593999997E+02  0.45594000000E+02  0.51100000000E-03 0. -1.
    9900012    2    1    2    0    0  0.93584717711E+01  0.30381729781E+02 -0.24674781109E+01  0.59301969413E+02  0.50000046296E+02 0.  0.
         12    1    1    2    0    0 -0.93584717711E+01 -0.30381729781E+02  0.24674781109E+01  0.31886030587E+02  0.00000000000E+00 0. -1.
         11    1    3    3    0    0  0.13063167990E+02 -0.74804062887E+01  0.66394401574E+01  0.16452507470E+02  0.51100000000E-03 0. -1.
        -11    1    3    3    0    0 -0.80989693646E+01  0.27046310263E+02 -0.31481496383E+00  0.28234647374E+02  0.51100000000E-03 0.  1.
         12    1    3    3    0    0  0.43942731458E+01  0.10815825806E+02 -0.87921033044E+01  0.14614814569E+02  0.00000000000E+00 0. -1.
</event>
<event>
 7    1  0.7674040E-012  0.5930194E+02  0.7816164E-02  0.1266605E+00
        -11   -1    0    0    0    0  0.00000000000E+00  0.00000000000E+00  0.45593999997E+02  0.45594000000E+02  0.51100000000E-03 0.  1.
         11   -1    0    0    0    0 -0.00000000000E+00 -0.00000000000E+00 -0.45593999997E+02  0.45594000000E+02  0.51100000000E-03 0. -1.
    9900012    2    1    2    0    0 -0.15996673820E+02 -0.15289877835E+02  0.22957503343E+02  0.59301938825E+02  0.49999990511E+02 0.  0.
         12    1    1    2    0    0  0.15996673820E+02  0.15289877835E+02 -0.22957503343E+02  0.31886061175E+02  0.00000000000E+00 0. -1.
         11    1    3    3    0    0 -0.26500289347E+01 -0.30419988121E+02  0.15524273693E+02  0.34254947155E+02  0.51100000000E-03 0. -1.
        -11    1    3    3    0    0  0.10703273845E+01  0.31846300459E+01  0.52007570774E+01  0.61915542215E+01  0.51100000000E-03 0.  1.
         12    1    3    3    0    0 -0.14416972270E+02  0.11945480240E+02  0.22324725726E+01  0.18855437449E+02  0.00000000000E+00 0. -1.
</event>
<event>
 7    1  0.7674040E-012  0.5930177E+02  0.7816164E-02  0.1266605E+00
        -11   -1    0    0    0    0  0.00000000000E+00  0.00000000000E+00  0.45593999997E+02  0.45594000000E+02  0.51100000000E-03 0.  1.
         11   -1    0    0    0    0 -0.00000000000E+00 -0.00000000000E+00 -0.45593999997E+02  0.45594000000E+02  0.51100000000E-03 0. -1.
    9900012    2    1    2    0    0 -0.26405633117E+02 -0.72101763292E+01  0.16355056420E+02  0.59301765141E+02  0.49999673753E+02 0.  0.
         12    1    1    2    0    0  0.26405633117E+02  0.72101763292E+01 -0.16355056420E+02  0.31886234859E+02  0.00000000000E+00 0. -1.
         11    1    3    3    0    0  0.44408103648E+01 -0.58860268206E+01  0.18836599796E+02  0.20228287139E+02  0.51100000000E-03 0. -1.
        -11    1    3    3    0    0 -0.34382961782E+02  0.11981303003E+01 -0.79290212325E+00  0.34412966613E+02  0.51100000000E-03 0.  1.
         12    1    3    3    0    0  0.35365183004E+01 -0.25222798089E+01 -0.16886412531E+01  0.46605113888E+01  0.00000000000E+00 0. -1.
</event>
<event>
 7    1  0.7674040E-012  0.5930195E+02  0.7816164E-02  0.1266605E+00
        -11   -1    0    0    0    0  0.00000000000E+00  0.00000000000E+00  0.45593999997E+02  0.45594000000E+02  0.51100000000E-03 0.  1.
         11   -1    0    0    0    0 -0.00000000000E+00 -0.00000000000E+00 -0.45593999997E+02  0.45594000000E+02  0.51100000000E-03 0. -1.
    9900012    2    1    2    0    0 -0.87143174956E+00 -0.44567520451E+01  0.31561021182E+02  0.59301951481E+02  0.50000013593E+02 0.  0.
         12    1    1    2    0    0  0.87143174956E+00  0.44567520451E+01 -0.31561021182E+02  0.31886048519E+02  0.00000000000E+00 0. -1.
         11    1    3    3    0    0 -0.10518668227E+02 -0.13404216846E+02  0.43499654910E+00  0.17044196455E+02  0.51100000000E-03 0. -1.
        -11    1    3    3    0    0  0.88318414888E+01  0.12704149021E+02  0.34068066521E+02  0.37416974533E+02  0.51100000000E-03 0.  1.
        -12    1    3    3    0    0  0.81539498864E+00 -0.37566842204E+01 -0.29420418878E+01  0.48407804938E+01  0.00000000000E+00 0.  1.
</event>
<event>
 7    1  0.7674040E-012  0.5930195E+02  0.7816164E-02  0.1266605E+00
        -11   -1    0    0    0    0  0.00000000000E+00  0.00000000000E+00  0.45593999997E+02  0.45594000000E+02  0.51100000000E-03 0.  1.
         11   -1    0    0    0    0 -0.00000000000E+00 -0.00000000000E+00 -0.45593999997E+02  0.45594000000E+02  0.51100000000E-03 0. -1.
    9900012    2    1    2    0    0  0.99735693482E+01  0.14508751328E+02  0.26584656306E+02  0.59301954439E+02  0.50000018987E+02 0.  0.
         12    1    1    2    0    0 -0.99735693482E+01 -0.14508751328E+02 -0.26584656306E+02  0.31886045561E+02  0.00000000000E+00 0. -1.
         11    1    3    3    0    0 -0.39487564396E+01 -0.55701861372E+01 -0.55649469154E+01  0.88084212805E+01  0.51100000000E-03 0. -1.
        -11    1    3    3    0    0  0.17784859003E+02  0.10483149676E+01  0.22817471110E+02  0.28948871517E+02  0.51100000000E-03 0.  1.
        -12    1    3    3    0    0 -0.38625332152E+01  0.19030622497E+02  0.93321321117E+01  0.21544661641E+02  0.00000000000E+00 0.  1.
</event>
<event>
 7    1  0.7674040E-012  0.5930199E+02  0.7816164E-02  0.1266605E+00
        -11   -1    0    0    0    0  0.00000000000E+00  0.00000000000E+00  0.45593999997E+02  0.45594000000E+02  0.51100000000E-03 0. -1.
         11   -1    0    0    0    0 -0.00000000000E+00 -0.00000000000E+00 -0.45593999997E+02  0.45594000000E+02  0.51100000000E-03 0.  1.
    9900012    2    1    2    0    0 -0.21016002749E+01  0.27556724197E+02 -0.15903702211E+02  0.59301991842E+02  0.50000087202E+02 0.  0.
         12    1    1    2    0    0  0.21016002749E+01 -0.27556724197E+02  0.15903702211E+02  0.31886008158E+02  0.00000000000E+00 0. -1.
         11    1    3    3    0    0 -0.16942769970E+01 -0.59541514855E+01  0.15652679618E+01  0.63853393417E+01  0.51100000000E-03 0. -1.
        -11    1    3    3    0    0  0.10437069340E+02  0.12222526100E+02 -0.23317311328E+02  0.28319950009E+02  0.51100000000E-03 0.  1.
        -12    1    3    3    0    0 -0.10844392618E+02  0.21288349583E+02  0.58483411546E+01  0.24596702492E+02  0.00000000000E+00 0.  1.
</event>
<event>
 7    1  0.7674040E-012  0.5930195E+02  0.7816164E-02  0.1266605E+00
        -11   -1    0    0    0    0  0.00000000000E+00  0.00000000000E+00  0.45593999997E+02  0.45594000000E+02  0.51100000000E-03 0. -1.
         11   -1    0    0    0    0 -0.00000000000E+00 -0.00000000000E+00 -0.45593999997E+02  0.45594000000E+02  0.51100000000E-03 0.  1.
    9900012    2    1    2    0    0  0.22369554351E+02 -0.12942781405E+02 -0.18676383848E+02  0.59301954996E+02  0.50000020004E+02 0.  0.
         12    1    1    2    0    0 -0.22369554351E+02  0.12942781405E+02  0.18676383848E+02  0.31886045004E+02  0.00000000000E+00 0. -1.
         11    1    3    3    0    0  0.10135153316E+02  0.64655904938E+01  0.32576882945E+01  0.12455429598E+02  0.51100000000E-03 0. -1.
        -11    1    3    3    0    0  0.41581580216E+01 -0.23936157229E+02 -0.26976411800E+02  0.36303673298E+02  0.51100000000E-03 0.  1.
        -12    1    3    3    0    0  0.80762430127E+01  0.45277853299E+01  0.50423396580E+01  0.10542852101E+02  0.00000000000E+00 0.  1.
</event>
<event>
 7    1  0.7674040E-012  0.5930194E+02  0.7816164E-02  0.1266605E+00
        -11   -1    0    0    0    0  0.00000000000E+00  0.00000000000E+00  0.45593999997E+02  0.45594000000E+02  0.51100000000E-03 0. -1.
         11   -1    0    0    0    0 -0.00000000000E+00 -0.00000000000E+00 -0.45593999997E+02  0.45594000000E+02  0.51100000000E-03 0.  1.
    9900012    2    1    2    0    0  0.25996637792E+02  0.61842031441E+01  0.17396869994E+02  0.59301943007E+02  0.49999998138E+02 0.  0.
         12    1    1    2    0    0 -0.25996637792E+02 -0.61842031441E+01 -0.17396869994E+02  0.31886056993E+02  0.00000000000E+00 0. -1.
         11    1    3    3    0    0 -0.63464926723E+01  0.13562708621E+02  0.83352028450E+01  0.17137696494E+02  0.51100000000E-03 0. -1.
        -11    1    3    3    0    0  0.33104159302E+02 -0.10965639319E+02  0.28993105148E+01  0.34993379524E+02  0.51100000000E-03 0.  1.
         12    1    3    3    0    0 -0.76102883829E+00  0.35871338414E+01  0.61623566341E+01  0.71708669891E+01  0.00000000000E+00 0. -1.
</event>
<event>
 7    1  0.7674040E-012  0.5930194E+02  0.7816164E-02  0.1266605E+00
        -11   -1    0    0    0    0  0.00000000000E+00  0.00000000000E+00  0.45593999997E+02  0.45594000000E+02  0.51100000000E-03 0. -1.
         11   -1    0    0    0    0 -0.00000000000E+00 -0.00000000000E+00 -0.45593999997E+02  0.45594000000E+02  0.51100000000E-03 0.  1.
    9900012    2    1    2    0    0 -0.41269885371E+01  0.29454194333E+02 -0.11495170065E+02  0.59301944536E+02  0.50000000928E+02 0.  0.
         12    1    1    2    0    0  0.41269885371E+01 -0.29454194333E+02  0.11495170065E+02  0.31886055464E+02  0.00000000000E+00 0. -1.
         11    1    3    3    0    0  0.39359207655E+00 -0.73161375545E+01  0.11125049226E+02  0.13320942308E+02  0.51100000000E-03 0. -1.
        -11    1    3    3    0    0 -0.38695844980E+01  0.36187017914E+02 -0.24524722619E+02  0.43885487003E+02  0.51100000000E-03 0.  1.
        -12    1    3    3    0    0 -0.65099611564E+00  0.58331397329E+00  0.19045033275E+01  0.20955152251E+01  0.00000000000E+00 0.  1.
</event>
<event>
 7    1  0.7674040E-012  0.5930197E+02  0.7816164E-02  0.1266605E+00
        -11   -1    0    0    0    0  0.00000000000E+00  0.00000000000E+00  0.45593999997E+02  0.45594000000E+02  0.51100000000E-03 0. -1.
         11   -1    0    0    0    0 -0.00000000000E+00 -0.00000000000E+00 -0.45593999997E+02  0.45594000000E+02  0.51100000000E-03 0.  1.
    9900012    2    1    2    0    0 -0.14324317715E+02  0.16036999141E+02 -0.23544590913E+02  0.59301965742E+02  0.50000039602E+02 0.  0.
         12    1    1    2    0    0  0.14324317715E+02 -0.16036999141E+02  0.23544590913E+02  0.31886034258E+02  0.00000000000E+00 0. -1.
         11    1    3    3    0    0 -0.79221137722E+01 -0.10676767941E+02 -0.16314107125E+02  0.21045269108E+02  0.51100000000E-03 0. -1.
        -11    1    3    3    0    0 -0.94365983703E+01  0.29206611309E+02 -0.11200033396E+02  0.32672867663E+02  0.51100000000E-03 0.  1.
         12    1    3    3    0    0  0.30343944276E+01 -0.24928442273E+01  0.39695496085E+01  0.55838289710E+01  0.00000000000E+00 0. -1.
</event>
<event>
 7    1  0.7674040E-012  0.5930198E+02  0.7816164E-02  0.1266605E+00
        -11   -1    0    0    0    0  0.00000000000E+00  0.00000000000E+00  0.45593999997E+02  0.45594000000E+02  0.51100000000E-03 0.  1.
         11   -1    0    0    0    0 -0.00000000000E+00 -0.00000000000E+00 -0.45593999997E+02  0.45594000000E+02  0.51100000000E-03 0. -1.
    9900012    2    1    2    0    0  0.29911786807E+02  0.54785827844E+01 -0.95910550248E+01  0.59301981186E+02  0.50000067768E+02 0.  0.
         12    1    1    2    0    0 -0.29911786807E+02 -0.54785827844E+01  0.95910550248E+01  0.31886018814E+02  0.00000000000E+00 0. -1.
         11    1    3    3    0    0  0.28915877249E+02  0.97906880504E+01 -0.75840478487E+00  0.30537856959E+02  0.51100000000E-03 0.  1.
        -11    1    3    3    0    0 -0.24093680077E+01  0.12356796271E+01 -0.17620835698E+02  0.17827669767E+02  0.51100000000E-03 0. -1.
         12    1    3    3    0    0  0.34052775661E+01 -0.55477848932E+01  0.87881854584E+01  0.10936454461E+02  0.00000000000E+00 0. -1.
</event>
<event>
 7    1  0.7674040E-012  0.5930196E+02  0.7816164E-02  0.1266605E+00
        -11   -1    0    0    0    0  0.00000000000E+00  0.00000000000E+00  0.45593999997E+02  0.45594000000E+02  0.51100000000E-03 0. -1.
         11   -1    0    0    0    0 -0.00000000000E+00 -0.00000000000E+00 -0.45593999997E+02  0.45594000000E+02  0.51100000000E-03 0.  1.
    9900012    2    1    2    0    0 -0.22584018651E+01 -0.21025293092E+02 -0.23865373714E+02  0.59301962442E+02  0.50000033584E+02 0.  0.
         12    1    1    2    0    0  0.22584018651E+01  0.21025293092E+02  0.23865373714E+02  0.31886037558E+02  0.00000000000E+00 0. -1.
         11    1    3    3    0    0 -0.24905752657E+01  0.96778230499E+01 -0.71505345440E+01  0.12287935899E+02  0.51100000000E-03 0. -1.
        -11    1    3    3    0    0 -0.45463674843E+01 -0.21778913349E+02 -0.25335572857E+02  0.33717677503E+02  0.51100000000E-03 0.  1.
        -12    1    3    3    0    0  0.47785408848E+01 -0.89242027933E+01  0.86207336870E+01  0.13296349040E+02  0.00000000000E+00 0.  1.
</event>
<event>
 7    1  0.7674040E-012  0.5930194E+02  0.7816164E-02  0.1266605E+00
        -11   -1    0    0    0    0  0.00000000000E+00  0.00000000000E+00  0.45593999997E+02  0.45594000000E+02  0.51100000000E-03 0.  1.
         11   -1    0    0    0    0 -0.00000000000E+00 -0.00000000000E+00 -0.45593999997E+02  0.45594000000E+02  0.51100000000E-03 0. -1.
    9900012    2    1    2    0    0 -0.17435217698E+02  0.22814454499E+02  0.13864862434E+02  0.59301944104E+02  0.50000000140E+02 0.  0.
         12    1    1    2    0    0  0.17435217698E+02 -0.22814454499E+02 -0.13864862434E+02  0.31886055896E+02  0.00000000000E+00 0. -1.
         11    1    3    3    0    0  0.75743930092E+01  0.22694789138E+02  0.13932772901E+02  0.27686586002E+02  0.51100000000E-03 0. -1.
        -11    1    3    3    0    0 -0.26124995721E+02  0.19478939295E+01  0.44898909912E+01  0.26579481063E+02  0.51100000000E-03 0.  1.
         12    1    3    3    0    0  0.11153850145E+01 -0.18282285686E+01 -0.45578014575E+01  0.50358770394E+01  0.00000000000E+00 0. -1.
</event>
<event>
 7    1  0.7674040E-012  0.5930195E+02  0.7816164E-02  0.1266605E+00
        -11   -1    0    0    0    0  0.00000000000E+00  0.00000000000E+00  0.45593999997E+02  0.45594000000E+02  0.51100000000E-03 0. -1.
         11   -1    0    0    0    0 -0.00000000000E+00 -0.00000000000E+00 -0.45593999997E+02  0.45594000000E+02  0.51100000000E-03 0.  1.
    9900012    2    1    2    0    0  0.23181660254E+02  0.94718540184E+01 -0.19738657020E+02  0.59301953339E+02  0.50000016982E+02 0.  0.
         12    1    1    2    0    0 -0.23181660254E+02 -0.94718540184E+01  0.19738657020E+02  0.31886046661E+02  0.00000000000E+00 0. -1.
         11    1    3    3    0    0  0.25429206062E+02  0.24872601973E+02 -0.16562536841E+02  0.39237844955E+02  0.51100000000E-03 0.  1.
        -11    1    3    3    0    0  0.36625526199E+01 -0.95207916323E+01 -0.52507163885E+01  0.11473002565E+02  0.51100000000E-03 0. -1.
         12    1    3    3    0    0 -0.59100984271E+01 -0.58799563222E+01  0.20745962101E+01  0.85911058196E+01  0.00000000000E+00 0. -1.
</event>
<event>
 7    1  0.7674040E-012  0.5930193E+02  0.7816164E-02  0.1266605E+00
        -11   -1    0    0    0    0  0.00000000000E+00  0.00000000000E+00  0.45593999997E+02  0.45594000000E+02  0.51100000000E-03 0. -1.
         11   -1    0    0    0    0 -0.00000000000E+00 -0.00000000000E+00 -0.45593999997E+02  0.45594000000E+02  0.51100000000E-03 0.  1.
    9900012    2    1    2    0    0 -0.30810384938E+02 -0.71080830709E+01 -0.41130314705E+01  0.59301926349E+02  0.49999967759E+02 0.  0.
         12    1    1    2    0    0  0.30810384938E+02  0.71080830709E+01  0.41130314705E+01  0.31886073651E+02  0.00000000000E+00 0. -1.
         11    1    3    3    0    0 -0.12278218807E+02 -0.26221977843E+01 -0.19885140674E+02  0.23517002322E+02  0.51100000000E-03 0. -1.
        -11    1    3    3    0    0 -0.24397460149E+02 -0.18238319686E+01  0.81090347347E+01  0.25774383977E+02  0.51100000000E-03 0.  1.
         12    1    3    3    0    0  0.58652940186E+01 -0.26620533180E+01  0.76630744692E+01  0.10010540051E+02  0.00000000000E+00 0. -1.
</event>
<event>
 7    1  0.7674040E-012  0.5930187E+02  0.7816164E-02  0.1266605E+00
        -11   -1    0    0    0    0  0.00000000000E+00  0.00000000000E+00  0.45593999997E+02  0.45594000000E+02  0.51100000000E-03 0.  1.
         11   -1    0    0    0    0 -0.00000000000E+00 -0.00000000000E+00 -0.45593999997E+02  0.45594000000E+02  0.51100000000E-03 0. -1.
    9900012    2    1    2    0    0  0.10928406684E+02  0.29942896843E+02 -0.84745534025E+00  0.59301869401E+02  0.49999863899E+02 0.  0.
         12    1    1    2    0    0 -0.10928406684E+02 -0.29942896843E+02  0.84745534025E+00  0.31886130599E+02  0.00000000000E+00 0. -1.
         11    1    3    3    0    0  0.11109591384E+02  0.32671816761E+02  0.96884192928E-03  0.34508993500E+02  0.51100000000E-03 0.  1.
        -11    1    3    3    0    0  0.82676137303E+01 -0.76330021708E+01  0.61051004010E+01  0.12801890880E+02  0.51100000000E-03 0. -1.
        -12    1    3    3    0    0 -0.84487984304E+01  0.49040822532E+01 -0.69535245832E+01  0.11990985022E+02  0.00000000000E+00 0.  1.
</event>
<event>
 7    1  0.7674040E-012  0.5930195E+02  0.7816164E-02  0.1266605E+00
        -11   -1    0    0    0    0  0.00000000000E+00  0.00000000000E+00  0.45593999997E+02  0.45594000000E+02  0.51100000000E-03 0.  1.
         11   -1    0    0    0    0 -0.00000000000E+00 -0.00000000000E+00 -0.45593999997E+02  0.45594000000E+02  0.51100000000E-03 0. -1.
    9900012    2    1    2    0    0 -0.25395134468E+02  0.42873807425E+01  0.18799620965E+02  0.59301949183E+02  0.50000009402E+02 0.  0.
         12    1    1    2    0    0  0.25395134468E+02 -0.42873807425E+01 -0.18799620965E+02  0.31886050817E+02  0.00000000000E+00 0. -1.
         11    1    3    3    0    0 -0.26081676833E+02 -0.45926519371E+01  0.23767630127E+02  0.35584358367E+02  0.51100000000E-03 0. -1.
        -11    1    3    3    0    0  0.10988809431E+02  0.50274109561E+01 -0.14570665598E+01  0.12171763917E+02  0.51100000000E-03 0.  1.
         12    1    3    3    0    0 -0.10302267065E+02  0.38526217235E+01 -0.35109426022E+01  0.11545826899E+02  0.00000000000E+00 0. -1.
</event>
<event>
 7    1  0.7674040E-012  0.5930192E+02  0.7816164E-02  0.1266605E+00
        -11   -1    0    0    0    0  0.00000000000E+00  0.00000000000E+00  0.45593999997E+02  0.45594000000E+02  0.51100000000E-03 0. -1.
         11   -1    0    0    0    0 -0.00000000000E+00 -0.00000000000E+00 -0.45593999997E+02  0.45594000000E+02  0.51100000000E-03 0.  1.
    9900012    2    1    2    0    0 -0.24049976008E+02 -0.19215975344E+02 -0.83106770432E+01  0.59301915146E+02  0.49999947326E+02 0.  0.
         12    1    1    2    0    0  0.24049976008E+02  0.19215975344E+02  0.83106770432E+01  0.31886084854E+02  0.00000000000E+00 0. -1.
         11    1    3    3    0    0 -0.86256255602E+01  0.12655551965E+02 -0.13473991504E+02  0.20398844555E+02  0.51100000000E-03 0. -1.
        -11    1    3    3    0    0 -0.11376937675E+02 -0.25338501723E+02 -0.27019136221E+01  0.27906535398E+02  0.51100000000E-03 0.  1.
         12    1    3    3    0    0 -0.40474127727E+01 -0.65330255852E+01  0.78652280831E+01  0.10996535193E+02  0.00000000000E+00 0. -1.
</event>
<event>
 7    1  0.7674040E-012  0.5930196E+02  0.7816164E-02  0.1266605E+00
        -11   -1    0    0    0    0  0.00000000000E+00  0.00000000000E+00  0.45593999997E+02  0.45594000000E+02  0.51100000000E-03 0.  1.
         11   -1    0    0    0    0 -0.00000000000E+00 -0.00000000000E+00 -0.45593999997E+02  0.45594000000E+02  0.51100000000E-03 0. -1.
    9900012    2    1    2    0    0  0.96220360951E+01  0.12907208251E+02  0.27523443220E+02  0.59301960262E+02  0.50000029608E+02 0.  0.
         12    1    1    2    0    0 -0.96220360951E+01 -0.12907208251E+02 -0.27523443220E+02  0.31886039738E+02  0.00000000000E+00 0. -1.
         11    1    3    3    0    0  0.13205448681E+01 -0.76883116526E+01 -0.30367430988E+01  0.83711279840E+01  0.51100000000E-03 0. -1.
        -11    1    3    3    0    0  0.17839670909E+01  0.28554008159E+02  0.15069622514E+02  0.32335853839E+02  0.51100000000E-03 0.  1.
        -12    1    3    3    0    0  0.65175241361E+01 -0.79584882552E+01  0.15490563804E+02  0.18594978439E+02  0.00000000000E+00 0.  1.
</event>
<event>
 7    1  0.7674040E-012  0.5930195E+02  0.7816164E-02  0.1266605E+00
        -11   -1    0    0    0    0  0.00000000000E+00  0.00000000000E+00  0.45593999997E+02  0.45594000000E+02  0.51100000000E-03 0. -1.
         11   -1    0    0    0    0 -0.00000000000E+00 -0.00000000000E+00 -0.45593999997E+02  0.45594000000E+02  0.51100000000E-03 0.  1.
    9900012    2    1    2    0    0  0.14912116472E+02 -0.24117713799E+02 -0.14583718560E+02  0.59301950016E+02  0.50000010920E+02 0.  0.
         12    1    1    2    0    0 -0.14912116472E+02  0.24117713799E+02  0.14583718560E+02  0.31886049984E+02  0.00000000000E+00 0. -1.
         11    1    3    3    0    0 -0.11091884585E+01  0.98889886288E+01  0.96003700293E+01  0.13827129134E+02  0.51100000000E-03 0. -1.
        -11    1    3    3    0    0  0.71356825436E+01 -0.83941050209E+01 -0.99975010926E+01  0.14877129858E+02  0.51100000000E-03 0.  1.
         12    1    3    3    0    0  0.88856223872E+01 -0.25612597407E+02 -0.14186587497E+02  0.30597691023E+02  0.00000000000E+00 0. -1.
</event>
<event>
 7    1  0.7674040E-012  0.5930197E+02  0.7816164E-02  0.1266605E+00
        -11   -1    0    0    0    0  0.00000000000E+00  0.00000000000E+00  0.45593999997E+02  0.45594000000E+02  0.51100000000E-03 0. -1.
         11   -1    0    0    0    0 -0.00000000000E+00 -0.00000000000E+00 -0.45593999997E+02  0.45594000000E+02  0.51100000000E-03 0.  1.
    9900012    2    1    2    0    0 -0.23808449276E+02  0.19609264634E+02 -0.80841447172E+01  0.59301969952E+02  0.50000047280E+02 0.  0.
         12    1    1    2    0    0  0.23808449276E+02 -0.19609264634E+02  0.80841447172E+01  0.31886030048E+02  0.00000000000E+00 0. -1.
         11    1    3    3    0    0 -0.20697782562E+02 -0.28551096256E+01 -0.14108428407E+01  0.20941354582E+02  0.51100000000E-03 0. -1.
        -11    1    3    3    0    0 -0.15951493883E+01  0.25734671103E+02 -0.14615831068E+02  0.29638493829E+02  0.51100000000E-03 0.  1.
        -12    1    3    3    0    0 -0.15155173256E+01 -0.32702968437E+01  0.79425291920E+01  0.87221215410E+01  0.00000000000E+00 0.  1.
</event>
<event>
 7    1  0.7674040E-012  0.5930193E+02  0.7816164E-02  0.1266605E+00
        -11   -1    0    0    0    0  0.00000000000E+00  0.00000000000E+00  0.45593999997E+02  0.45594000000E+02  0.51100000000E-03 0.  1.
         11   -1    0    0    0    0 -0.00000000000E+00 -0.00000000000E+00 -0.45593999997E+02  0.45594000000E+02  0.51100000000E-03 0. -1.
    9900012    2    1    2    0    0  0.14546693130E+02 -0.11265433201E+01  0.28352175336E+02  0.59301933652E+02  0.49999981077E+02 0.  0.
         12    1    1    2    0    0 -0.14546693130E+02  0.11265433201E+01 -0.28352175336E+02  0.31886066348E+02  0.00000000000E+00 0. -1.
         11    1    3    3    0    0  0.43786182355E+01  0.22641622169E+02  0.65083727194E+01  0.23961933724E+02  0.51100000000E-03 0. -1.
        -11    1    3    3    0    0  0.93919125535E+01 -0.92851981148E+01  0.11665218867E+02  0.17621017477E+02  0.51100000000E-03 0.  1.
         12    1    3    3    0    0  0.77616234091E+00 -0.14482967374E+02  0.10178583750E+02  0.17718982451E+02  0.00000000000E+00 0. -1.
</event>
<event>
 7    1  0.7674040E-012  0.5930193E+02  0.7816164E-02  0.1266605E+00
        -11   -1    0    0    0    0  0.00000000000E+00  0.00000000000E+00  0.45593999997E+02  0.45594000000E+02  0.51100000000E-03 0. -1.
         11   -1    0    0    0    0 -0.00000000000E+00 -0.00000000000E+00 -0.45593999997E+02  0.45594000000E+02  0.51100000000E-03 0.  1.
    9900012    2    1    2    0    0  0.22799721671E+01  0.24154395856E+02 -0.20690301376E+02  0.59301926499E+02  0.49999968033E+02 0.  0.
         12    1    1    2    0    0 -0.22799721671E+01 -0.24154395856E+02  0.20690301376E+02  0.31886073501E+02  0.00000000000E+00 0. -1.
         11    1    3    3    0    0 -0.11127940290E+02  0.95279928964E+01 -0.76072484748E+01  0.16507087368E+02  0.51100000000E-03 0. -1.
        -11    1    3    3    0    0  0.22876004698E+02  0.19525113013E+02 -0.92401921433E+01  0.31463038318E+02  0.51100000000E-03 0.  1.
         12    1    3    3    0    0 -0.94680922407E+01 -0.48987100536E+01 -0.38428607583E+01  0.11331800813E+02  0.00000000000E+00 0. -1.
</event>
<event>
 7    1  0.7674040E-012  0.5930195E+02  0.7816164E-02  0.1266605E+00
        -11   -1    0    0    0    0  0.00000000000E+00  0.00000000000E+00  0.45593999997E+02  0.45594000000E+02  0.51100000000E-03 0.  1.
         11   -1    0    0    0    0 -0.00000000000E+00 -0.00000000000E+00 -0.45593999997E+02  0.45594000000E+02  0.51100000000E-03 0. -1.
    9900012    2    1    2    0    0 -0.16049288924E+02  0.20968174492E+02 -0.17873893560E+02  0.59301951523E+02  0.50000013670E+02 0.  0.
         12    1    1    2    0    0  0.16049288924E+02 -0.20968174492E+02  0.17873893560E+02  0.31886048477E+02  0.00000000000E+00 0. -1.
         11    1    3    3    0    0 -0.19795738604E+02  0.10468589463E+02 -0.24051417228E+02  0.32862338675E+02  0.51100000000E-03 0. -1.
        -11    1    3    3    0    0 -0.53716760053E+01 -0.99488388302E+00  0.98960955581E+01  0.11303866799E+02  0.51100000000E-03 0.  1.
        -12    1    3    3    0    0  0.91181256854E+01  0.11494468912E+02 -0.37185718897E+01  0.15135746050E+02  0.00000000000E+00 0.  1.
</event>
<event>
 7    1  0.7674040E-012  0.5930194E+02  0.7816164E-02  0.1266605E+00
        -11   -1    0    0    0    0  0.00000000000E+00  0.00000000000E+00  0.45593999997E+02  0.45594000000E+02  0.51100000000E-03 0. -1.
         11   -1    0    0    0    0 -0.00000000000E+00 -0.00000000000E+00 -0.45593999997E+02  0.45594000000E+02  0.51100000000E-03 0.  1.
    9900012    2    1    2    0    0  0.29692498423E+02  0.29495692269E+01  0.11241722055E+02  0.59301941354E+02  0.49999995124E+02 0.  0.
         12    1    1    2    0    0 -0.29692498423E+02 -0.29495692269E+01 -0.11241722055E+02  0.31886058646E+02  0.00000000000E+00 0. -1.
         11    1    3    3    0    0 -0.54473826310E+01  0.47189011744E+01  0.20821992219E+02  0.22034004766E+02  0.51100000000E-03 0. -1.
        -11    1    3    3    0    0  0.20963463787E+02 -0.47763722128E+01 -0.50689264896E+01  0.22090146253E+02  0.51100000000E-03 0.  1.
        -12    1    3    3    0    0  0.14176417267E+02  0.30070402652E+01 -0.45113436747E+01  0.15177790335E+02  0.00000000000E+00 0.  1.
</event>
<event>
 7    1  0.7674040E-012  0.5930190E+02  0.7816164E-02  0.1266605E+00
        -11   -1    0    0    0    0  0.00000000000E+00  0.00000000000E+00  0.45593999997E+02  0.45594000000E+02  0.51100000000E-03 0.  1.
         11   -1    0    0    0    0 -0.00000000000E+00 -0.00000000000E+00 -0.45593999997E+02  0.45594000000E+02  0.51100000000E-03 0. -1.
    9900012    2    1    2    0    0  0.10867689421E+02 -0.25995315472E+02  0.14928498961E+02  0.59301903013E+02  0.49999925199E+02 0.  0.
         12    1    1    2    0    0 -0.10867689421E+02  0.25995315472E+02 -0.14928498961E+02  0.31886096987E+02  0.00000000000E+00 0. -1.
         11    1    3    3    0    0  0.94562709785E+01 -0.71353331670E+01 -0.13963035032E+02  0.18311209348E+02  0.51100000000E-03 0. -1.
        -11    1    3    3    0    0  0.10976403847E+02 -0.46696711919E+01  0.12881594270E+02  0.17556273569E+02  0.51100000000E-03 0.  1.
         12    1    3    3    0    0 -0.95649854041E+01 -0.14190311113E+02  0.16009939723E+02  0.23434420095E+02  0.00000000000E+00 0. -1.
</event>
<event>
 7    1  0.7674040E-012  0.5930195E+02  0.7816164E-02  0.1266605E+00
        -11   -1    0    0    0    0  0.00000000000E+00  0.00000000000E+00  0.45593999997E+02  0.45594000000E+02  0.51100000000E-03 0.  1.
         11   -1    0    0    0    0 -0.00000000000E+00 -0.00000000000E+00 -0.45593999997E+02  0.45594000000E+02  0.51100000000E-03 0. -1.
    9900012    2    1    2    0    0 -0.12205931872E+02  0.19871305000E+02  0.21745500950E+02  0.59301947457E+02  0.50000006254E+02 0.  0.
         12    1    1    2    0    0  0.12205931872E+02 -0.19871305000E+02 -0.21745500950E+02  0.31886052543E+02  0.00000000000E+00 0. -1.
         11    1    3    3    0    0  0.69152969248E+01 -0.10909185708E+02  0.16910786960E+02  0.21279247643E+02  0.51100000000E-03 0. -1.
        -11    1    3    3    0    0 -0.61651598710E+01  0.58205510820E+01 -0.27184701117E+01  0.89038245233E+01  0.51100000000E-03 0.  1.
         12    1    3    3    0    0 -0.12956068925E+02  0.24959939626E+02  0.75531841017E+01  0.29118875291E+02  0.00000000000E+00 0. -1.
</event>
<event>
 7    1  0.7674040E-012  0.5930193E+02  0.7816164E-02  0.1266605E+00
        -11   -1    0    0    0    0  0.00000000000E+00  0.00000000000E+00  0.45593999997E+02  0.45594000000E+02  0.51100000000E-03 0.  1.
         11   -1    0    0    0    0 -0.00000000000E+00 -0.00000000000E+00 -0.45593999997E+02  0.45594000000E+02  0.51100000000E-03 0. -1.
    9900012    2    1    2    0    0  0.52335858772E+01 -0.23518921705E+01  0.31365582892E+02  0.59301927679E+02  0.49999970184E+02 0.  0.
         12    1    1    2    0    0 -0.52335858772E+01  0.23518921705E+01 -0.31365582892E+02  0.31886072321E+02  0.00000000000E+00 0. -1.
         11    1    3    3    0    0 -0.12908799017E+02  0.36795227958E+01 -0.17419398252E+01  0.13535521220E+02  0.51100000000E-03 0. -1.
        -11    1    3    3    0    0  0.65081232703E+01 -0.15351189613E+02  0.16713672731E+02  0.23608505829E+02  0.51100000000E-03 0.  1.
         12    1    3    3    0    0  0.11634261624E+02  0.93197746470E+01  0.16393849986E+02  0.22157900631E+02  0.00000000000E+00 0. -1.
</event>
<event>
 7    1  0.7674040E-012  0.5930194E+02  0.7816164E-02  0.1266605E+00
        -11   -1    0    0    0    0  0.00000000000E+00  0.00000000000E+00  0.45593999997E+02  0.45594000000E+02  0.51100000000E-03 0.  1.
         11   -1    0    0    0    0 -0.00000000000E+00 -0.00000000000E+00 -0.45593999997E+02  0.45594000000E+02  0.51100000000E-03 0. -1.
    9900012    2    1    2    0    0 -0.24998396383E+02  0.18802166626E+02 -0.61870295605E+01  0.59301943073E+02  0.49999998259E+02 0.  0.
         12    1    1    2    0    0  0.24998396383E+02 -0.18802166626E+02  0.61870295605E+01  0.31886056927E+02  0.00000000000E+00 0. -1.
         11    1    3    3    0    0  0.47750727746E+01 -0.12903060263E+02 -0.14049582780E+01  0.13829829796E+02  0.51100000000E-03 0. -1.
        -11    1    3    3    0    0 -0.21838251406E+02  0.20294678961E+02  0.22474379480E+01  0.29897059993E+02  0.51100000000E-03 0.  1.
        -12    1    3    3    0    0 -0.79352177519E+01  0.11410547928E+02 -0.70295092304E+01  0.15575053284E+02  0.00000000000E+00 0.  1.
</event>
<event>
 7    1  0.7674040E-012  0.5930195E+02  0.7816164E-02  0.1266605E+00
        -11   -1    0    0    0    0  0.00000000000E+00  0.00000000000E+00  0.45593999997E+02  0.45594000000E+02  0.51100000000E-03 0.  1.
         11   -1    0    0    0    0 -0.00000000000E+00 -0.00000000000E+00 -0.45593999997E+02  0.45594000000E+02  0.51100000000E-03 0. -1.
    9900012    2    1    2    0    0  0.27597523494E+01  0.22926355699E+02  0.21988325477E+02  0.59301945432E+02  0.50000002561E+02 0.  0.
         12    1    1    2    0    0 -0.27597523494E+01 -0.22926355699E+02 -0.21988325477E+02  0.31886054568E+02  0.00000000000E+00 0. -1.
         11    1    3    3    0    0  0.50013943568E+01 -0.12726349396E+02 -0.30213616675E+01  0.14003661702E+02  0.51100000000E-03 0. -1.
        -11    1    3    3    0    0  0.48869685334E+01  0.14972610493E+02  0.12435595713E+02  0.20067525194E+02  0.51100000000E-03 0.  1.
         12    1    3    3    0    0 -0.71286105407E+01  0.20680094602E+02  0.12574091431E+02  0.25230758537E+02  0.00000000000E+00 0. -1.
</event>
<event>
 7    1  0.7674040E-012  0.5930194E+02  0.7816164E-02  0.1266605E+00
        -11   -1    0    0    0    0  0.00000000000E+00  0.00000000000E+00  0.45593999997E+02  0.45594000000E+02  0.51100000000E-03 0. -1.
         11   -1    0    0    0    0 -0.00000000000E+00 -0.00000000000E+00 -0.45593999997E+02  0.45594000000E+02  0.51100000000E-03 0.  1.
    9900012    2    1    2    0    0 -0.28686590409E+02  0.38779856545E+01 -0.13370175708E+02  0.59301939715E+02  0.49999992134E+02 0.  0.
         12    1    1    2    0    0  0.28686590409E+02 -0.38779856545E+01  0.13370175708E+02  0.31886060285E+02  0.00000000000E+00 0. -1.
         11    1    3    3    0    0 -0.40109500084E+01 -0.17648883076E+02 -0.35632001682E+01  0.18446332684E+02  0.51100000000E-03 0. -1.
        -11    1    3    3    0    0 -0.14727267899E+02  0.19322712844E+02  0.30108163171E+01  0.24481108361E+02  0.51100000000E-03 0.  1.
        -12    1    3    3    0    0 -0.99483725024E+01  0.22041558865E+01 -0.12817791857E+02  0.16374498670E+02  0.00000000000E+00 0.  1.
</event>
<event>
 7    1  0.7674040E-012  0.5930193E+02  0.7816164E-02  0.1266605E+00
        -11   -1    0    0    0    0  0.00000000000E+00  0.00000000000E+00  0.45593999997E+02  0.45594000000E+02  0.51100000000E-03 0.  1.
         11   -1    0    0    0    0 -0.00000000000E+00 -0.00000000000E+00 -0.45593999997E+02  0.45594000000E+02  0.51100000000E-03 0. -1.
    9900012    2    1    2    0    0  0.13426933681E+01  0.43128366071E+01  0.31564505260E+02  0.59301931296E+02  0.49999976781E+02 0.  0.
         12    1    1    2    0    0 -0.13426933681E+01 -0.43128366071E+01 -0.31564505260E+02  0.31886068704E+02  0.00000000000E+00 0. -1.
         11    1    3    3    0    0 -0.12045183051E+02 -0.12801566185E+02  0.17409965083E+02  0.24740117542E+02  0.51100000000E-03 0. -1.
        -11    1    3    3    0    0  0.93940146831E+01  0.15819185132E+02  0.20122089920E+02  0.27265227546E+02  0.51100000000E-03 0.  1.
         12    1    3    3    0    0  0.39938617364E+01  0.12952176601E+01 -0.59675497436E+01  0.72965862086E+01  0.00000000000E+00 0. -1.
</event>
<event>
 7    1  0.7674040E-012  0.5930198E+02  0.7816164E-02  0.1266605E+00
        -11   -1    0    0    0    0  0.00000000000E+00  0.00000000000E+00  0.45593999997E+02  0.45594000000E+02  0.51100000000E-03 0. -1.
         11   -1    0    0    0    0 -0.00000000000E+00 -0.00000000000E+00 -0.45593999997E+02  0.45594000000E+02  0.51100000000E-03 0.  1.
    9900012    2    1    2    0    0  0.15181098258E+02  0.28022878504E+02 -0.98523178656E+00  0.59301981973E+02  0.50000069202E+02 0.  0.
         12    1    1    2    0    0 -0.15181098258E+02 -0.28022878504E+02  0.98523178656E+00  0.31886018027E+02  0.00000000000E+00 0. -1.
         11    1    3    3    0    0  0.50331164302E+01 -0.99050821716E+01  0.71838511914E+01  0.13230670128E+02  0.51100000000E-03 0. -1.
        -11    1    3    3    0    0  0.22579431410E+01  0.35654899314E+02 -0.19655030852E+01  0.35780348726E+02  0.51100000000E-03 0.  1.
        -12    1    3    3    0    0  0.78900386865E+01  0.22730613615E+01 -0.62035798927E+01  0.10290963119E+02  0.00000000000E+00 0.  1.
</event>
<event>
 7    1  0.7674040E-012  0.5930194E+02  0.7816164E-02  0.1266605E+00
        -11   -1    0    0    0    0  0.00000000000E+00  0.00000000000E+00  0.45593999997E+02  0.45594000000E+02  0.51100000000E-03 0.  1.
         11   -1    0    0    0    0 -0.00000000000E+00 -0.00000000000E+00 -0.45593999997E+02  0.45594000000E+02  0.51100000000E-03 0. -1.
    9900012    2    1    2    0    0  0.18803018536E+01  0.25186933297E+01  0.31730761417E+02  0.59301943937E+02  0.49999999834E+02 0.  0.
         12    1    1    2    0    0 -0.18803018536E+01 -0.25186933297E+01 -0.31730761417E+02  0.31886056063E+02  0.00000000000E+00 0. -1.
         11    1    3    3    0    0 -0.46343114813E+01  0.14050941537E+02 -0.29951041098E+01  0.15095577163E+02  0.51100000000E-03 0. -1.
        -11    1    3    3    0    0  0.74016016056E+01 -0.59764451338E+01  0.36951147719E+02  0.38156112496E+02  0.51100000000E-03 0.  1.
         12    1    3    3    0    0 -0.88698827071E+00 -0.55558030739E+01 -0.22252821921E+01  0.60502542775E+01  0.00000000000E+00 0. -1.
</event>
<event>
 7    1  0.7674040E-012  0.5930194E+02  0.7816164E-02  0.1266605E+00
        -11   -1    0    0    0    0  0.00000000000E+00  0.00000000000E+00  0.45593999997E+02  0.45594000000E+02  0.51100000000E-03 0.  1.
         11   -1    0    0    0    0 -0.00000000000E+00 -0.00000000000E+00 -0.45593999997E+02  0.45594000000E+02  0.51100000000E-03 0. -1.
    9900012    2    1    2    0    0  0.13217682054E+02 -0.73038289218E+01  0.28083229585E+02  0.59301940040E+02  0.49999992728E+02 0.  0.
         12    1    1    2    0    0 -0.13217682054E+02  0.73038289218E+01 -0.28083229585E+02  0.31886059960E+02  0.00000000000E+00 0. -1.
         11    1    3    3    0    0  0.71431233652E+01  0.16705043624E+02  0.20374643541E+02  0.27298512662E+02  0.51100000000E-03 0. -1.
        -11    1    3    3    0    0  0.43823974422E+01 -0.15920780319E+02 -0.46333850523E+01  0.17150653358E+02  0.51100000000E-03 0.  1.
        -12    1    3    3    0    0  0.16921612467E+01 -0.80880922266E+01  0.12341971097E+02  0.14852774020E+02  0.00000000000E+00 0.  1.
</event>
<event>
 7    1  0.7674040E-012  0.5930195E+02  0.7816164E-02  0.1266605E+00
        -11   -1    0    0    0    0  0.00000000000E+00  0.00000000000E+00  0.45593999997E+02  0.45594000000E+02  0.51100000000E-03 0. -1.
         11   -1    0    0    0    0 -0.00000000000E+00 -0.00000000000E+00 -0.45593999997E+02  0.45594000000E+02  0.51100000000E-03 0.  1.
    9900012    2    1    2    0    0 -0.46276642304E+01 -0.15428237408E+02 -0.27518620075E+02  0.59301949185E+02  0.50000009406E+02 0.  0.
         12    1    1    2    0    0  0.46276642304E+01  0.15428237408E+02  0.27518620075E+02  0.31886050815E+02  0.00000000000E+00 0. -1.
         11    1    3    3    0    0 -0.39985184830E+01 -0.14652822930E+02  0.86977391082E+01  0.17502686529E+02  0.51100000000E-03 0. -1.
        -11    1    3    3    0    0 -0.29641281258E+00  0.88839001254E+01 -0.27071883494E+02  0.28493831230E+02  0.51100000000E-03 0.  1.
        -12    1    3    3    0    0 -0.33273293477E+00 -0.96593146032E+01 -0.91444756890E+01  0.13305431426E+02  0.00000000000E+00 0.  1.
</event>
<event>
 7    1  0.7674040E-012  0.5930195E+02  0.7816164E-02  0.1266605E+00
        -11   -1    0    0    0    0  0.00000000000E+00  0.00000000000E+00  0.45593999997E+02  0.45594000000E+02  0.51100000000E-03 0. -1.
         11   -1    0    0    0    0 -0.00000000000E+00 -0.00000000000E+00 -0.45593999997E+02  0.45594000000E+02  0.51100000000E-03 0.  1.
    9900012    2    1    2    0    0  0.29497155481E+02  0.40214739663E+01 -0.11422167601E+02  0.59301947453E+02  0.50000006246E+02 0.  0.
         12    1    1    2    0    0 -0.29497155481E+02 -0.40214739663E+01  0.11422167601E+02  0.31886052547E+02  0.00000000000E+00 0. -1.
         11    1    3    3    0    0 -0.25409426372E+01 -0.14772627022E+02 -0.15816790605E+01  0.15072777034E+02  0.51100000000E-03 0. -1.
        -11    1    3    3    0    0  0.32954840940E+02  0.11088386676E+02 -0.51176115621E+01  0.35144897337E+02  0.51100000000E-03 0.  1.
        -12    1    3    3    0    0 -0.91674282141E+00  0.77057143127E+01 -0.47228769784E+01  0.90842730817E+01  0.00000000000E+00 0.  1.
</event>
<event>
 7    1  0.7674040E-012  0.5930196E+02  0.7816164E-02  0.1266605E+00
        -11   -1    0    0    0    0  0.00000000000E+00  0.00000000000E+00  0.45593999997E+02  0.45594000000E+02  0.51100000000E-03 0. -1.
         11   -1    0    0    0    0 -0.00000000000E+00 -0.00000000000E+00 -0.45593999997E+02  0.45594000000E+02  0.51100000000E-03 0.  1.
    9900012    2    1    2    0    0  0.10892388797E+01 -0.20645105031E+02 -0.24275769288E+02  0.59301956382E+02  0.50000022532E+02 0.  0.
         12    1    1    2    0    0 -0.10892388797E+01  0.20645105031E+02  0.24275769288E+02  0.31886043618E+02  0.00000000000E+00 0. -1.
         11    1    3    3    0    0  0.93258263107E+01 -0.15253612919E+02 -0.32247876048E+02  0.36872337237E+02  0.51100000000E-03 0.  1.
        -11    1    3    3    0    0 -0.24948525514E+01 -0.55817648535E+01  0.13272568941E+02  0.14613058362E+02  0.51100000000E-03 0. -1.
        -12    1    3    3    0    0 -0.57417348796E+01  0.19027274201E+00 -0.53004621812E+01  0.78165607833E+01  0.00000000000E+00 0.  1.
</event>
<event>
 7    1  0.7674040E-012  0.5930193E+02  0.7816164E-02  0.1266605E+00
        -11   -1    0    0    0    0  0.00000000000E+00  0.00000000000E+00  0.45593999997E+02  0.45594000000E+02  0.51100000000E-03 0. -1.
         11   -1    0    0    0    0 -0.00000000000E+00 -0.00000000000E+00 -0.45593999997E+02  0.45594000000E+02  0.51100000000E-03 0.  1.
    9900012    2    1    2    0    0  0.78351000397E+01  0.26776661066E+02 -0.15438363720E+02  0.59301930239E+02  0.49999974852E+02 0.  0.
         12    1    1    2    0    0 -0.78351000397E+01 -0.26776661066E+02  0.15438363720E+02  0.31886069761E+02  0.00000000000E+00 0. -1.
         11    1    3    3    0    0 -0.11100229837E+02  0.12100789034E+02  0.10941468949E+02  0.19732205673E+02  0.51100000000E-03 0. -1.
        -11    1    3    3    0    0  0.15871812875E+02  0.14170044755E+02 -0.11139902537E+02  0.24016703377E+02  0.51100000000E-03 0.  1.
         12    1    3    3    0    0  0.30635170014E+01  0.50582727691E+00 -0.15239930133E+02  0.15553021189E+02  0.00000000000E+00 0. -1.
</event>
<event>
 7    1  0.7674040E-012  0.5930194E+02  0.7816164E-02  0.1266605E+00
        -11   -1    0    0    0    0  0.00000000000E+00  0.00000000000E+00  0.45593999997E+02  0.45594000000E+02  0.51100000000E-03 0.  1.
         11   -1    0    0    0    0 -0.00000000000E+00 -0.00000000000E+00 -0.45593999997E+02  0.45594000000E+02  0.51100000000E-03 0. -1.
    9900012    2    1    2    0    0  0.25355281563E+02 -0.12717007886E+02  0.14563931579E+02  0.59301941985E+02  0.49999996274E+02 0.  0.
         12    1    1    2    0    0 -0.25355281563E+02  0.12717007886E+02 -0.14563931579E+02  0.31886058015E+02  0.00000000000E+00 0. -1.
         11    1    3    3    0    0 -0.80056689281E+01  0.84328094784E+01  0.10680381679E+02  0.15788399658E+02  0.51100000000E-03 0. -1.
        -11    1    3    3    0    0  0.10221265086E+02 -0.13924229858E+02  0.78089264576E+01  0.18956206630E+02  0.51100000000E-03 0.  1.
         12    1    3    3    0    0  0.23139685404E+02 -0.72255875065E+01 -0.39253765575E+01  0.24557335697E+02  0.00000000000E+00 0. -1.
</event>
<event>
 7    1  0.7674040E-012  0.5930196E+02  0.7816164E-02  0.1266605E+00
        -11   -1    0    0    0    0  0.00000000000E+00  0.00000000000E+00  0.45593999997E+02  0.45594000000E+02  0.51100000000E-03 0.  1.
         11   -1    0    0    0    0 -0.00000000000E+00 -0.00000000000E+00 -0.45593999997E+02  0.45594000000E+02  0.51100000000E-03 0. -1.
    9900012    2    1    2    0    0  0.51649045027E+01  0.11531955723E+02  0.29275536286E+02  0.59301964402E+02  0.50000037158E+02 0.  0.
         12    1    1    2    0    0 -0.51649045027E+01 -0.11531955723E+02 -0.29275536286E+02  0.31886035598E+02  0.00000000000E+00 0. -1.
         11    1    3    3    0    0  0.18347182032E+02  0.14062725559E+02  0.14126143051E+01  0.23159767229E+02  0.51100000000E-03 0. -1.
        -11    1    3    3    0    0  0.24472060106E+00  0.26101178304E+00  0.20638371937E+02  0.20641473101E+02  0.51100000000E-03 0.  1.
         12    1    3    3    0    0 -0.13426998130E+02 -0.27917816199E+01  0.72245500447E+01  0.15500724072E+02  0.00000000000E+00 0. -1.
</event>
<event>
 7    1  0.7674040E-012  0.5930195E+02  0.7816164E-02  0.1266605E+00
        -11   -1    0    0    0    0  0.00000000000E+00  0.00000000000E+00  0.45593999997E+02  0.45594000000E+02  0.51100000000E-03 0. -1.
         11   -1    0    0    0    0 -0.00000000000E+00 -0.00000000000E+00 -0.45593999997E+02  0.45594000000E+02  0.51100000000E-03 0.  1.
    9900012    2    1    2    0    0 -0.10018935960E+02  0.66977697270E+01 -0.29520853735E+02  0.59301952858E+02  0.50000016105E+02 0.  0.
         12    1    1    2    0    0  0.10018935960E+02 -0.66977697270E+01  0.29520853735E+02  0.31886047142E+02  0.00000000000E+00 0. -1.
         11    1    3    3    0    0  0.39959340782E+01 -0.27981938922E+01  0.60496728859E+01  0.77714812297E+01  0.51100000000E-03 0. -1.
        -11    1    3    3    0    0 -0.25017319857E+02  0.58780604270E+01 -0.24178198943E+02  0.35284602756E+02  0.51100000000E-03 0.  1.
        -12    1    3    3    0    0  0.11002449819E+02  0.36179031923E+01 -0.11392327677E+02  0.16245868873E+02  0.00000000000E+00 0.  1.
</event>
<event>
 7    1  0.7674040E-012  0.5930179E+02  0.7816164E-02  0.1266605E+00
        -11   -1    0    0    0    0  0.00000000000E+00  0.00000000000E+00  0.45593999997E+02  0.45594000000E+02  0.51100000000E-03 0.  1.
         11   -1    0    0    0    0 -0.00000000000E+00 -0.00000000000E+00 -0.45593999997E+02  0.45594000000E+02  0.51100000000E-03 0. -1.
    9900012    2    1    2    0    0 -0.15217016806E+02 -0.20884955826E+02  0.18681317207E+02  0.59301786789E+02  0.49999713234E+02 0.  0.
         12    1    1    2    0    0  0.15217016806E+02  0.20884955826E+02 -0.18681317207E+02  0.31886213211E+02  0.00000000000E+00 0. -1.
         11    1    3    3    0    0 -0.17572277659E+02 -0.11860127307E+02 -0.45099809176E+01  0.21674581657E+02  0.51100000000E-03 0. -1.
        -11    1    3    3    0    0  0.11966829753E+02 -0.10094434217E+02  0.40337513380E+01  0.16167058070E+02  0.51100000000E-03 0.  1.
        -12    1    3    3    0    0 -0.96115689005E+01  0.10696056986E+01  0.19157546787E+02  0.21460147063E+02  0.00000000000E+00 0.  1.
</event>
<event>
 7    1  0.7674040E-012  0.5930194E+02  0.7816164E-02  0.1266605E+00
        -11   -1    0    0    0    0  0.00000000000E+00  0.00000000000E+00  0.45593999997E+02  0.45594000000E+02  0.51100000000E-03 0.  1.
         11   -1    0    0    0    0 -0.00000000000E+00 -0.00000000000E+00 -0.45593999997E+02  0.45594000000E+02  0.51100000000E-03 0. -1.
    9900012    2    1    2    0    0 -0.19980375242E+02  0.10583222552E+02  0.22483352055E+02  0.59301935426E+02  0.49999984312E+02 0.  0.
         12    1    1    2    0    0  0.19980375242E+02 -0.10583222552E+02 -0.22483352055E+02  0.31886064574E+02  0.00000000000E+00 0. -1.
         11    1    3    3    0    0 -0.26894014931E+02 -0.11472466119E+01  0.92047143852E+01  0.28448743049E+02  0.51100000000E-03 0. -1.
        -11    1    3    3    0    0 -0.17704159432E+01  0.10261307950E+02  0.18048607915E+02  0.20837011816E+02  0.51100000000E-03 0.  1.
         12    1    3    3    0    0  0.86840556317E+01  0.14691612146E+01 -0.47699702456E+01  0.10016180561E+02  0.00000000000E+00 0. -1.
</event>
<event>
 7    1  0.7674040E-012  0.5930192E+02  0.7816164E-02  0.1266605E+00
        -11   -1    0    0    0    0  0.00000000000E+00  0.00000000000E+00  0.45593999997E+02  0.45594000000E+02  0.51100000000E-03 0. -1.
         11   -1    0    0    0    0 -0.00000000000E+00 -0.00000000000E+00 -0.45593999997E+02  0.45594000000E+02  0.51100000000E-03 0.  1.
    9900012    2    1    2    0    0  0.13920501596E+02 -0.13584739829E+02 -0.25266505082E+02  0.59301924670E+02  0.49999964696E+02 0.  0.
         12    1    1    2    0    0 -0.13920501596E+02  0.13584739829E+02  0.25266505082E+02  0.31886075330E+02  0.00000000000E+00 0. -1.
         11    1    3    3    0    0 -0.47875158372E+01  0.95544087222E+01 -0.20906841523E+02  0.23479843625E+02  0.51100000000E-03 0. -1.
        -11    1    3    3    0    0  0.57114680708E+01 -0.17503891949E+02 -0.95425005133E+01  0.20738042752E+02  0.51100000000E-03 0.  1.
         12    1    3    3    0    0  0.12996549362E+02 -0.56352566028E+01  0.51828369547E+01  0.15084038293E+02  0.00000000000E+00 0. -1.
</event>
<event>
 7    1  0.7674040E-012  0.5930194E+02  0.7816164E-02  0.1266605E+00
        -11   -1    0    0    0    0  0.00000000000E+00  0.00000000000E+00  0.45593999997E+02  0.45594000000E+02  0.51100000000E-03 0.  1.
         11   -1    0    0    0    0 -0.00000000000E+00 -0.00000000000E+00 -0.45593999997E+02  0.45594000000E+02  0.51100000000E-03 0. -1.
    9900012    2    1    2    0    0  0.29233371157E+01  0.16251100693E+02  0.27277765606E+02  0.59301942387E+02  0.49999997008E+02 0.  0.
         12    1    1    2    0    0 -0.29233371157E+01 -0.16251100693E+02 -0.27277765606E+02  0.31886057613E+02  0.00000000000E+00 0. -1.
         11    1    3    3    0    0  0.63419948624E+01  0.12090037378E+02  0.62691244958E+01  0.15023043128E+02  0.51100000000E-03 0. -1.
        -11    1    3    3    0    0 -0.11204240695E+02 -0.12120957070E+02  0.20372411691E+02  0.26219987953E+02  0.51100000000E-03 0.  1.
        -12    1    3    3    0    0  0.77855829484E+01  0.16282020386E+02  0.63622941864E+00  0.18058911306E+02  0.00000000000E+00 0.  1.
</event>
<event>
 7    1  0.7674040E-012  0.5930203E+02  0.7816164E-02  0.1266604E+00
        -11   -1    0    0    0    0  0.00000000000E+00  0.00000000000E+00  0.45593999997E+02  0.45594000000E+02  0.51100000000E-03 0. -1.
         11   -1    0    0    0    0 -0.00000000000E+00 -0.00000000000E+00 -0.45593999997E+02  0.45594000000E+02  0.51100000000E-03 0.  1.
    9900012    2    1    2    0    0  0.13695501987E+02 -0.28501238998E+02  0.41021200014E+01  0.59302034629E+02  0.50000165235E+02 0.  0.
         12    1    1    2    0    0 -0.13695501987E+02  0.28501238998E+02 -0.41021200014E+01  0.31885965371E+02  0.00000000000E+00 0. -1.
         11    1    3    3    0    0  0.37485331265E+01 -0.19948815232E+02  0.19015528995E+02  0.27813613088E+02  0.51100000000E-03 0. -1.
        -11    1    3    3    0    0  0.16306200362E+02 -0.38946419052E+01 -0.16416248372E+02  0.23463878978E+02  0.51100000000E-03 0.  1.
        -12    1    3    3    0    0 -0.63592315018E+01 -0.46577818606E+01  0.15028393787E+01  0.80245425635E+01  0.00000000000E+00 0.  1.
</event>
<event>
 7    1  0.7674040E-012  0.5930193E+02  0.7816164E-02  0.1266605E+00
        -11   -1    0    0    0    0  0.00000000000E+00  0.00000000000E+00  0.45593999997E+02  0.45594000000E+02  0.51100000000E-03 0.  1.
         11   -1    0    0    0    0 -0.00000000000E+00 -0.00000000000E+00 -0.45593999997E+02  0.45594000000E+02  0.51100000000E-03 0. -1.
    9900012    2    1    2    0    0  0.30774365270E+00  0.60256226853E+01  0.31310044999E+02  0.59301925410E+02  0.49999966045E+02 0.  0.
         12    1    1    2    0    0 -0.30774365270E+00 -0.60256226853E+01 -0.31310044999E+02  0.31886074590E+02  0.00000000000E+00 0. -1.
         11    1    3    3    0    0  0.91492154358E+00 -0.14889744602E+02  0.32374463700E+01  0.15265078938E+02  0.51100000000E-03 0. -1.
        -11    1    3    3    0    0 -0.96446788376E+01  0.14568882905E+02  0.45558514811E+01  0.18056244404E+02  0.51100000000E-03 0.  1.
         12    1    3    3    0    0  0.90375009467E+01  0.63464843817E+01  0.23516747148E+02  0.25980602068E+02  0.00000000000E+00 0. -1.
</event>
<event>
 7    1  0.7674040E-012  0.5930195E+02  0.7816164E-02  0.1266605E+00
        -11   -1    0    0    0    0  0.00000000000E+00  0.00000000000E+00  0.45593999997E+02  0.45594000000E+02  0.51100000000E-03 0.  1.
         11   -1    0    0    0    0 -0.00000000000E+00 -0.00000000000E+00 -0.45593999997E+02  0.45594000000E+02  0.51100000000E-03 0. -1.
    9900012    2    1    2    0    0 -0.15620599473E+02 -0.27755955481E+02 -0.15244274102E+01  0.59301951774E+02  0.50000014126E+02 0.  0.
         12    1    1    2    0    0  0.15620599473E+02  0.27755955481E+02  0.15244274102E+01  0.31886048226E+02  0.00000000000E+00 0. -1.
         11    1    3    3    0    0  0.56944044726E+00 -0.18657954371E+02 -0.17256783122E+02  0.25421252678E+02  0.51100000000E-03 0. -1.
        -11    1    3    3    0    0 -0.16963334357E+02  0.35317927631E+01  0.97872452846E+01  0.19900212138E+02  0.51100000000E-03 0.  1.
        -12    1    3    3    0    0  0.77329443628E+00 -0.12629793874E+02  0.59451104276E+01  0.13980486958E+02  0.00000000000E+00 0.  1.
</event>
<event>
 7    1  0.7674040E-012  0.5930195E+02  0.7816164E-02  0.1266605E+00
        -11   -1    0    0    0    0  0.00000000000E+00  0.00000000000E+00  0.45593999997E+02  0.45594000000E+02  0.51100000000E-03 0.  1.
         11   -1    0    0    0    0 -0.00000000000E+00 -0.00000000000E+00 -0.45593999997E+02  0.45594000000E+02  0.51100000000E-03 0. -1.
    9900012    2    1    2    0    0  0.67121223890E+01 -0.24791391196E+02  0.18895884682E+02  0.59301950976E+02  0.50000012673E+02 0.  0.
         12    1    1    2    0    0 -0.67121223890E+01  0.24791391196E+02 -0.18895884682E+02  0.31886049024E+02  0.00000000000E+00 0. -1.
         11    1    3    3    0    0  0.23085066387E+02  0.30992817515E+01  0.64053256680E+01  0.24156863096E+02  0.51100000000E-03 0. -1.
        -11    1    3    3    0    0 -0.11088282908E+02 -0.17082716263E+02  0.10623970259E+02  0.22970371288E+02  0.51100000000E-03 0.  1.
         12    1    3    3    0    0 -0.52846610895E+01 -0.10807956685E+02  0.18665887550E+01  0.12174716593E+02  0.00000000000E+00 0. -1.
</event>
<event>
 7    1  0.7674040E-012  0.5930192E+02  0.7816164E-02  0.1266605E+00
        -11   -1    0    0    0    0  0.00000000000E+00  0.00000000000E+00  0.45593999997E+02  0.45594000000E+02  0.51100000000E-03 0.  1.
         11   -1    0    0    0    0 -0.00000000000E+00 -0.00000000000E+00 -0.45593999997E+02  0.45594000000E+02  0.51100000000E-03 0. -1.
    9900012    2    1    2    0    0 -0.88390756405E+01  0.30576436012E+02 -0.19169065038E+01  0.59301917959E+02  0.49999952457E+02 0.  0.
         12    1    1    2    0    0  0.88390756405E+01 -0.30576436012E+02  0.19169065038E+01  0.31886082041E+02  0.00000000000E+00 0. -1.
         11    1    3    3    0    0  0.53141055602E+01  0.29195607196E+01  0.63405017565E+01  0.87729992298E+01  0.51100000000E-03 0.  1.
        -11    1    3    3    0    0 -0.46725262475E+01 -0.16313740118E+01 -0.17660111716E+02  0.18340486056E+02  0.51100000000E-03 0. -1.
        -12    1    3    3    0    0 -0.94806549532E+01  0.29288249304E+02  0.94027034558E+01  0.32188432673E+02  0.00000000000E+00 0.  1.
</event>
<event>
 7    1  0.7674040E-012  0.5930194E+02  0.7816164E-02  0.1266605E+00
        -11   -1    0    0    0    0  0.00000000000E+00  0.00000000000E+00  0.45593999997E+02  0.45594000000E+02  0.51100000000E-03 0.  1.
         11   -1    0    0    0    0 -0.00000000000E+00 -0.00000000000E+00 -0.45593999997E+02  0.45594000000E+02  0.51100000000E-03 0. -1.
    9900012    2    1    2    0    0 -0.32004947053E+01  0.19331265785E+02  0.25155119644E+02  0.59301936469E+02  0.49999986215E+02 0.  0.
         12    1    1    2    0    0  0.32004947053E+01 -0.19331265785E+02 -0.25155119644E+02  0.31886063531E+02  0.00000000000E+00 0. -1.
         11    1    3    3    0    0 -0.16470129195E+02  0.17064247853E+02  0.44464389598E+01  0.24129329252E+02  0.51100000000E-03 0. -1.
        -11    1    3    3    0    0 -0.11867359965E+01  0.27835063291E+01  0.20482949414E+02  0.20705252154E+02  0.51100000000E-03 0.  1.
         12    1    3    3    0    0  0.14456370486E+02 -0.51648839708E+00  0.22573126998E+00  0.14467355063E+02  0.00000000000E+00 0. -1.
</event>
<event>
 7    1  0.7674040E-012  0.5930194E+02  0.7816164E-02  0.1266605E+00
        -11   -1    0    0    0    0  0.00000000000E+00  0.00000000000E+00  0.45593999997E+02  0.45594000000E+02  0.51100000000E-03 0. -1.
         11   -1    0    0    0    0 -0.00000000000E+00 -0.00000000000E+00 -0.45593999997E+02  0.45594000000E+02  0.51100000000E-03 0.  1.
    9900012    2    1    2    0    0  0.15058608201E+02 -0.20655582522E+02 -0.19060594615E+02  0.59301936628E+02  0.49999986504E+02 0.  0.
         12    1    1    2    0    0 -0.15058608201E+02  0.20655582522E+02  0.19060594615E+02  0.31886063372E+02  0.00000000000E+00 0. -1.
         11    1    3    3    0    0  0.20353061978E+02 -0.17629937883E+02 -0.27387083783E+02  0.38407215468E+02  0.51100000000E-03 0.  1.
        -11    1    3    3    0    0 -0.10910888735E+02  0.25789187050E+01  0.44281283138E+01  0.12054320192E+02  0.51100000000E-03 0. -1.
        -12    1    3    3    0    0  0.56164349574E+01 -0.56045633449E+01  0.38983608540E+01  0.88404009674E+01  0.00000000000E+00 0.  1.
</event>
<event>
 7    1  0.7975392E-012  0.5930196E+02  0.7816164E-02  0.1266605E+00
        -11   -1    0    0    0    0  0.00000000000E+00  0.00000000000E+00  0.45593999997E+02  0.45594000000E+02  0.51100000000E-03 0. -1.
         11   -1    0    0    0    0 -0.00000000000E+00 -0.00000000000E+00 -0.45593999997E+02  0.45594000000E+02  0.51100000000E-03 0.  1.
    9900012    2    1    2    0    0  0.31288619295E+02  0.61204752466E+01  0.53042428970E+00  0.59301964427E+02  0.50000037203E+02 0.  0.
         12    1    1    2    0    0 -0.31288619295E+02 -0.61204752466E+01 -0.53042428970E+00  0.31886035573E+02  0.00000000000E+00 0. -1.
         11    1    3    3    0    0 -0.40724646794E+01  0.11963652567E+02 -0.87158389228E+01  0.15351866326E+02  0.51100000000E-03 0. -1.
        -11    1    3    3    0    0  0.23504028651E+02 -0.13668880180E+02  0.35796202678E+00  0.27192016941E+02  0.51100000000E-03 0.  1.
        -12    1    3    3    0    0  0.11857055323E+02  0.78257028601E+01  0.88883011857E+01  0.16758081160E+02  0.00000000000E+00 0.  1.
</event>
<event>
 7    1  0.7674040E-012  0.5930172E+02  0.7816164E-02  0.1266606E+00
        -11   -1    0    0    0    0  0.00000000000E+00  0.00000000000E+00  0.45593999997E+02  0.45594000000E+02  0.51100000000E-03 0.  1.
         11   -1    0    0    0    0 -0.00000000000E+00 -0.00000000000E+00 -0.45593999997E+02  0.45594000000E+02  0.51100000000E-03 0. -1.
    9900012    2    1    2    0    0  0.29399924932E+02  0.82853309874E+01  0.91505384062E+01  0.59301723192E+02  0.49999597246E+02 0.  0.
         12    1    1    2    0    0 -0.29399924932E+02 -0.82853309874E+01 -0.91505384062E+01  0.31886276808E+02  0.00000000000E+00 0. -1.
         11    1    3    3    0    0 -0.63747690574E+01  0.36159202120E+01  0.10278631416E+02  0.12623898905E+02  0.51100000000E-03 0. -1.
        -11    1    3    3    0    0  0.29669345148E+02 -0.54066982915E+01  0.86426429540E+01  0.31371925434E+02  0.51100000000E-03 0.  1.
         12    1    3    3    0    0  0.61053488411E+01  0.10076109067E+02 -0.97707359639E+01  0.15305898852E+02  0.00000000000E+00 0. -1.
</event>
<event>
 7    1  0.7674040E-012  0.5930200E+02  0.7816164E-02  0.1266605E+00
        -11   -1    0    0    0    0  0.00000000000E+00  0.00000000000E+00  0.45593999997E+02  0.45594000000E+02  0.51100000000E-03 0.  1.
         11   -1    0    0    0    0 -0.00000000000E+00 -0.00000000000E+00 -0.45593999997E+02  0.45594000000E+02  0.51100000000E-03 0. -1.
    9900012    2    1    2    0    0 -0.15540956456E+02 -0.20429627666E+02  0.18916287488E+02  0.59302000777E+02  0.50000103497E+02 0.  0.
         12    1    1    2    0    0  0.15540956456E+02  0.20429627666E+02 -0.18916287488E+02  0.31885999223E+02  0.00000000000E+00 0. -1.
         11    1    3    3    0    0 -0.10918232314E+01 -0.25077069082E+02  0.14759194678E+01  0.25144180445E+02  0.51100000000E-03 0. -1.
        -11    1    3    3    0    0 -0.15241357855E+02  0.67305840201E+01  0.22865992810E+02  0.28292284778E+02  0.51100000000E-03 0.  1.
         12    1    3    3    0    0  0.79222463073E+00 -0.20831426040E+01 -0.54256247899E+01  0.58655355539E+01  0.00000000000E+00 0. -1.
</event>
<event>
 7    1  0.7674040E-012  0.5930194E+02  0.7816164E-02  0.1266605E+00
        -11   -1    0    0    0    0  0.00000000000E+00  0.00000000000E+00  0.45593999997E+02  0.45594000000E+02  0.51100000000E-03 0. -1.
         11   -1    0    0    0    0 -0.00000000000E+00 -0.00000000000E+00 -0.45593999997E+02  0.45594000000E+02  0.51100000000E-03 0.  1.
    9900012    2    1    2    0    0 -0.14653576205E+00 -0.30886344971E+02  0.79204309476E+01  0.59301937139E+02  0.49999987437E+02 0.  0.
         12    1    1    2    0    0  0.14653576205E+00  0.30886344971E+02 -0.79204309476E+01  0.31886062861E+02  0.00000000000E+00 0. -1.
         11    1    3    3    0    0 -0.34888839397E+01 -0.35987934272E+02  0.50694386602E+01  0.36510312692E+02  0.51100000000E-03 0. -1.
        -11    1    3    3    0    0 -0.86341316535E+01 -0.12076021570E+01 -0.84613440788E+00  0.87591367198E+01  0.51100000000E-03 0.  1.
         12    1    3    3    0    0  0.11976479831E+02  0.63091914583E+01  0.36971266953E+01  0.14032487727E+02  0.00000000000E+00 0. -1.
</event>
<event>
 7    1  0.7674040E-012  0.5930192E+02  0.7816164E-02  0.1266605E+00
        -11   -1    0    0    0    0  0.00000000000E+00  0.00000000000E+00  0.45593999997E+02  0.45594000000E+02  0.51100000000E-03 0.  1.
         11   -1    0    0    0    0 -0.00000000000E+00 -0.00000000000E+00 -0.45593999997E+02  0.45594000000E+02  0.51100000000E-03 0. -1.
    9900012    2    1    2    0    0 -0.24959318942E+02 -0.42017306790E+01  0.19393295727E+02  0.59301920562E+02  0.49999957205E+02 0.  0.
         12    1    1    2    0    0  0.24959318942E+02  0.42017306790E+01 -0.19393295727E+02  0.31886079438E+02  0.00000000000E+00 0. -1.
         11    1    3    3    0    0  0.13976739649E+01 -0.13923853451E+02 -0.87428806527E+01  0.16500459079E+02  0.51100000000E-03 0. -1.
        -11    1    3    3    0    0 -0.86442767483E+01 -0.68989522369E+00  0.17803909228E+02  0.19803501205E+02  0.51100000000E-03 0.  1.
         12    1    3    3    0    0 -0.17712716159E+02  0.10412017996E+02  0.10332267151E+02  0.22997960278E+02  0.00000000000E+00 0. -1.
</event>
<event>
 7    1  0.7674040E-012  0.5930195E+02  0.7816164E-02  0.1266605E+00
        -11   -1    0    0    0    0  0.00000000000E+00  0.00000000000E+00  0.45593999997E+02  0.45594000000E+02  0.51100000000E-03 0.  1.
         11   -1    0    0    0    0 -0.00000000000E+00 -0.00000000000E+00 -0.45593999997E+02  0.45594000000E+02  0.51100000000E-03 0. -1.
    9900012    2    1    2    0    0  0.22106059299E+02 -0.22243710526E+02  0.57671184403E+01  0.59301950217E+02  0.50000011287E+02 0.  0.
         12    1    1    2    0    0 -0.22106059299E+02  0.22243710526E+02 -0.57671184403E+01  0.31886049783E+02  0.00000000000E+00 0. -1.
         11    1    3    3    0    0  0.97160605204E+01  0.43784639617E+01  0.22344158324E+02  0.24755488082E+02  0.51100000000E-03 0. -1.
        -11    1    3    3    0    0  0.89061709583E+01 -0.10346426990E+02 -0.69615110873E+01  0.15324198820E+02  0.51100000000E-03 0.  1.
         12    1    3    3    0    0  0.34838278198E+01 -0.16275747498E+02 -0.96155287965E+01  0.19222263315E+02  0.00000000000E+00 0. -1.
</event>
<event>
 7    1  0.7674040E-012  0.5930193E+02  0.7816164E-02  0.1266605E+00
        -11   -1    0    0    0    0  0.00000000000E+00  0.00000000000E+00  0.45593999997E+02  0.45594000000E+02  0.51100000000E-03 0.  1.
         11   -1    0    0    0    0 -0.00000000000E+00 -0.00000000000E+00 -0.45593999997E+02  0.45594000000E+02  0.51100000000E-03 0. -1.
    9900012    2    1    2    0    0 -0.27262405852E+02 -0.39102006192E+01  0.16068376739E+02  0.59301934505E+02  0.49999982632E+02 0.  0.
         12    1    1    2    0    0  0.27262405852E+02  0.39102006192E+01 -0.16068376739E+02  0.31886065495E+02  0.00000000000E+00 0. -1.
         11    1    3    3    0    0 -0.20889045465E+02  0.56341725884E+01  0.31085892113E+02  0.37873853910E+02  0.51100000000E-03 0.  1.
        -11    1    3    3    0    0 -0.18841550543E+01 -0.10479651724E+02 -0.11286457131E+02  0.15516354448E+02  0.51100000000E-03 0. -1.
        -12    1    3    3    0    0 -0.44892053325E+01  0.93527851672E+00 -0.37310582430E+01  0.59117261468E+01  0.00000000000E+00 0.  1.
</event>
<event>
 7    1  0.7674040E-012  0.5930197E+02  0.7816164E-02  0.1266605E+00
        -11   -1    0    0    0    0  0.00000000000E+00  0.00000000000E+00  0.45593999997E+02  0.45594000000E+02  0.51100000000E-03 0.  1.
         11   -1    0    0    0    0 -0.00000000000E+00 -0.00000000000E+00 -0.45593999997E+02  0.45594000000E+02  0.51100000000E-03 0. -1.
    9900012    2    1    2    0    0 -0.15056109968E+02  0.22730420118E+02  0.16533615417E+02  0.59301970381E+02  0.50000048062E+02 0.  0.
         12    1    1    2    0    0  0.15056109968E+02 -0.22730420118E+02 -0.16533615417E+02  0.31886029619E+02  0.00000000000E+00 0. -1.
         11    1    3    3    0    0 -0.61795690990E+01  0.27840163521E+01  0.14408634122E+02  0.15923145381E+02  0.51100000000E-03 0.  1.
        -11    1    3    3    0    0  0.84664926970E+00  0.27595187487E+02 -0.64183653867E+01  0.28344428058E+02  0.51100000000E-03 0. -1.
         12    1    3    3    0    0 -0.97231901387E+01 -0.76487837212E+01  0.85433466811E+01  0.15034396942E+02  0.00000000000E+00 0. -1.
</event>
<event>
 7    1  0.7674040E-012  0.5930193E+02  0.7816164E-02  0.1266605E+00
        -11   -1    0    0    0    0  0.00000000000E+00  0.00000000000E+00  0.45593999997E+02  0.45594000000E+02  0.51100000000E-03 0.  1.
         11   -1    0    0    0    0 -0.00000000000E+00 -0.00000000000E+00 -0.45593999997E+02  0.45594000000E+02  0.51100000000E-03 0. -1.
    9900012    2    1    2    0    0 -0.15112448396E+02  0.87394910054E+01  0.26682514778E+02  0.59301931029E+02  0.49999976293E+02 0.  0.
         12    1    1    2    0    0  0.15112448396E+02 -0.87394910054E+01 -0.26682514778E+02  0.31886068971E+02  0.00000000000E+00 0. -1.
         11    1    3    3    0    0  0.53642090093E+01 -0.40285491706E+01 -0.47785663675E+01  0.82364217658E+01  0.51100000000E-03 0. -1.
        -11    1    3    3    0    0 -0.26545695310E+02  0.17705954244E+02  0.21852613737E+02  0.38674429312E+02  0.51100000000E-03 0.  1.
        -12    1    3    3    0    0  0.60690379043E+01 -0.49379140684E+01  0.96084674078E+01  0.12391079951E+02  0.00000000000E+00 0.  1.
</event>
<event>
 7    1  0.7674040E-012  0.5930195E+02  0.7816164E-02  0.1266605E+00
        -11   -1    0    0    0    0  0.00000000000E+00  0.00000000000E+00  0.45593999997E+02  0.45594000000E+02  0.51100000000E-03 0.  1.
         11   -1    0    0    0    0 -0.00000000000E+00 -0.00000000000E+00 -0.45593999997E+02  0.45594000000E+02  0.51100000000E-03 0. -1.
    9900012    2    1    2    0    0 -0.71613467228E+01  0.18978709421E+02  0.24601707473E+02  0.59301948053E+02  0.50000007341E+02 0.  0.
         12    1    1    2    0    0  0.71613467228E+01 -0.18978709421E+02 -0.24601707473E+02  0.31886051947E+02  0.00000000000E+00 0. -1.
         11    1    3    3    0    0 -0.20417109557E+01 -0.55152038123E+01 -0.33942385155E+01  0.67902070719E+01  0.51100000000E-03 0. -1.
        -11    1    3    3    0    0  0.59353501479E+01  0.29399781284E+02  0.11646092070E+02  0.32174632581E+02  0.51100000000E-03 0.  1.
        -12    1    3    3    0    0 -0.11054985915E+02 -0.49058680508E+01  0.16349853918E+02  0.20337108400E+02  0.00000000000E+00 0.  1.
</event>
<event>
 7    1  0.7674040E-012  0.5930195E+02  0.7816164E-02  0.1266605E+00
        -11   -1    0    0    0    0  0.00000000000E+00  0.00000000000E+00  0.45593999997E+02  0.45594000000E+02  0.51100000000E-03 0.  1.
         11   -1    0    0    0    0 -0.00000000000E+00 -0.00000000000E+00 -0.45593999997E+02  0.45594000000E+02  0.51100000000E-03 0. -1.
    9900012    2    1    2    0    0  0.10023317388E+02  0.29682585956E+02 -0.59327529579E+01  0.59301947278E+02  0.50000005928E+02 0.  0.
         12    1    1    2    0    0 -0.10023317388E+02 -0.29682585956E+02  0.59327529579E+01  0.31886052722E+02  0.00000000000E+00 0. -1.
         11    1    3    3    0    0 -0.10361370391E+02  0.21231694381E+02 -0.11772534084E+02  0.26395745901E+02  0.51100000000E-03 0. -1.
        -11    1    3    3    0    0  0.24967733460E+02  0.38508890170E+01  0.19528201835E+01  0.25338322109E+02  0.51100000000E-03 0.  1.
        -12    1    3    3    0    0 -0.45830456812E+01  0.46000025582E+01  0.38869609424E+01  0.75678792683E+01  0.00000000000E+00 0.  1.
</event>
<event>
 7    1  0.7674040E-012  0.5930193E+02  0.7816164E-02  0.1266605E+00
        -11   -1    0    0    0    0  0.00000000000E+00  0.00000000000E+00  0.45593999997E+02  0.45594000000E+02  0.51100000000E-03 0.  1.
         11   -1    0    0    0    0 -0.00000000000E+00 -0.00000000000E+00 -0.45593999997E+02  0.45594000000E+02  0.51100000000E-03 0. -1.
    9900012    2    1    2    0    0  0.21461623620E+02 -0.11447284699E+02  0.20617471976E+02  0.59301925201E+02  0.49999965665E+02 0.  0.
         12    1    1    2    0    0 -0.21461623620E+02  0.11447284699E+02 -0.20617471976E+02  0.31886074799E+02  0.00000000000E+00 0. -1.
         11    1    3    3    0    0 -0.10529785199E+02  0.27978726285E+01  0.20315787165E+02  0.23052888669E+02  0.51100000000E-03 0. -1.
        -11    1    3    3    0    0  0.12162792243E+02 -0.18099729799E+01 -0.28772093892E+01  0.12628849966E+02  0.51100000000E-03 0.  1.
        -12    1    3    3    0    0  0.19828616576E+02 -0.12435184348E+02  0.31788942002E+01  0.23620186567E+02  0.00000000000E+00 0.  1.
</event>
<event>
 7    1  0.7674040E-012  0.5930194E+02  0.7816164E-02  0.1266605E+00
        -11   -1    0    0    0    0  0.00000000000E+00  0.00000000000E+00  0.45593999997E+02  0.45594000000E+02  0.51100000000E-03 0. -1.
         11   -1    0    0    0    0 -0.00000000000E+00 -0.00000000000E+00 -0.45593999997E+02  0.45594000000E+02  0.51100000000E-03 0.  1.
    9900012    2    1    2    0    0 -0.29385683863E+02  0.11355219186E+02 -0.49255594418E+01  0.59301944197E+02  0.50000000308E+02 0.  0.
         12    1    1    2    0    0  0.29385683863E+02 -0.11355219186E+02  0.49255594418E+01  0.31886055803E+02  0.00000000000E+00 0. -1.
         11    1    3    3    0    0 -0.13271899657E+02  0.11316683200E+02 -0.30564501480E+01  0.17707414462E+02  0.51100000000E-03 0. -1.
        -11    1    3    3    0    0 -0.14216817282E+02 -0.17965657393E+02 -0.43557341783E+01  0.23320702384E+02  0.51100000000E-03 0.  1.
        -12    1    3    3    0    0 -0.18969669240E+01  0.18004193379E+02  0.24866248845E+01  0.18273827351E+02  0.00000000000E+00 0.  1.
</event>
<event>
 7    1  0.7674040E-012  0.5930192E+02  0.7816164E-02  0.1266605E+00
        -11   -1    0    0    0    0  0.00000000000E+00  0.00000000000E+00  0.45593999997E+02  0.45594000000E+02  0.51100000000E-03 0.  1.
         11   -1    0    0    0    0 -0.00000000000E+00 -0.00000000000E+00 -0.45593999997E+02  0.45594000000E+02  0.51100000000E-03 0. -1.
    9900012    2    1    2    0    0 -0.21554773631E+02  0.23071221017E+02 -0.44533841452E+01  0.59301919403E+02  0.49999955091E+02 0.  0.
         12    1    1    2    0    0  0.21554773631E+02 -0.23071221017E+02  0.44533841452E+01  0.31886080597E+02  0.00000000000E+00 0. -1.
         11    1    3    3    0    0 -0.90176812845E+00 -0.32397381239E+01 -0.19990873072E+02  0.20271756098E+02  0.51100000000E-03 0. -1.
        -11    1    3    3    0    0 -0.14818578827E+02  0.25445325668E+02  0.10463217340E+02  0.31249540704E+02  0.51100000000E-03 0.  1.
        -12    1    3    3    0    0 -0.58344266752E+01  0.86563347252E+00  0.50742715864E+01  0.77806226017E+01  0.00000000000E+00 0.  1.
</event>
<event>
 7    1  0.7674040E-012  0.5930186E+02  0.7816164E-02  0.1266605E+00
        -11   -1    0    0    0    0  0.00000000000E+00  0.00000000000E+00  0.45593999997E+02  0.45594000000E+02  0.51100000000E-03 0. -1.
         11   -1    0    0    0    0 -0.00000000000E+00 -0.00000000000E+00 -0.45593999997E+02  0.45594000000E+02  0.51100000000E-03 0.  1.
    9900012    2    1    2    0    0  0.31111799941E+02  0.29243362240E+01 -0.63427222008E+01  0.59301859393E+02  0.49999845646E+02 0.  0.
         12    1    1    2    0    0 -0.31111799941E+02 -0.29243362240E+01  0.63427222008E+01  0.31886140607E+02  0.00000000000E+00 0. -1.
         11    1    3    3    0    0  0.71317039707E+01  0.51272344711E+01 -0.14449139449E+01  0.89015454510E+01  0.51100000000E-03 0. -1.
        -11    1    3    3    0    0 -0.12746270404E+02  0.25788542290E+01 -0.28132502345E+01  0.13305347627E+02  0.51100000000E-03 0.  1.
        -12    1    3    3    0    0  0.36726366374E+02 -0.47817524761E+01 -0.20845580214E+01  0.37094966315E+02  0.00000000000E+00 0.  1.
</event>
<event>
 7    1  0.7674040E-012  0.5930194E+02  0.7816164E-02  0.1266605E+00
        -11   -1    0    0    0    0  0.00000000000E+00  0.00000000000E+00  0.45593999997E+02  0.45594000000E+02  0.51100000000E-03 0.  1.
         11   -1    0    0    0    0 -0.00000000000E+00 -0.00000000000E+00 -0.45593999997E+02  0.45594000000E+02  0.51100000000E-03 0. -1.
    9900012    2    1    2    0    0 -0.12167333910E+02 -0.82490168595E+01  0.28295411937E+02  0.59301943011E+02  0.49999998146E+02 0.  0.
         12    1    1    2    0    0  0.12167333910E+02  0.82490168595E+01 -0.28295411937E+02  0.31886056989E+02  0.00000000000E+00 0. -1.
         11    1    3    3    0    0 -0.14583650025E+02 -0.15540698576E+00 -0.10355345829E+01  0.14621194600E+02  0.51100000000E-03 0. -1.
        -11    1    3    3    0    0 -0.56762881716E+01  0.43588122560E+01  0.28953525206E+02  0.29824924372E+02  0.51100000000E-03 0.  1.
        -12    1    3    3    0    0  0.80926042872E+01 -0.12452422130E+02  0.37742131365E+00  0.14855824040E+02  0.00000000000E+00 0.  1.
</event>
<event>
 7    1  0.7674040E-012  0.5930194E+02  0.7816164E-02  0.1266605E+00
        -11   -1    0    0    0    0  0.00000000000E+00  0.00000000000E+00  0.45593999997E+02  0.45594000000E+02  0.51100000000E-03 0.  1.
         11   -1    0    0    0    0 -0.00000000000E+00 -0.00000000000E+00 -0.45593999997E+02  0.45594000000E+02  0.51100000000E-03 0. -1.
    9900012    2    1    2    0    0  0.15719494409E+02 -0.26730174363E+01  0.27612917701E+02  0.59301941124E+02  0.49999994704E+02 0.  0.
         12    1    1    2    0    0 -0.15719494409E+02  0.26730174363E+01 -0.27612917701E+02  0.31886058876E+02  0.00000000000E+00 0. -1.
         11    1    3    3    0    0  0.23359654334E+01 -0.19685362528E+02  0.12610352778E+02  0.23494493606E+02  0.51100000000E-03 0.  1.
        -11    1    3    3    0    0  0.50916579016E+01  0.13464468817E+02 -0.38565608478E+01  0.14902683065E+02  0.51100000000E-03 0. -1.
        -12    1    3    3    0    0  0.82918710737E+01  0.35478762753E+01  0.18859125771E+02  0.20904764452E+02  0.00000000000E+00 0.  1.
</event>
<event>
 7    1  0.7674040E-012  0.5930199E+02  0.7816164E-02  0.1266605E+00
        -11   -1    0    0    0    0  0.00000000000E+00  0.00000000000E+00  0.45593999997E+02  0.45594000000E+02  0.51100000000E-03 0. -1.
         11   -1    0    0    0    0 -0.00000000000E+00 -0.00000000000E+00 -0.45593999997E+02  0.45594000000E+02  0.51100000000E-03 0.  1.
    9900012    2    1    2    0    0 -0.25161753295E+02 -0.40927794452E+01 -0.19153408131E+02  0.59301988718E+02  0.50000081504E+02 0.  0.
         12    1    1    2    0    0  0.25161753295E+02  0.40927794452E+01  0.19153408131E+02  0.31886011282E+02  0.00000000000E+00 0. -1.
         11    1    3    3    0    0 -0.14403404798E+00 -0.18890479326E+02  0.35134021815E-01  0.18891061104E+02  0.51100000000E-03 0. -1.
        -11    1    3    3    0    0 -0.19747440759E+02  0.81097190443E+00 -0.65023586212E+01  0.20806243290E+02  0.51100000000E-03 0.  1.
         12    1    3    3    0    0 -0.52702784885E+01  0.13986727977E+02 -0.12686183531E+02  0.19604684324E+02  0.00000000000E+00 0. -1.
</event>
<event>
 7    1  0.7674040E-012  0.5930196E+02  0.7816164E-02  0.1266605E+00
        -11   -1    0    0    0    0  0.00000000000E+00  0.00000000000E+00  0.45593999997E+02  0.45594000000E+02  0.51100000000E-03 0.  1.
         11   -1    0    0    0    0 -0.00000000000E+00 -0.00000000000E+00 -0.45593999997E+02  0.45594000000E+02  0.51100000000E-03 0. -1.
    9900012    2    1    2    0    0 -0.15091630712E+02 -0.14155615199E+01  0.28052780956E+02  0.59301958362E+02  0.50000026143E+02 0.  0.
         12    1    1    2    0    0  0.15091630712E+02  0.14155615199E+01 -0.28052780956E+02  0.31886041638E+02  0.00000000000E+00 0. -1.
         11    1    3    3    0    0 -0.87159268341E+00 -0.37326412857E+01 -0.53451868760E+01  0.65774849124E+01  0.51100000000E-03 0. -1.
        -11    1    3    3    0    0 -0.38129448813E+01  0.18631651003E+02  0.25529915622E+02  0.31834785372E+02  0.51100000000E-03 0.  1.
        -12    1    3    3    0    0 -0.10407093147E+02 -0.16314571237E+02  0.78680522100E+01  0.20889688078E+02  0.00000000000E+00 0.  1.
</event>
<event>
 7    1  0.7674040E-012  0.5930194E+02  0.7816164E-02  0.1266605E+00
        -11   -1    0    0    0    0  0.00000000000E+00  0.00000000000E+00  0.45593999997E+02  0.45594000000E+02  0.51100000000E-03 0.  1.
         11   -1    0    0    0    0 -0.00000000000E+00 -0.00000000000E+00 -0.45593999997E+02  0.45594000000E+02  0.51100000000E-03 0. -1.
    9900012    2    1    2    0    0 -0.23721387653E+02 -0.20279140318E+02 -0.65400881320E+01  0.59301944788E+02  0.50000001387E+02 0.  0.
         12    1    1    2    0    0  0.23721387653E+02  0.20279140318E+02  0.65400881320E+01  0.31886055212E+02  0.00000000000E+00 0. -1.
         11    1    3    3    0    0  0.92501114636E+01 -0.10065809468E+01  0.70608259910E+00  0.93314693479E+01  0.51100000000E-03 0. -1.
        -11    1    3    3    0    0 -0.22968095308E+02 -0.27916182740E+02 -0.64911226638E+01  0.36728481245E+02  0.51100000000E-03 0.  1.
        -12    1    3    3    0    0 -0.10003403808E+02  0.86436233692E+01 -0.75504806731E+00  0.13241994196E+02  0.00000000000E+00 0.  1.
</event>
<event>
 7    1  0.7674040E-012  0.5930195E+02  0.7816164E-02  0.1266605E+00
        -11   -1    0    0    0    0  0.00000000000E+00  0.00000000000E+00  0.45593999997E+02  0.45594000000E+02  0.51100000000E-03 0.  1.
         11   -1    0    0    0    0 -0.00000000000E+00 -0.00000000000E+00 -0.45593999997E+02  0.45594000000E+02  0.51100000000E-03 0. -1.
    9900012    2    1    2    0    0 -0.88298484849E+01 -0.12336942174E+02  0.28045572010E+02  0.59301945433E+02  0.50000002562E+02 0.  0.
         12    1    1    2    0    0  0.88298484849E+01  0.12336942174E+02 -0.28045572010E+02  0.31886054567E+02  0.00000000000E+00 0. -1.
         11    1    3    3    0    0  0.21820304837E+01 -0.21893350437E+02 -0.92032566502E+00  0.22021059238E+02  0.51100000000E-03 0.  1.
        -11    1    3    3    0    0 -0.13672418703E+02  0.13784630381E+01  0.11931665121E+02  0.18198896295E+02  0.51100000000E-03 0. -1.
         12    1    3    3    0    0  0.26605397347E+01  0.81779452247E+01  0.17034232555E+02  0.19081989899E+02  0.00000000000E+00 0. -1.
</event>
<event>
 7    1  0.7674040E-012  0.5930193E+02  0.7816164E-02  0.1266605E+00
        -11   -1    0    0    0    0  0.00000000000E+00  0.00000000000E+00  0.45593999997E+02  0.45594000000E+02  0.51100000000E-03 0.  1.
         11   -1    0    0    0    0 -0.00000000000E+00 -0.00000000000E+00 -0.45593999997E+02  0.45594000000E+02  0.51100000000E-03 0. -1.
    9900012    2    1    2    0    0  0.20126111840E+02 -0.18245072368E+02  0.16696652101E+02  0.59301933530E+02  0.49999980855E+02 0.  0.
         12    1    1    2    0    0 -0.20126111840E+02  0.18245072368E+02 -0.16696652101E+02  0.31886066470E+02  0.00000000000E+00 0. -1.
         11    1    3    3    0    0  0.10000151629E+02 -0.34227686828E+02  0.10174463049E+02  0.37081764747E+02  0.51100000000E-03 0. -1.
        -11    1    3    3    0    0  0.10808516223E+02  0.11142200299E+02  0.74918816013E+01  0.17236616275E+02  0.51100000000E-03 0.  1.
         12    1    3    3    0    0 -0.68255601172E+00  0.48404141605E+01 -0.96969254977E+00  0.49835525075E+01  0.00000000000E+00 0. -1.
</event>
<event>
 7    1  0.7674040E-012  0.5930194E+02  0.7816164E-02  0.1266605E+00
        -11   -1    0    0    0    0  0.00000000000E+00  0.00000000000E+00  0.45593999997E+02  0.45594000000E+02  0.51100000000E-03 0.  1.
         11   -1    0    0    0    0 -0.00000000000E+00 -0.00000000000E+00 -0.45593999997E+02  0.45594000000E+02  0.51100000000E-03 0. -1.
    9900012    2    1    2    0    0 -0.28665722392E+02  0.47551746306E+01 -0.13129558230E+02  0.59301943089E+02  0.49999998288E+02 0.  0.
         12    1    1    2    0    0  0.28665722392E+02 -0.47551746306E+01  0.13129558230E+02  0.31886056911E+02  0.00000000000E+00 0. -1.
         11    1    3    3    0    0 -0.21489048374E+02  0.17475747410E+02 -0.14878665561E+02  0.31441304628E+02  0.51100000000E-03 0. -1.
        -11    1    3    3    0    0 -0.52362390873E+01 -0.43434713650E+01  0.12417020403E+02  0.14158613605E+02  0.51100000000E-03 0.  1.
        -12    1    3    3    0    0 -0.19404349305E+01 -0.83771014148E+01 -0.10667913072E+02  0.13702024856E+02  0.00000000000E+00 0.  1.
</event>
<event>
 7    1  0.7674040E-012  0.5930194E+02  0.7816164E-02  0.1266605E+00
        -11   -1    0    0    0    0  0.00000000000E+00  0.00000000000E+00  0.45593999997E+02  0.45594000000E+02  0.51100000000E-03 0.  1.
         11   -1    0    0    0    0 -0.00000000000E+00 -0.00000000000E+00 -0.45593999997E+02  0.45594000000E+02  0.51100000000E-03 0. -1.
    9900012    2    1    2    0    0  0.99557814846E+01  0.21609868033E+02  0.21227731286E+02  0.59301944162E+02  0.50000000245E+02 0.  0.
         12    1    1    2    0    0 -0.99557814846E+01 -0.21609868033E+02 -0.21227731286E+02  0.31886055838E+02  0.00000000000E+00 0. -1.
         11    1    3    3    0    0  0.12332956821E+02  0.21715493538E+02 -0.77570689787E+01  0.26150269653E+02  0.51100000000E-03 0. -1.
        -11    1    3    3    0    0  0.29487924879E+01  0.65798007263E+01  0.16655709590E+02  0.18149430210E+02  0.51100000000E-03 0.  1.
         12    1    3    3    0    0 -0.53259678239E+01 -0.66854262313E+01  0.12329090674E+02  0.15002244299E+02  0.00000000000E+00 0. -1.
</event>
<event>
 7    1  0.7674040E-012  0.5930194E+02  0.7816164E-02  0.1266605E+00
        -11   -1    0    0    0    0  0.00000000000E+00  0.00000000000E+00  0.45593999997E+02  0.45594000000E+02  0.51100000000E-03 0.  1.
         11   -1    0    0    0    0 -0.00000000000E+00 -0.00000000000E+00 -0.45593999997E+02  0.45594000000E+02  0.51100000000E-03 0. -1.
    9900012    2    1    2    0    0  0.10345318223E+02  0.28976536007E+02 -0.83699180136E+01  0.59301940732E+02  0.49999993990E+02 0.  0.
         12    1    1    2    0    0 -0.10345318223E+02 -0.28976536007E+02  0.83699180136E+01  0.31886059268E+02  0.00000000000E+00 0. -1.
         11    1    3    3    0    0  0.43391762268E+01  0.27042189854E+02  0.69278979594E-01  0.27388196039E+02  0.51100000000E-03 0.  1.
        -11    1    3    3    0    0 -0.10018620424E+02  0.24203848943E+01 -0.11658882369E+02  0.15561508815E+02  0.51100000000E-03 0. -1.
         12    1    3    3    0    0  0.16024762421E+02 -0.48603874202E+00  0.32196853755E+01  0.16352235878E+02  0.00000000000E+00 0. -1.
</event>
<event>
 7    1  0.7674040E-012  0.5930210E+02  0.7816164E-02  0.1266604E+00
        -11   -1    0    0    0    0  0.00000000000E+00  0.00000000000E+00  0.45593999997E+02  0.45594000000E+02  0.51100000000E-03 0. -1.
         11   -1    0    0    0    0 -0.00000000000E+00 -0.00000000000E+00 -0.45593999997E+02  0.45594000000E+02  0.51100000000E-03 0.  1.
    9900012    2    1    2    0    0 -0.14939889166E+02 -0.28075563268E+02  0.22962503562E+01  0.59302104892E+02  0.50000293378E+02 0.  0.
         12    1    1    2    0    0  0.14939889166E+02  0.28075563268E+02 -0.22962503562E+01  0.31885895108E+02  0.00000000000E+00 0. -1.
         11    1    3    3    0    0 -0.62125798184E+01  0.34495966130E+01  0.61449833793E+01  0.93945029557E+01  0.51100000000E-03 0. -1.
        -11    1    3    3    0    0  0.69996058315E+01 -0.73807005641E+00 -0.12432444328E+02  0.14286528670E+02  0.51100000000E-03 0.  1.
        -12    1    3    3    0    0 -0.15726915179E+02 -0.30787089824E+02  0.85837113049E+01  0.35621073267E+02  0.00000000000E+00 0.  1.
</event>
<event>
 7    1  0.7674040E-012  0.5930194E+02  0.7816164E-02  0.1266605E+00
        -11   -1    0    0    0    0  0.00000000000E+00  0.00000000000E+00  0.45593999997E+02  0.45594000000E+02  0.51100000000E-03 0.  1.
         11   -1    0    0    0    0 -0.00000000000E+00 -0.00000000000E+00 -0.45593999997E+02  0.45594000000E+02  0.51100000000E-03 0. -1.
    9900012    2    1    2    0    0 -0.14239882372E+02 -0.25745641692E+02  0.12292609021E+02  0.59301944229E+02  0.50000000367E+02 0.  0.
         12    1    1    2    0    0  0.14239882372E+02  0.25745641692E+02 -0.12292609021E+02  0.31886055771E+02  0.00000000000E+00 0. -1.
         11    1    3    3    0    0  0.74592586642E+01  0.83189050362E+01 -0.75824643601E+01  0.13503276893E+02  0.51100000000E-03 0. -1.
        -11    1    3    3    0    0 -0.55488019614E+01 -0.16091618513E+02  0.95954854936E+01  0.19539773072E+02  0.51100000000E-03 0.  1.
         12    1    3    3    0    0 -0.16150339075E+02 -0.17972928215E+02  0.10279587888E+02  0.26258894264E+02  0.00000000000E+00 0. -1.
</event>
<event>
 7    1  0.7674040E-012  0.5930192E+02  0.7816164E-02  0.1266605E+00
        -11   -1    0    0    0    0  0.00000000000E+00  0.00000000000E+00  0.45593999997E+02  0.45594000000E+02  0.51100000000E-03 0.  1.
         11   -1    0    0    0    0 -0.00000000000E+00 -0.00000000000E+00 -0.45593999997E+02  0.45594000000E+02  0.51100000000E-03 0. -1.
    9900012    2    1    2    0    0  0.20458652015E+02 -0.23735229517E+02 -0.58995244020E+01  0.59301922307E+02  0.49999960386E+02 0.  0.
         12    1    1    2    0    0 -0.20458652015E+02  0.23735229517E+02  0.58995244020E+01  0.31886077693E+02  0.00000000000E+00 0. -1.
         11    1    3    3    0    0  0.94917051151E+01  0.12080545396E+01  0.81243943362E+01  0.12552196834E+02  0.51100000000E-03 0. -1.
        -11    1    3    3    0    0 -0.99703268491E+01 -0.96792871291E+01 -0.15475213612E+02  0.20798515654E+02  0.51100000000E-03 0.  1.
        -12    1    3    3    0    0  0.20937273749E+02 -0.15263996927E+02  0.14512948739E+01  0.25951209819E+02  0.00000000000E+00 0.  1.
</event>
<event>
 7    1  0.7674040E-012  0.5930197E+02  0.7816164E-02  0.1266605E+00
        -11   -1    0    0    0    0  0.00000000000E+00  0.00000000000E+00  0.45593999997E+02  0.45594000000E+02  0.51100000000E-03 0.  1.
         11   -1    0    0    0    0 -0.00000000000E+00 -0.00000000000E+00 -0.45593999997E+02  0.45594000000E+02  0.51100000000E-03 0. -1.
    9900012    2    1    2    0    0 -0.15736655295E+02  0.18704812092E+02  0.20474541241E+02  0.59301966156E+02  0.50000040357E+02 0.  0.
         12    1    1    2    0    0  0.15736655295E+02 -0.18704812092E+02 -0.20474541241E+02  0.31886033844E+02  0.00000000000E+00 0. -1.
         11    1    3    3    0    0 -0.30427484786E+02  0.18688578580E+02  0.13533097133E+02  0.38186902441E+02  0.51100000000E-03 0. -1.
        -11    1    3    3    0    0  0.31113159157E+01  0.60861832971E+01  0.18176611937E+01  0.70728923595E+01  0.51100000000E-03 0.  1.
         12    1    3    3    0    0  0.11579513575E+02 -0.60699497860E+01  0.51237829140E+01  0.14042171356E+02  0.00000000000E+00 0. -1.
</event>
<event>
 7    1  0.7674040E-012  0.5930193E+02  0.7816164E-02  0.1266605E+00
        -11   -1    0    0    0    0  0.00000000000E+00  0.00000000000E+00  0.45593999997E+02  0.45594000000E+02  0.51100000000E-03 0.  1.
         11   -1    0    0    0    0 -0.00000000000E+00 -0.00000000000E+00 -0.45593999997E+02  0.45594000000E+02  0.51100000000E-03 0. -1.
    9900012    2    1    2    0    0  0.25054007557E+02  0.17962682000E+02  0.81461771124E+01  0.59301930301E+02  0.49999974966E+02 0.  0.
         12    1    1    2    0    0 -0.25054007557E+02 -0.17962682000E+02 -0.81461771124E+01  0.31886069699E+02  0.00000000000E+00 0. -1.
         11    1    3    3    0    0  0.11274412618E+02  0.97463946459E+01 -0.19723252049E+02  0.24720664638E+02  0.51100000000E-03 0. -1.
        -11    1    3    3    0    0 -0.12148910949E+01 -0.73916487235E+00  0.80067350182E+01  0.81320434697E+01  0.51100000000E-03 0.  1.
         12    1    3    3    0    0  0.14994486034E+02  0.89554522266E+01  0.19862694144E+02  0.26449222194E+02  0.00000000000E+00 0. -1.
</event>
<event>
 7    1  0.7674040E-012  0.5930193E+02  0.7816164E-02  0.1266605E+00
        -11   -1    0    0    0    0  0.00000000000E+00  0.00000000000E+00  0.45593999997E+02  0.45594000000E+02  0.51100000000E-03 0.  1.
         11   -1    0    0    0    0 -0.00000000000E+00 -0.00000000000E+00 -0.45593999997E+02  0.45594000000E+02  0.51100000000E-03 0. -1.
    9900012    2    1    2    0    0  0.22369469414E+02  0.18379807839E+02  0.13360790996E+02  0.59301933543E+02  0.49999980878E+02 0.  0.
         12    1    1    2    0    0 -0.22369469414E+02 -0.18379807839E+02 -0.13360790996E+02  0.31886066457E+02  0.00000000000E+00 0. -1.
         11    1    3    3    0    0  0.30330235486E+02 -0.31586668609E+01  0.83528785933E+01  0.31617573310E+02  0.51100000000E-03 0. -1.
        -11    1    3    3    0    0  0.11109324468E+01  0.14293109670E+02  0.69183870882E+01  0.15918267340E+02  0.51100000000E-03 0.  1.
         12    1    3    3    0    0 -0.90716985184E+01  0.72453650305E+01 -0.19104746859E+01  0.11766092893E+02  0.00000000000E+00 0. -1.
</event>
<event>
 7    1  0.7674040E-012  0.5930195E+02  0.7816164E-02  0.1266605E+00
        -11   -1    0    0    0    0  0.00000000000E+00  0.00000000000E+00  0.45593999997E+02  0.45594000000E+02  0.51100000000E-03 0.  1.
         11   -1    0    0    0    0 -0.00000000000E+00 -0.00000000000E+00 -0.45593999997E+02  0.45594000000E+02  0.51100000000E-03 0. -1.
    9900012    2    1    2    0    0 -0.17120793919E+02  0.19277293806E+02  0.18761254444E+02  0.59301948046E+02  0.50000007328E+02 0.  0.
         12    1    1    2    0    0  0.17120793919E+02 -0.19277293806E+02 -0.18761254444E+02  0.31886051954E+02  0.00000000000E+00 0. -1.
         11    1    3    3    0    0  0.97893330100E+01  0.15439679149E+02 -0.39184493530E+01  0.18696763854E+02  0.51100000000E-03 0. -1.
        -11    1    3    3    0    0 -0.28945786827E+02  0.71256811726E+01  0.20269446227E+02  0.36048361375E+02  0.51100000000E-03 0.  1.
        -12    1    3    3    0    0  0.20356598980E+01 -0.32880665156E+01  0.24102575696E+01  0.45568228168E+01  0.00000000000E+00 0.  1.
</event>
<event>
 7    1  0.7674040E-012  0.5930221E+02  0.7816164E-02  0.1266604E+00
        -11   -1    0    0    0    0  0.00000000000E+00  0.00000000000E+00  0.45593999997E+02  0.45594000000E+02  0.51100000000E-03 0.  1.
         11   -1    0    0    0    0 -0.00000000000E+00 -0.00000000000E+00 -0.45593999997E+02  0.45594000000E+02  0.51100000000E-03 0. -1.
    9900012    2    1    2    0    0  0.24885895434E+02 -0.64306663644E+01  0.18869081554E+02  0.59302211627E+02  0.50000488035E+02 0.  0.
         12    1    1    2    0    0 -0.24885895434E+02  0.64306663644E+01 -0.18869081554E+02  0.31885788373E+02  0.00000000000E+00 0. -1.
         11    1    3    3    0    0  0.67281446962E+01  0.71175256766E+01  0.26960362546E+02  0.28684285797E+02  0.51100000000E-03 0. -1.
        -11    1    3    3    0    0  0.19759856414E+02 -0.44270000325E+01 -0.50414889042E+01  0.20867842855E+02  0.51100000000E-03 0.  1.
         12    1    3    3    0    0 -0.16021056765E+01 -0.91211920084E+01 -0.30497920873E+01  0.97500829755E+01  0.00000000000E+00 0. -1.
</event>
<event>
 7    1  0.7674040E-012  0.5930201E+02  0.7816164E-02  0.1266605E+00
        -11   -1    0    0    0    0  0.00000000000E+00  0.00000000000E+00  0.45593999997E+02  0.45594000000E+02  0.51100000000E-03 0. -1.
         11   -1    0    0    0    0 -0.00000000000E+00 -0.00000000000E+00 -0.45593999997E+02  0.45594000000E+02  0.51100000000E-03 0.  1.
    9900012    2    1    2    0    0  0.27956624599E+02 -0.89716716192E+01 -0.12435950867E+02  0.59302005824E+02  0.50000112702E+02 0.  0.
         12    1    1    2    0    0 -0.27956624599E+02  0.89716716192E+01  0.12435950867E+02  0.31885994176E+02  0.00000000000E+00 0. -1.
         11    1    3    3    0    0 -0.97383950012E+01  0.46382422123E+01  0.42058256374E+01  0.11577503944E+02  0.51100000000E-03 0. -1.
        -11    1    3    3    0    0  0.24514365710E+02 -0.14408826751E+02 -0.19151392362E+02  0.34283293951E+02  0.51100000000E-03 0.  1.
         12    1    3    3    0    0  0.13180653891E+02  0.79891291904E+00  0.25096158574E+01  0.13441207929E+02  0.00000000000E+00 0. -1.
</event>
<event>
 7    1  0.7674040E-012  0.5930194E+02  0.7816164E-02  0.1266605E+00
        -11   -1    0    0    0    0  0.00000000000E+00  0.00000000000E+00  0.45593999997E+02  0.45594000000E+02  0.51100000000E-03 0. -1.
         11   -1    0    0    0    0 -0.00000000000E+00 -0.00000000000E+00 -0.45593999997E+02  0.45594000000E+02  0.51100000000E-03 0.  1.
    9900012    2    1    2    0    0 -0.80033311749E+01  0.23268864824E+02 -0.20278736572E+02  0.59301944473E+02  0.50000000813E+02 0.  0.
         12    1    1    2    0    0  0.80033311749E+01 -0.23268864824E+02  0.20278736572E+02  0.31886055527E+02  0.00000000000E+00 0. -1.
         11    1    3    3    0    0 -0.40054522465E+01  0.18770214095E+02 -0.33050223410E+02  0.38218867757E+02  0.51100000000E-03 0. -1.
        -11    1    3    3    0    0 -0.18249951227E+01 -0.56870200278E+01  0.25627679781E+01  0.64992756493E+01  0.51100000000E-03 0.  1.
         12    1    3    3    0    0 -0.21728838057E+01  0.10185670757E+02  0.10208718861E+02  0.14583801067E+02  0.00000000000E+00 0. -1.
</event>
<event>
 7    1  0.7674040E-012  0.5930199E+02  0.7816164E-02  0.1266605E+00
        -11   -1    0    0    0    0  0.00000000000E+00  0.00000000000E+00  0.45593999997E+02  0.45594000000E+02  0.51100000000E-03 0. -1.
         11   -1    0    0    0    0 -0.00000000000E+00 -0.00000000000E+00 -0.45593999997E+02  0.45594000000E+02  0.51100000000E-03 0.  1.
    9900012    2    1    2    0    0 -0.12678545905E+01  0.31744401728E+02  0.27209270046E+01  0.59301985195E+02  0.50000075080E+02 0.  0.
         12    1    1    2    0    0  0.12678545905E+01 -0.31744401728E+02 -0.27209270046E+01  0.31886014805E+02  0.00000000000E+00 0. -1.
         11    1    3    3    0    0  0.17553491529E+02  0.35077092717E+01  0.24265651886E+01  0.18064254982E+02  0.51100000000E-03 0. -1.
        -11    1    3    3    0    0 -0.18451812691E+01  0.10440081650E+02 -0.10001290565E+02  0.14574834887E+02  0.51100000000E-03 0.  1.
         12    1    3    3    0    0 -0.16976164850E+02  0.17796610807E+02  0.10295652381E+02  0.26662895326E+02  0.00000000000E+00 0. -1.
</event>
<event>
 7    1  0.7674040E-012  0.5930193E+02  0.7816164E-02  0.1266605E+00
        -11   -1    0    0    0    0  0.00000000000E+00  0.00000000000E+00  0.45593999997E+02  0.45594000000E+02  0.51100000000E-03 0.  1.
         11   -1    0    0    0    0 -0.00000000000E+00 -0.00000000000E+00 -0.45593999997E+02  0.45594000000E+02  0.51100000000E-03 0. -1.
    9900012    2    1    2    0    0 -0.30022729843E+02 -0.10319728768E+02 -0.29766048713E+01  0.59301932735E+02  0.49999979404E+02 0.  0.
         12    1    1    2    0    0  0.30022729843E+02  0.10319728768E+02  0.29766048713E+01  0.31886067265E+02  0.00000000000E+00 0. -1.
         11    1    3    3    0    0  0.68797422455E+01  0.10586062782E+02 -0.11977823843E+01  0.12681887142E+02  0.51100000000E-03 0. -1.
        -11    1    3    3    0    0 -0.42462926253E+01 -0.92134152121E+01  0.49485088970E+01  0.11287416068E+02  0.51100000000E-03 0.  1.
         12    1    3    3    0    0 -0.32656179463E+02 -0.11692376338E+02 -0.67273313840E+01  0.35332629525E+02  0.00000000000E+00 0. -1.
</event>
<event>
 7    1  0.7674040E-012  0.5930196E+02  0.7816164E-02  0.1266605E+00
        -11   -1    0    0    0    0  0.00000000000E+00  0.00000000000E+00  0.45593999997E+02  0.45594000000E+02  0.51100000000E-03 0. -1.
         11   -1    0    0    0    0 -0.00000000000E+00 -0.00000000000E+00 -0.45593999997E+02  0.45594000000E+02  0.51100000000E-03 0.  1.
    9900012    2    1    2    0    0 -0.25627486681E+02  0.59971187415E+01 -0.17999618401E+02  0.59301956512E+02  0.50000022768E+02 0.  0.
         12    1    1    2    0    0  0.25627486681E+02 -0.59971187415E+01  0.17999618401E+02  0.31886043488E+02  0.00000000000E+00 0. -1.
         11    1    3    3    0    0 -0.66009505144E+01 -0.68819892948E+01 -0.10594551857E+02  0.14254082000E+02  0.51100000000E-03 0. -1.
        -11    1    3    3    0    0 -0.12394150621E+01  0.16771873431E+02  0.10242377854E+02  0.19691068850E+02  0.51100000000E-03 0.  1.
        -12    1    3    3    0    0 -0.17787121104E+02 -0.38927653945E+01 -0.17647444398E+02  0.25356805662E+02  0.00000000000E+00 0.  1.
</event>
<event>
 7    1  0.7674040E-012  0.5930196E+02  0.7816164E-02  0.1266605E+00
        -11   -1    0    0    0    0  0.00000000000E+00  0.00000000000E+00  0.45593999997E+02  0.45594000000E+02  0.51100000000E-03 0.  1.
         11   -1    0    0    0    0 -0.00000000000E+00 -0.00000000000E+00 -0.45593999997E+02  0.45594000000E+02  0.51100000000E-03 0. -1.
    9900012    2    1    2    0    0  0.19737549980E+01 -0.25318927997E+02  0.19281488211E+02  0.59301958989E+02  0.50000027285E+02 0.  0.
         12    1    1    2    0    0 -0.19737549980E+01  0.25318927997E+02 -0.19281488211E+02  0.31886041011E+02  0.00000000000E+00 0. -1.
         11    1    3    3    0    0  0.39627460871E+01  0.12560736462E+02  0.67437276977E+01  0.14797071350E+02  0.51100000000E-03 0. -1.
        -11    1    3    3    0    0 -0.58203396879E+01 -0.10115931720E+02  0.11610887649E+02  0.16462719730E+02  0.51100000000E-03 0.  1.
         12    1    3    3    0    0  0.38313485987E+01 -0.27763732740E+02  0.92687286510E+00  0.28042167909E+02  0.00000000000E+00 0. -1.
</event>
<event>
 7    1  0.7674040E-012  0.5930194E+02  0.7816164E-02  0.1266605E+00
        -11   -1    0    0    0    0  0.00000000000E+00  0.00000000000E+00  0.45593999997E+02  0.45594000000E+02  0.51100000000E-03 0.  1.
         11   -1    0    0    0    0 -0.00000000000E+00 -0.00000000000E+00 -0.45593999997E+02  0.45594000000E+02  0.51100000000E-03 0. -1.
    9900012    2    1    2    0    0  0.38429847544E+00 -0.10296225700E+02  0.30175498916E+02  0.59301942172E+02  0.49999996615E+02 0.  0.
         12    1    1    2    0    0 -0.38429847544E+00  0.10296225700E+02 -0.30175498916E+02  0.31886057828E+02  0.00000000000E+00 0. -1.
         11    1    3    3    0    0  0.26377301585E+01  0.33957787548E-01 -0.12672214387E+02  0.12943870798E+02  0.51100000000E-03 0. -1.
        -11    1    3    3    0    0 -0.75489445936E+01 -0.19982817803E+01  0.17993039225E+02  0.19614513896E+02  0.51100000000E-03 0.  1.
         12    1    3    3    0    0  0.52955129106E+01 -0.83319017070E+01  0.24854674078E+02  0.26743557478E+02  0.00000000000E+00 0. -1.
</event>
<event>
 7    1  0.7674040E-012  0.5930191E+02  0.7816164E-02  0.1266605E+00
        -11   -1    0    0    0    0  0.00000000000E+00  0.00000000000E+00  0.45593999997E+02  0.45594000000E+02  0.51100000000E-03 0.  1.
         11   -1    0    0    0    0 -0.00000000000E+00 -0.00000000000E+00 -0.45593999997E+02  0.45594000000E+02  0.51100000000E-03 0. -1.
    9900012    2    1    2    0    0 -0.27764733940E+02  0.35428397560E+01  0.15273842268E+02  0.59301914917E+02  0.49999946909E+02 0.  0.
         12    1    1    2    0    0  0.27764733940E+02 -0.35428397560E+01 -0.15273842268E+02  0.31886085083E+02  0.00000000000E+00 0. -1.
         11    1    3    3    0    0  0.35634594215E+01  0.10265243660E+02 -0.12754922819E+00  0.10866910302E+02  0.51100000000E-03 0. -1.
        -11    1    3    3    0    0 -0.86376741275E+01 -0.63162249873E+01  0.22284074791E+02  0.24720115331E+02  0.51100000000E-03 0.  1.
        -12    1    3    3    0    0 -0.22690519234E+02 -0.40617891694E+00 -0.68826832947E+01  0.23714889284E+02  0.00000000000E+00 0.  1.
</event>
<event>
 7    1  0.7674040E-012  0.5930194E+02  0.7816164E-02  0.1266605E+00
        -11   -1    0    0    0    0  0.00000000000E+00  0.00000000000E+00  0.45593999997E+02  0.45594000000E+02  0.51100000000E-03 0.  1.
         11   -1    0    0    0    0 -0.00000000000E+00 -0.00000000000E+00 -0.45593999997E+02  0.45594000000E+02  0.51100000000E-03 0. -1.
    9900012    2    1    2    0    0 -0.53609479820E+01 -0.28933315169E+02  0.12281862058E+02  0.59301943085E+02  0.49999998281E+02 0.  0.
         12    1    1    2    0    0  0.53609479820E+01  0.28933315169E+02 -0.12281862058E+02  0.31886056915E+02  0.00000000000E+00 0. -1.
         11    1    3    3    0    0  0.34237408969E+01 -0.12211588398E+02  0.13193905838E+02  0.18300930152E+02  0.51100000000E-03 0. -1.
        -11    1    3    3    0    0  0.11232623603E+01  0.71708898069E+01  0.10471685602E+02  0.12741254984E+02  0.51100000000E-03 0.  1.
         12    1    3    3    0    0 -0.99079512392E+01 -0.23892616578E+02 -0.11383729382E+02  0.28259757949E+02  0.00000000000E+00 0. -1.
</event>
<event>
 7    1  0.7674040E-012  0.5930194E+02  0.7816164E-02  0.1266605E+00
        -11   -1    0    0    0    0  0.00000000000E+00  0.00000000000E+00  0.45593999997E+02  0.45594000000E+02  0.51100000000E-03 0. -1.
         11   -1    0    0    0    0 -0.00000000000E+00 -0.00000000000E+00 -0.45593999997E+02  0.45594000000E+02  0.51100000000E-03 0.  1.
    9900012    2    1    2    0    0  0.36528530896E+01 -0.27475075685E+02 -0.15763803388E+02  0.59301943222E+02  0.49999998531E+02 0.  0.
         12    1    1    2    0    0 -0.36528530896E+01  0.27475075685E+02  0.15763803388E+02  0.31886056778E+02  0.00000000000E+00 0. -1.
         11    1    3    3    0    0 -0.12571207675E+02 -0.27322631139E+02 -0.80503922898E+01  0.31134711353E+02  0.51100000000E-03 0. -1.
        -11    1    3    3    0    0  0.10293209602E+02 -0.81630696711E+01 -0.11544710717E+02  0.17489031310E+02  0.51100000000E-03 0.  1.
         12    1    3    3    0    0  0.59308511620E+01  0.80106251254E+01  0.38312996186E+01  0.10678200559E+02  0.00000000000E+00 0. -1.
</event>
<event>
 7    1  0.7674040E-012  0.5930196E+02  0.7816164E-02  0.1266605E+00
        -11   -1    0    0    0    0  0.00000000000E+00  0.00000000000E+00  0.45593999997E+02  0.45594000000E+02  0.51100000000E-03 0.  1.
         11   -1    0    0    0    0 -0.00000000000E+00 -0.00000000000E+00 -0.45593999997E+02  0.45594000000E+02  0.51100000000E-03 0. -1.
    9900012    2    1    2    0    0 -0.22410981374E+02 -0.22679548519E+02 -0.32476889550E+00  0.59301961017E+02  0.50000030985E+02 0.  0.
         12    1    1    2    0    0  0.22410981374E+02  0.22679548519E+02  0.32476889550E+00  0.31886038983E+02  0.00000000000E+00 0. -1.
         11    1    3    3    0    0 -0.19895198349E+02 -0.28581172796E+01 -0.16778497606E+02  0.26182164423E+02  0.51100000000E-03 0. -1.
        -11    1    3    3    0    0  0.71969905460E+01 -0.24957922114E+01  0.92698395136E+01  0.11998148880E+02  0.51100000000E-03 0.  1.
         12    1    3    3    0    0 -0.97127735712E+01 -0.17325639028E+02  0.71838891967E+01  0.21121647714E+02  0.00000000000E+00 0. -1.
</event>
<event>
 7    1  0.7674040E-012  0.5930193E+02  0.7816164E-02  0.1266605E+00
        -11   -1    0    0    0    0  0.00000000000E+00  0.00000000000E+00  0.45593999997E+02  0.45594000000E+02  0.51100000000E-03 0. -1.
         11   -1    0    0    0    0 -0.00000000000E+00 -0.00000000000E+00 -0.45593999997E+02  0.45594000000E+02  0.51100000000E-03 0.  1.
    9900012    2    1    2    0    0 -0.23179420745E+02  0.21403915519E+02 -0.46160689764E+01  0.59301933475E+02  0.49999980754E+02 0.  0.
         12    1    1    2    0    0  0.23179420745E+02 -0.21403915519E+02  0.46160689764E+01  0.31886066525E+02  0.00000000000E+00 0. -1.
         11    1    3    3    0    0 -0.18120654445E+02 -0.86024421228E+01  0.10321020217E+02  0.22558448231E+02  0.51100000000E-03 0. -1.
        -11    1    3    3    0    0 -0.83406667482E+01  0.89242504039E+01 -0.48428034594E+01  0.13140080391E+02  0.51100000000E-03 0.  1.
         12    1    3    3    0    0  0.32819004480E+01  0.21082107238E+02 -0.10094285734E+02  0.23603404853E+02  0.00000000000E+00 0. -1.
</event>
<event>
 7    1  0.7674040E-012  0.5930195E+02  0.7816164E-02  0.1266605E+00
        -11   -1    0    0    0    0  0.00000000000E+00  0.00000000000E+00  0.45593999997E+02  0.45594000000E+02  0.51100000000E-03 0.  1.
         11   -1    0    0    0    0 -0.00000000000E+00 -0.00000000000E+00 -0.45593999997E+02  0.45594000000E+02  0.51100000000E-03 0. -1.
    9900012    2    1    2    0    0  0.21330320952E+02  0.19380468818E+02 -0.13643136923E+02  0.59301947428E+02  0.50000006202E+02 0.  0.
         12    1    1    2    0    0 -0.21330320952E+02 -0.19380468818E+02  0.13643136923E+02  0.31886052572E+02  0.00000000000E+00 0. -1.
         11    1    3    3    0    0  0.46949388604E+01 -0.23155242583E+01 -0.21541816144E+02  0.22168760600E+02  0.51100000000E-03 0. -1.
        -11    1    3    3    0    0  0.44454254827E+01  0.19587109786E+02 -0.34095398949E+01  0.20372570777E+02  0.51100000000E-03 0.  1.
         12    1    3    3    0    0  0.12189956609E+02  0.21088832899E+01  0.11308219116E+02  0.16760616051E+02  0.00000000000E+00 0. -1.
</event>
<event>
 7    1  0.7674040E-012  0.5930191E+02  0.7816164E-02  0.1266605E+00
        -11   -1    0    0    0    0  0.00000000000E+00  0.00000000000E+00  0.45593999997E+02  0.45594000000E+02  0.51100000000E-03 0.  1.
         11   -1    0    0    0    0 -0.00000000000E+00 -0.00000000000E+00 -0.45593999997E+02  0.45594000000E+02  0.51100000000E-03 0. -1.
    9900012    2    1    2    0    0 -0.12133399964E+02 -0.52752066014E+01  0.29011639376E+02  0.59301914968E+02  0.49999947003E+02 0.  0.
         12    1    1    2    0    0  0.12133399964E+02  0.52752066014E+01 -0.29011639376E+02  0.31886085032E+02  0.00000000000E+00 0. -1.
         11    1    3    3    0    0 -0.10550467364E+02  0.51091721961E+01 -0.42420538347E+01  0.12466395755E+02  0.51100000000E-03 0. -1.
        -11    1    3    3    0    0 -0.12103248698E+02 -0.13532920501E+02  0.30531403906E+02  0.35521756588E+02  0.51100000000E-03 0.  1.
         12    1    3    3    0    0  0.10520316099E+02  0.31485417038E+01  0.27222893042E+01  0.11313762625E+02  0.00000000000E+00 0. -1.
</event>
<event>
 7    1  0.7674040E-012  0.5930195E+02  0.7816164E-02  0.1266605E+00
        -11   -1    0    0    0    0  0.00000000000E+00  0.00000000000E+00  0.45593999997E+02  0.45594000000E+02  0.51100000000E-03 0.  1.
         11   -1    0    0    0    0 -0.00000000000E+00 -0.00000000000E+00 -0.45593999997E+02  0.45594000000E+02  0.51100000000E-03 0. -1.
    9900012    2    1    2    0    0  0.32294622208E+01 -0.69309784110E+01  0.30955649101E+02  0.59301951338E+02  0.50000013333E+02 0.  0.
         12    1    1    2    0    0 -0.32294622208E+01  0.69309784110E+01 -0.30955649101E+02  0.31886048662E+02  0.00000000000E+00 0. -1.
         11    1    3    3    0    0  0.12052552663E+00  0.32892867184E+01 -0.10410842115E+01  0.34522152475E+01  0.51100000000E-03 0. -1.
        -11    1    3    3    0    0  0.87107462537E+00  0.67478825623E+01  0.37312796660E+02  0.37928056699E+02  0.51100000000E-03 0.  1.
        -12    1    3    3    0    0  0.22378620688E+01 -0.16968147692E+02 -0.53160633474E+01  0.17921679392E+02  0.00000000000E+00 0.  1.
</event>
<event>
 7    1  0.7674040E-012  0.5930194E+02  0.7816164E-02  0.1266605E+00
        -11   -1    0    0    0    0  0.00000000000E+00  0.00000000000E+00  0.45593999997E+02  0.45594000000E+02  0.51100000000E-03 0. -1.
         11   -1    0    0    0    0 -0.00000000000E+00 -0.00000000000E+00 -0.45593999997E+02  0.45594000000E+02  0.51100000000E-03 0.  1.
    9900012    2    1    2    0    0 -0.10387979017E+02 -0.17336019858E+02 -0.24663190353E+02  0.59301942687E+02  0.49999997556E+02 0.  0.
         12    1    1    2    0    0  0.10387979017E+02  0.17336019858E+02  0.24663190353E+02  0.31886057313E+02  0.00000000000E+00 0. -1.
         11    1    3    3    0    0  0.85409127456E+01 -0.18277494990E+02  0.71753435813E+01  0.21412603050E+02  0.51100000000E-03 0. -1.
        -11    1    3    3    0    0 -0.12630504445E+02  0.34779190087E+00 -0.13501329494E+02  0.18491525089E+02  0.51100000000E-03 0.  1.
         12    1    3    3    0    0 -0.62983873176E+01  0.59368323108E+00 -0.18337204440E+02  0.19397814549E+02  0.00000000000E+00 0. -1.
</event>
<event>
 7    1  0.7674040E-012  0.5930194E+02  0.7816164E-02  0.1266605E+00
        -11   -1    0    0    0    0  0.00000000000E+00  0.00000000000E+00  0.45593999997E+02  0.45594000000E+02  0.51100000000E-03 0.  1.
         11   -1    0    0    0    0 -0.00000000000E+00 -0.00000000000E+00 -0.45593999997E+02  0.45594000000E+02  0.51100000000E-03 0. -1.
    9900012    2    1    2    0    0 -0.26241211656E+02  0.69387946821E+01  0.16732388878E+02  0.59301938807E+02  0.49999990479E+02 0.  0.
         12    1    1    2    0    0  0.26241211656E+02 -0.69387946821E+01 -0.16732388878E+02  0.31886061193E+02  0.00000000000E+00 0. -1.
         11    1    3    3    0    0 -0.16179656732E+02 -0.15104517696E+02 -0.65425343772E+01  0.23080998747E+02  0.51100000000E-03 0. -1.
        -11    1    3    3    0    0 -0.59630286827E+00  0.15943566618E+02  0.17065009976E+02  0.23361666451E+02  0.51100000000E-03 0.  1.
         12    1    3    3    0    0 -0.94652520556E+01  0.60997457607E+01  0.62099132791E+01  0.12859273609E+02  0.00000000000E+00 0. -1.
</event>
<event>
 7    1  0.7674040E-012  0.5930196E+02  0.7816164E-02  0.1266605E+00
        -11   -1    0    0    0    0  0.00000000000E+00  0.00000000000E+00  0.45593999997E+02  0.45594000000E+02  0.51100000000E-03 0. -1.
         11   -1    0    0    0    0 -0.00000000000E+00 -0.00000000000E+00 -0.45593999997E+02  0.45594000000E+02  0.51100000000E-03 0.  1.
    9900012    2    1    2    0    0  0.23676484585E+02 -0.35086454055E+01 -0.21067339487E+02  0.59301963747E+02  0.50000035963E+02 0.  0.
         12    1    1    2    0    0 -0.23676484585E+02  0.35086454055E+01  0.21067339487E+02  0.31886036253E+02  0.00000000000E+00 0. -1.
         11    1    3    3    0    0  0.12227213900E+02 -0.24597944111E+02 -0.69487181571E+01  0.28334577790E+02  0.51100000000E-03 0.  1.
        -11    1    3    3    0    0  0.12590046602E+02  0.20547728493E+02 -0.15836008332E+02  0.28835699746E+02  0.51100000000E-03 0. -1.
         12    1    3    3    0    0 -0.11407759172E+01  0.54157021254E+00  0.17173870020E+01  0.21316862112E+01  0.00000000000E+00 0. -1.
</event>
<event>
 7    1  0.7674040E-012  0.5930191E+02  0.7816164E-02  0.1266605E+00
        -11   -1    0    0    0    0  0.00000000000E+00  0.00000000000E+00  0.45593999997E+02  0.45594000000E+02  0.51100000000E-03 0.  1.
         11   -1    0    0    0    0 -0.00000000000E+00 -0.00000000000E+00 -0.45593999997E+02  0.45594000000E+02  0.51100000000E-03 0. -1.
    9900012    2    1    2    0    0  0.29900371394E+02 -0.80543156081E+01 -0.76038429306E+01  0.59301911549E+02  0.49999940766E+02 0.  0.
         12    1    1    2    0    0 -0.29900371394E+02  0.80543156081E+01  0.76038429306E+01  0.31886088451E+02  0.00000000000E+00 0. -1.
         11    1    3    3    0    0  0.14516375389E+02  0.12478099597E+02 -0.20777565548E+02  0.28251289428E+02  0.51100000000E-03 0. -1.
        -11    1    3    3    0    0 -0.49121150301E-01 -0.52936235800E+01  0.64484614566E+01  0.83431120640E+01  0.51100000000E-03 0.  1.
         12    1    3    3    0    0  0.15433117155E+02 -0.15238791625E+02  0.67252611608E+01  0.22707510057E+02  0.00000000000E+00 0. -1.
</event>
<event>
 7    1  0.7674040E-012  0.5930194E+02  0.7816164E-02  0.1266605E+00
        -11   -1    0    0    0    0  0.00000000000E+00  0.00000000000E+00  0.45593999997E+02  0.45594000000E+02  0.51100000000E-03 0. -1.
         11   -1    0    0    0    0 -0.00000000000E+00 -0.00000000000E+00 -0.45593999997E+02  0.45594000000E+02  0.51100000000E-03 0.  1.
    9900012    2    1    2    0    0  0.16518934775E+02  0.15899004244E+02 -0.22160040369E+02  0.59301938293E+02  0.49999989542E+02 0.  0.
         12    1    1    2    0    0 -0.16518934775E+02 -0.15899004244E+02  0.22160040369E+02  0.31886061707E+02  0.00000000000E+00 0. -1.
         11    1    3    3    0    0  0.14841855863E+02  0.96276782762E+01 -0.13781148374E+02  0.22425274251E+02  0.51100000000E-03 0. -1.
        -11    1    3    3    0    0 -0.14265285122E+02  0.10600459459E+02 -0.98007662045E+01  0.20295889210E+02  0.51100000000E-03 0.  1.
        -12    1    3    3    0    0  0.15942364034E+02 -0.43291334915E+01  0.14218742105E+01  0.16580774833E+02  0.00000000000E+00 0.  1.
</event>
<event>
 7    1  0.7674040E-012  0.5930194E+02  0.7816164E-02  0.1266605E+00
        -11   -1    0    0    0    0  0.00000000000E+00  0.00000000000E+00  0.45593999997E+02  0.45594000000E+02  0.51100000000E-03 0. -1.
         11   -1    0    0    0    0 -0.00000000000E+00 -0.00000000000E+00 -0.45593999997E+02  0.45594000000E+02  0.51100000000E-03 0.  1.
    9900012    2    1    2    0    0 -0.33150268326E+01  0.30089804783E+02 -0.10016723635E+02  0.59301944942E+02  0.50000001668E+02 0.  0.
         12    1    1    2    0    0  0.33150268326E+01 -0.30089804783E+02  0.10016723635E+02  0.31886055058E+02  0.00000000000E+00 0. -1.
         11    1    3    3    0    0 -0.10617802958E+02 -0.29210453855E+01 -0.98940086372E+01  0.14804109327E+02  0.51100000000E-03 0. -1.
        -11    1    3    3    0    0  0.10776660163E+02  0.33349041453E+02  0.77432822550E+01  0.35892246940E+02  0.51100000000E-03 0.  1.
        -12    1    3    3    0    0 -0.34738840376E+01 -0.33819128454E+00 -0.78659972530E+01  0.86055886746E+01  0.00000000000E+00 0.  1.
</event>
<event>
 7    1  0.7674040E-012  0.5930187E+02  0.7816164E-02  0.1266605E+00
        -11   -1    0    0    0    0  0.00000000000E+00  0.00000000000E+00  0.45593999997E+02  0.45594000000E+02  0.51100000000E-03 0.  1.
         11   -1    0    0    0    0 -0.00000000000E+00 -0.00000000000E+00 -0.45593999997E+02  0.45594000000E+02  0.51100000000E-03 0. -1.
    9900012    2    1    2    0    0 -0.53402967449E+01 -0.17443698971E+02  0.26151934539E+02  0.59301873186E+02  0.49999870801E+02 0.  0.
         12    1    1    2    0    0  0.53402967449E+01  0.17443698971E+02 -0.26151934539E+02  0.31886126814E+02  0.00000000000E+00 0. -1.
         11    1    3    3    0    0  0.11813423181E+02 -0.48114342193E+01  0.40247003425E+01  0.13375540348E+02  0.51100000000E-03 0. -1.
        -11    1    3    3    0    0 -0.23255109548E+02 -0.94886867158E+01  0.27475133782E+02  0.37225237034E+02  0.51100000000E-03 0.  1.
        -12    1    3    3    0    0  0.61013896218E+01 -0.31435780361E+01 -0.53478995860E+01  0.87010958027E+01  0.00000000000E+00 0.  1.
</event>
<event>
 7    1  0.7674040E-012  0.5930198E+02  0.7816164E-02  0.1266605E+00
        -11   -1    0    0    0    0  0.00000000000E+00  0.00000000000E+00  0.45593999997E+02  0.45594000000E+02  0.51100000000E-03 0.  1.
         11   -1    0    0    0    0 -0.00000000000E+00 -0.00000000000E+00 -0.45593999997E+02  0.45594000000E+02  0.51100000000E-03 0. -1.
    9900012    2    1    2    0    0 -0.15035312890E+02 -0.26091448101E+02  0.10483043650E+02  0.59301976386E+02  0.50000059014E+02 0.  0.
         12    1    1    2    0    0  0.15035312890E+02  0.26091448101E+02 -0.10483043650E+02  0.31886023614E+02  0.00000000000E+00 0. -1.
         11    1    3    3    0    0  0.61635517191E+01 -0.23605151749E+02 -0.46385102977E+01  0.24833613046E+02  0.51100000000E-03 0. -1.
        -11    1    3    3    0    0 -0.11693413565E+02 -0.63298488176E+01  0.19266241903E+02  0.23409207253E+02  0.51100000000E-03 0.  1.
         12    1    3    3    0    0 -0.95054510448E+01  0.38435524654E+01 -0.41446879556E+01  0.11059156088E+02  0.00000000000E+00 0. -1.
</event>
<event>
 7    1  0.7674040E-012  0.5930194E+02  0.7816164E-02  0.1266605E+00
        -11   -1    0    0    0    0  0.00000000000E+00  0.00000000000E+00  0.45593999997E+02  0.45594000000E+02  0.51100000000E-03 0. -1.
         11   -1    0    0    0    0 -0.00000000000E+00 -0.00000000000E+00 -0.45593999997E+02  0.45594000000E+02  0.51100000000E-03 0.  1.
    9900012    2    1    2    0    0 -0.29007029255E+02  0.88178469375E+01  0.98771700622E+01  0.59301942557E+02  0.49999997318E+02 0.  0.
         12    1    1    2    0    0  0.29007029255E+02 -0.88178469375E+01 -0.98771700622E+01  0.31886057443E+02  0.00000000000E+00 0. -1.
         11    1    3    3    0    0 -0.25973411655E+02 -0.97873585591E+01 -0.78257673894E+01  0.28838396905E+02  0.51100000000E-03 0. -1.
        -11    1    3    3    0    0 -0.14396717831E+01  0.56371449759E+01 -0.25576173301E+01  0.63554279943E+01  0.51100000000E-03 0.  1.
         12    1    3    3    0    0 -0.15939458169E+01  0.12968060521E+02  0.20260554782E+02  0.24108117658E+02  0.00000000000E+00 0. -1.
</event>
<event>
 7    1  0.7674040E-012  0.5930192E+02  0.7816164E-02  0.1266605E+00
        -11   -1    0    0    0    0  0.00000000000E+00  0.00000000000E+00  0.45593999997E+02  0.45594000000E+02  0.51100000000E-03 0. -1.
         11   -1    0    0    0    0 -0.00000000000E+00 -0.00000000000E+00 -0.45593999997E+02  0.45594000000E+02  0.51100000000E-03 0.  1.
    9900012    2    1    2    0    0  0.95119604829E+01 -0.25708099922E+02  0.16289204935E+02  0.59301921670E+02  0.49999959225E+02 0.  0.
         12    1    1    2    0    0 -0.95119604829E+01  0.25708099922E+02 -0.16289204935E+02  0.31886078330E+02  0.00000000000E+00 0. -1.
         11    1    3    3    0    0  0.61709490988E+01 -0.96674845866E+01  0.21107374492E+02  0.24022117501E+02  0.51100000000E-03 0. -1.
        -11    1    3    3    0    0  0.78050582045E+01  0.71394911186E+01  0.18760461888E+01  0.10742942640E+02  0.51100000000E-03 0.  1.
        -12    1    3    3    0    0 -0.44640468204E+01 -0.23180106454E+02 -0.66942157462E+01  0.24536861529E+02  0.00000000000E+00 0.  1.
</event>
<event>
 7    1  0.7674040E-012  0.5930196E+02  0.7816164E-02  0.1266605E+00
        -11   -1    0    0    0    0  0.00000000000E+00  0.00000000000E+00  0.45593999997E+02  0.45594000000E+02  0.51100000000E-03 0.  1.
         11   -1    0    0    0    0 -0.00000000000E+00 -0.00000000000E+00 -0.45593999997E+02  0.45594000000E+02  0.51100000000E-03 0. -1.
    9900012    2    1    2    0    0 -0.18162409492E+02 -0.23843221324E+02  0.10878752923E+02  0.59301959374E+02  0.50000027987E+02 0.  0.
         12    1    1    2    0    0  0.18162409492E+02  0.23843221324E+02 -0.10878752923E+02  0.31886040626E+02  0.00000000000E+00 0. -1.
         11    1    3    3    0    0 -0.22416558352E+02 -0.48615183858E+01  0.33388093477E+01  0.23179389497E+02  0.51100000000E-03 0.  1.
        -11    1    3    3    0    0  0.83196600501E+01 -0.99382005137E+01 -0.97313202638E+01  0.16207503421E+02  0.51100000000E-03 0. -1.
        -12    1    3    3    0    0 -0.40655111901E+01 -0.90435024248E+01  0.17271263839E+02  0.19915066456E+02  0.00000000000E+00 0.  1.
</event>
<event>
 7    1  0.7674040E-012  0.5930194E+02  0.7816164E-02  0.1266605E+00
        -11   -1    0    0    0    0  0.00000000000E+00  0.00000000000E+00  0.45593999997E+02  0.45594000000E+02  0.51100000000E-03 0.  1.
         11   -1    0    0    0    0 -0.00000000000E+00 -0.00000000000E+00 -0.45593999997E+02  0.45594000000E+02  0.51100000000E-03 0. -1.
    9900012    2    1    2    0    0  0.15712418872E+02 -0.26490836927E+02  0.82508162470E+01  0.59301944793E+02  0.50000001396E+02 0.  0.
         12    1    1    2    0    0 -0.15712418872E+02  0.26490836927E+02 -0.82508162470E+01  0.31886055207E+02  0.00000000000E+00 0. -1.
         11    1    3    3    0    0 -0.58909570820E+01 -0.61168979230E+01 -0.16973504219E+00  0.84940347178E+01  0.51100000000E-03 0. -1.
        -11    1    3    3    0    0  0.16746741344E+02 -0.24764963337E+02  0.21063055091E+02  0.36570603560E+02  0.51100000000E-03 0.  1.
        -12    1    3    3    0    0  0.48566346104E+01  0.43910243324E+01 -0.12642503802E+02  0.14237306515E+02  0.00000000000E+00 0.  1.
</event>
<event>
 7    1  0.7674040E-012  0.5930195E+02  0.7816164E-02  0.1266605E+00
        -11   -1    0    0    0    0  0.00000000000E+00  0.00000000000E+00  0.45593999997E+02  0.45594000000E+02  0.51100000000E-03 0.  1.
         11   -1    0    0    0    0 -0.00000000000E+00 -0.00000000000E+00 -0.45593999997E+02  0.45594000000E+02  0.51100000000E-03 0. -1.
    9900012    2    1    2    0    0  0.70700028164E+00  0.18301186682E+02  0.26101477626E+02  0.59301946346E+02  0.50000004228E+02 0.  0.
         12    1    1    2    0    0 -0.70700028164E+00 -0.18301186682E+02 -0.26101477626E+02  0.31886053654E+02  0.00000000000E+00 0. -1.
         11    1    3    3    0    0 -0.17750952271E+02  0.13110418971E+02  0.56879779494E+01  0.22788867579E+02  0.51100000000E-03 0. -1.
        -11    1    3    3    0    0  0.15749319003E+02 -0.56014902710E+01  0.18984306150E+02  0.25294695542E+02  0.51100000000E-03 0.  1.
         12    1    3    3    0    0  0.27086335497E+01  0.10792257981E+02  0.14291935267E+01  0.11218383225E+02  0.00000000000E+00 0. -1.
</event>
<event>
 7    1  0.7674040E-012  0.5930195E+02  0.7816164E-02  0.1266605E+00
        -11   -1    0    0    0    0  0.00000000000E+00  0.00000000000E+00  0.45593999997E+02  0.45594000000E+02  0.51100000000E-03 0.  1.
         11   -1    0    0    0    0 -0.00000000000E+00 -0.00000000000E+00 -0.45593999997E+02  0.45594000000E+02  0.51100000000E-03 0. -1.
    9900012    2    1    2    0    0  0.67831551734E+01  0.25525345587E+02  0.17865213459E+02  0.59301947981E+02  0.50000007209E+02 0.  0.
         12    1    1    2    0    0 -0.67831551734E+01 -0.25525345587E+02 -0.17865213459E+02  0.31886052019E+02  0.00000000000E+00 0. -1.
         11    1    3    3    0    0  0.16870725074E+02 -0.53883257628E+01 -0.32073429955E+01  0.17998401829E+02  0.51100000000E-03 0. -1.
        -11    1    3    3    0    0  0.23989025108E+01  0.12335250270E+02  0.41216057369E+01  0.13225005353E+02  0.51100000000E-03 0.  1.
         12    1    3    3    0    0 -0.12486472412E+02  0.18578421080E+02  0.16950950718E+02  0.28078540798E+02  0.00000000000E+00 0. -1.
</event>
<event>
 7    1  0.7674040E-012  0.5930194E+02  0.7816164E-02  0.1266605E+00
        -11   -1    0    0    0    0  0.00000000000E+00  0.00000000000E+00  0.45593999997E+02  0.45594000000E+02  0.51100000000E-03 0. -1.
         11   -1    0    0    0    0 -0.00000000000E+00 -0.00000000000E+00 -0.45593999997E+02  0.45594000000E+02  0.51100000000E-03 0.  1.
    9900012    2    1    2    0    0  0.14860847004E+02  0.25420737098E+02 -0.12233637672E+02  0.59301944443E+02  0.50000000758E+02 0.  0.
         12    1    1    2    0    0 -0.14860847004E+02 -0.25420737098E+02  0.12233637672E+02  0.31886055557E+02  0.00000000000E+00 0. -1.
         11    1    3    3    0    0  0.14495221151E+02  0.56159265628E+01  0.14073872927E+02  0.20969596248E+02  0.51100000000E-03 0. -1.
        -11    1    3    3    0    0 -0.26267719058E+01  0.21686980881E+02 -0.15037158192E+02  0.26520580633E+02  0.51100000000E-03 0.  1.
         12    1    3    3    0    0  0.29923977590E+01 -0.18821703454E+01 -0.11270352407E+02  0.11811767562E+02  0.00000000000E+00 0. -1.
</event>
<event>
 7    1  0.7674040E-012  0.5930195E+02  0.7816164E-02  0.1266605E+00
        -11   -1    0    0    0    0  0.00000000000E+00  0.00000000000E+00  0.45593999997E+02  0.45594000000E+02  0.51100000000E-03 0.  1.
         11   -1    0    0    0    0 -0.00000000000E+00 -0.00000000000E+00 -0.45593999997E+02  0.45594000000E+02  0.51100000000E-03 0. -1.
    9900012    2    1    2    0    0  0.26373555680E+01 -0.19712090006E-01  0.31776789840E+02  0.59301946537E+02  0.50000004576E+02 0.  0.
         12    1    1    2    0    0 -0.26373555680E+01  0.19712090006E-01 -0.31776789840E+02  0.31886053463E+02  0.00000000000E+00 0. -1.
         11    1    3    3    0    0 -0.73990732453E+01 -0.17704776822E+01 -0.10686339370E+02  0.13117878087E+02  0.51100000000E-03 0. -1.
        -11    1    3    3    0    0  0.12604931023E+02  0.46347204526E+01  0.25879516097E+02  0.29156719182E+02  0.51100000000E-03 0.  1.
         12    1    3    3    0    0 -0.25685022096E+01 -0.28839548605E+01  0.16583613112E+02  0.17027349268E+02  0.00000000000E+00 0. -1.
</event>
<event>
 7    1  0.7674040E-012  0.5930203E+02  0.7816164E-02  0.1266604E+00
        -11   -1    0    0    0    0  0.00000000000E+00  0.00000000000E+00  0.45593999997E+02  0.45594000000E+02  0.51100000000E-03 0.  1.
         11   -1    0    0    0    0 -0.00000000000E+00 -0.00000000000E+00 -0.45593999997E+02  0.45594000000E+02  0.51100000000E-03 0. -1.
    9900012    2    1    2    0    0  0.29443979294E+02  0.90270334816E+01  0.82631498824E+01  0.59302032928E+02  0.50000162132E+02 0.  0.
         12    1    1    2    0    0 -0.29443979294E+02 -0.90270334816E+01 -0.82631498824E+01  0.31885967072E+02  0.00000000000E+00 0. -1.
         11    1    3    3    0    0  0.18162424750E+01 -0.17412894604E+02  0.87003730552E+01  0.19550041605E+02  0.51100000000E-03 0. -1.
        -11    1    3    3    0    0  0.17052230024E+02  0.88749009489E+01  0.46612931788E+00  0.19229136550E+02  0.51100000000E-03 0.  1.
         12    1    3    3    0    0  0.10575506795E+02  0.17565027137E+02 -0.90335249069E+00  0.20522854772E+02  0.00000000000E+00 0. -1.
</event>
<event>
 7    1  0.7674040E-012  0.5930196E+02  0.7816164E-02  0.1266605E+00
        -11   -1    0    0    0    0  0.00000000000E+00  0.00000000000E+00  0.45593999997E+02  0.45594000000E+02  0.51100000000E-03 0. -1.
         11   -1    0    0    0    0 -0.00000000000E+00 -0.00000000000E+00 -0.45593999997E+02  0.45594000000E+02  0.51100000000E-03 0.  1.
    9900012    2    1    2    0    0  0.25987252384E+02  0.17785394166E+02 -0.50062089629E+01  0.59301958222E+02  0.50000025887E+02 0.  0.
         12    1    1    2    0    0 -0.25987252384E+02 -0.17785394166E+02  0.50062089629E+01  0.31886041778E+02  0.00000000000E+00 0. -1.
         11    1    3    3    0    0  0.13254723942E+02  0.76725543787E+00  0.13663111369E+02  0.19051430399E+02  0.51100000000E-03 0. -1.
        -11    1    3    3    0    0 -0.66531567660E+00  0.85290092997E+01 -0.22381727137E+02  0.23960975658E+02  0.51100000000E-03 0.  1.
        -12    1    3    3    0    0  0.13397844118E+02  0.84891294280E+01  0.37124068043E+01  0.16289552165E+02  0.00000000000E+00 0.  1.
</event>
<event>
 7    1  0.7674040E-012  0.5930191E+02  0.7816164E-02  0.1266605E+00
        -11   -1    0    0    0    0  0.00000000000E+00  0.00000000000E+00  0.45593999997E+02  0.45594000000E+02  0.51100000000E-03 0. -1.
         11   -1    0    0    0    0 -0.00000000000E+00 -0.00000000000E+00 -0.45593999997E+02  0.45594000000E+02  0.51100000000E-03 0.  1.
    9900012    2    1    2    0    0  0.78059421708E+00 -0.84440171059E+01 -0.30737792380E+02  0.59301911613E+02  0.49999940883E+02 0.  0.
         12    1    1    2    0    0 -0.78059421708E+00  0.84440171059E+01  0.30737792380E+02  0.31886088387E+02  0.00000000000E+00 0. -1.
         11    1    3    3    0    0 -0.10203217369E+01  0.72317664186E+01 -0.10500710443E+01  0.73784924909E+01  0.51100000000E-03 0. -1.
        -11    1    3    3    0    0  0.14135850997E+02  0.32478642137E+00 -0.28344630819E+02  0.31675635213E+02  0.51100000000E-03 0.  1.
        -12    1    3    3    0    0 -0.12334935043E+02 -0.16000569946E+02 -0.13430905170E+01  0.20247783909E+02  0.00000000000E+00 0.  1.
</event>
<event>
 7    1  0.7674040E-012  0.5930210E+02  0.7816164E-02  0.1266604E+00
        -11   -1    0    0    0    0  0.00000000000E+00  0.00000000000E+00  0.45593999997E+02  0.45594000000E+02  0.51100000000E-03 0.  1.
         11   -1    0    0    0    0 -0.00000000000E+00 -0.00000000000E+00 -0.45593999997E+02  0.45594000000E+02  0.51100000000E-03 0. -1.
    9900012    2    1    2    0    0 -0.10532352607E+02  0.26521337601E+02  0.14226700789E+02  0.59302096925E+02  0.50000278846E+02 0.  0.
         12    1    1    2    0    0  0.10532352607E+02 -0.26521337601E+02 -0.14226700789E+02  0.31885903075E+02  0.00000000000E+00 0. -1.
         11    1    3    3    0    0 -0.51728027498E+00 -0.73091563840E+01 -0.91146272734E+01  0.11694775608E+02  0.51100000000E-03 0. -1.
        -11    1    3    3    0    0  0.41914260305E+01  0.94827162977E+01  0.14954352593E+02  0.18196775052E+02  0.51100000000E-03 0.  1.
         12    1    3    3    0    0 -0.14206498363E+02  0.24347777687E+02  0.83869754687E+01  0.29410546264E+02  0.00000000000E+00 0. -1.
</event>
<event>
 7    1  0.7674040E-012  0.5930204E+02  0.7816164E-02  0.1266604E+00
        -11   -1    0    0    0    0  0.00000000000E+00  0.00000000000E+00  0.45593999997E+02  0.45594000000E+02  0.51100000000E-03 0.  1.
         11   -1    0    0    0    0 -0.00000000000E+00 -0.00000000000E+00 -0.45593999997E+02  0.45594000000E+02  0.51100000000E-03 0. -1.
    9900012    2    1    2    0    0 -0.90343440729E+00 -0.31346328840E+02  0.57711391470E+01  0.59302038002E+02  0.50000171387E+02 0.  0.
         12    1    1    2    0    0  0.90343440729E+00  0.31346328840E+02 -0.57711391470E+01  0.31885961998E+02  0.00000000000E+00 0. -1.
         11    1    3    3    0    0 -0.12484032645E+02 -0.88412182317E+01 -0.17033286076E+02  0.22894345278E+02  0.51100000000E-03 0. -1.
        -11    1    3    3    0    0 -0.67269765616E+00 -0.12345555406E+02  0.84663613418E+01  0.14984810144E+02  0.51100000000E-03 0.  1.
         12    1    3    3    0    0  0.12253295894E+02 -0.10159555202E+02  0.14338063881E+02  0.21422882580E+02  0.00000000000E+00 0. -1.
</event>
<event>
 7    1  0.7674040E-012  0.5930197E+02  0.7816164E-02  0.1266605E+00
        -11   -1    0    0    0    0  0.00000000000E+00  0.00000000000E+00  0.45593999997E+02  0.45594000000E+02  0.51100000000E-03 0. -1.
         11   -1    0    0    0    0 -0.00000000000E+00 -0.00000000000E+00 -0.45593999997E+02  0.45594000000E+02  0.51100000000E-03 0.  1.
    9900012    2    1    2    0    0  0.26263084122E+01  0.31016750724E+02 -0.69124930229E+01  0.59301970440E+02  0.50000048169E+02 0.  0.
         12    1    1    2    0    0 -0.26263084122E+01 -0.31016750724E+02  0.69124930229E+01  0.31886029560E+02  0.00000000000E+00 0. -1.
         11    1    3    3    0    0 -0.44806348637E+01 -0.46930704342E+01  0.47440452979E+01  0.80378457892E+01  0.51100000000E-03 0. -1.
        -11    1    3    3    0    0  0.20494433431E+02  0.26607133600E+02 -0.60099041736E+01  0.34118621140E+02  0.51100000000E-03 0.  1.
        -12    1    3    3    0    0 -0.13387490155E+02  0.91026875581E+01 -0.56466341472E+01  0.17145503510E+02  0.00000000000E+00 0.  1.
</event>
<event>
 7    1  0.7674040E-012  0.5930196E+02  0.7816164E-02  0.1266605E+00
        -11   -1    0    0    0    0  0.00000000000E+00  0.00000000000E+00  0.45593999997E+02  0.45594000000E+02  0.51100000000E-03 0.  1.
         11   -1    0    0    0    0 -0.00000000000E+00 -0.00000000000E+00 -0.45593999997E+02  0.45594000000E+02  0.51100000000E-03 0. -1.
    9900012    2    1    2    0    0  0.11851617241E+01 -0.30030746333E+02  0.10652205486E+02  0.59301955790E+02  0.50000021452E+02 0.  0.
         12    1    1    2    0    0 -0.11851617241E+01  0.30030746333E+02 -0.10652205486E+02  0.31886044210E+02  0.00000000000E+00 0. -1.
         11    1    3    3    0    0  0.74151588266E+01 -0.83712803694E+01 -0.15724992133E+02  0.19296069375E+02  0.51100000000E-03 0. -1.
        -11    1    3    3    0    0  0.24168410618E+01 -0.21260518710E+02  0.19509128964E+02  0.28956120074E+02  0.51100000000E-03 0.  1.
         12    1    3    3    0    0 -0.86468381643E+01 -0.39894725325E+00  0.68680686558E+01  0.11049766342E+02  0.00000000000E+00 0. -1.
</event>
<event>
 7    1  0.7674040E-012  0.5930194E+02  0.7816164E-02  0.1266605E+00
        -11   -1    0    0    0    0  0.00000000000E+00  0.00000000000E+00  0.45593999997E+02  0.45594000000E+02  0.51100000000E-03 0.  1.
         11   -1    0    0    0    0 -0.00000000000E+00 -0.00000000000E+00 -0.45593999997E+02  0.45594000000E+02  0.51100000000E-03 0. -1.
    9900012    2    1    2    0    0  0.16975882767E+02 -0.76487248174E+01  0.25885082322E+02  0.59301936055E+02  0.49999985461E+02 0.  0.
         12    1    1    2    0    0 -0.16975882767E+02  0.76487248174E+01 -0.25885082322E+02  0.31886063945E+02  0.00000000000E+00 0. -1.
         11    1    3    3    0    0 -0.97326786410E+01  0.13983806718E+02  0.52871404764E+01  0.17838882771E+02  0.51100000000E-03 0. -1.
        -11    1    3    3    0    0  0.17698551995E+02 -0.98648155657E+01  0.72580497241E+01  0.21522839379E+02  0.51100000000E-03 0.  1.
        -12    1    3    3    0    0  0.90100094126E+01 -0.11767715970E+02  0.13339892122E+02  0.19940213905E+02  0.00000000000E+00 0.  1.
</event>
<event>
 7    1  0.7674040E-012  0.5930196E+02  0.7816164E-02  0.1266605E+00
        -11   -1    0    0    0    0  0.00000000000E+00  0.00000000000E+00  0.45593999997E+02  0.45594000000E+02  0.51100000000E-03 0.  1.
         11   -1    0    0    0    0 -0.00000000000E+00 -0.00000000000E+00 -0.45593999997E+02  0.45594000000E+02  0.51100000000E-03 0. -1.
    9900012    2    1    2    0    0  0.59625007310E+01 -0.21488828144E+02  0.22790318254E+02  0.59301956720E+02  0.50000023147E+02 0.  0.
         12    1    1    2    0    0 -0.59625007310E+01  0.21488828144E+02 -0.22790318254E+02  0.31886043280E+02  0.00000000000E+00 0. -1.
         11    1    3    3    0    0  0.24522103691E+02 -0.20960641154E+01  0.21012640255E+01  0.24701059997E+02  0.51100000000E-03 0. -1.
        -11    1    3    3    0    0 -0.88456691686E+01 -0.44560424182E+01  0.69076299881E+01  0.12075492925E+02  0.51100000000E-03 0.  1.
         12    1    3    3    0    0 -0.97139337914E+01 -0.14936721610E+02  0.13781424240E+02  0.22525403798E+02  0.00000000000E+00 0. -1.
</event>
<event>
 7    1  0.7674040E-012  0.5930193E+02  0.7816164E-02  0.1266605E+00
        -11   -1    0    0    0    0  0.00000000000E+00  0.00000000000E+00  0.45593999997E+02  0.45594000000E+02  0.51100000000E-03 0.  1.
         11   -1    0    0    0    0 -0.00000000000E+00 -0.00000000000E+00 -0.45593999997E+02  0.45594000000E+02  0.51100000000E-03 0. -1.
    9900012    2    1    2    0    0  0.27716090980E+02 -0.13193531343E+02  0.86296451238E+01  0.59301925556E+02  0.49999966312E+02 0.  0.
         12    1    1    2    0    0 -0.27716090980E+02  0.13193531343E+02 -0.86296451238E+01  0.31886074444E+02  0.00000000000E+00 0. -1.
         11    1    3    3    0    0 -0.10963614221E+01  0.22009278214E+01 -0.92627837463E+01  0.95835929919E+01  0.51100000000E-03 0. -1.
        -11    1    3    3    0    0  0.28586940088E+02 -0.94281217947E+01  0.25913421718E+02  0.39719114410E+02  0.51100000000E-03 0.  1.
        -12    1    3    3    0    0  0.22551231361E+00 -0.59663373702E+01 -0.80209928476E+01  0.99992181534E+01  0.00000000000E+00 0.  1.
</event>
<event>
 7    1  0.7674040E-012  0.5930200E+02  0.7816164E-02  0.1266605E+00
        -11   -1    0    0    0    0  0.00000000000E+00  0.00000000000E+00  0.45593999997E+02  0.45594000000E+02  0.51100000000E-03 0.  1.
         11   -1    0    0    0    0 -0.00000000000E+00 -0.00000000000E+00 -0.45593999997E+02  0.45594000000E+02  0.51100000000E-03 0. -1.
    9900012    2    1    2    0    0 -0.27095688764E+02 -0.16588156400E+02  0.27155053894E+01  0.59301995988E+02  0.50000094763E+02 0.  0.
         12    1    1    2    0    0  0.27095688764E+02  0.16588156400E+02 -0.27155053894E+01  0.31886004012E+02  0.00000000000E+00 0. -1.
         11    1    3    3    0    0 -0.18481977320E+02 -0.11439141205E+02 -0.46313058649E+01  0.22223555779E+02  0.51100000000E-03 0. -1.
        -11    1    3    3    0    0 -0.94366876702E+01 -0.55802162134E+01  0.20842960712E+02  0.23550348164E+02  0.51100000000E-03 0.  1.
        -12    1    3    3    0    0  0.82297622662E+00  0.43120101839E+00 -0.13496149457E+02  0.13528092045E+02  0.00000000000E+00 0.  1.
</event>
<event>
 7    1  0.7674040E-012  0.5930200E+02  0.7816164E-02  0.1266605E+00
        -11   -1    0    0    0    0  0.00000000000E+00  0.00000000000E+00  0.45593999997E+02  0.45594000000E+02  0.51100000000E-03 0.  1.
         11   -1    0    0    0    0 -0.00000000000E+00 -0.00000000000E+00 -0.45593999997E+02  0.45594000000E+02  0.51100000000E-03 0. -1.
    9900012    2    1    2    0    0 -0.22052684315E+02 -0.31863901431E+01  0.22808836076E+02  0.59302000395E+02  0.50000102801E+02 0.  0.
         12    1    1    2    0    0  0.22052684315E+02  0.31863901431E+01 -0.22808836076E+02  0.31885999605E+02  0.00000000000E+00 0. -1.
         11    1    3    3    0    0  0.63336765469E+00  0.60254344486E+01 -0.40489620595E+00  0.60721459204E+01  0.51100000000E-03 0. -1.
        -11    1    3    3    0    0 -0.19239012229E+02 -0.17895978095E+02 -0.19892244475E+01  0.26350761615E+02  0.51100000000E-03 0.  1.
        -12    1    3    3    0    0 -0.34470397415E+01  0.86841535037E+01  0.25202956730E+02  0.26879092860E+02  0.00000000000E+00 0.  1.
</event>
<event>
 7    1  0.7674040E-012  0.5930195E+02  0.7816164E-02  0.1266605E+00
        -11   -1    0    0    0    0  0.00000000000E+00  0.00000000000E+00  0.45593999997E+02  0.45594000000E+02  0.51100000000E-03 0.  1.
         11   -1    0    0    0    0 -0.00000000000E+00 -0.00000000000E+00 -0.45593999997E+02  0.45594000000E+02  0.51100000000E-03 0. -1.
    9900012    2    1    2    0    0  0.22402897136E+02  0.91158299780E-01  0.22689685223E+02  0.59301954064E+02  0.50000018303E+02 0.  0.
         12    1    1    2    0    0 -0.22402897136E+02 -0.91158299780E-01 -0.22689685223E+02  0.31886045936E+02  0.00000000000E+00 0. -1.
         11    1    3    3    0    0  0.91104800231E+01 -0.15169537477E+02 -0.41069092878E+00  0.17699841265E+02  0.51100000000E-03 0. -1.
        -11    1    3    3    0    0  0.46065467823E+01  0.62729592372E+01  0.27322493418E+02  0.28409310757E+02  0.51100000000E-03 0.  1.
        -12    1    3    3    0    0  0.86858703307E+01  0.89877365391E+01 -0.42221172660E+01  0.13192802042E+02  0.00000000000E+00 0.  1.
</event>
<event>
 7    1  0.7674040E-012  0.5930194E+02  0.7816164E-02  0.1266605E+00
        -11   -1    0    0    0    0  0.00000000000E+00  0.00000000000E+00  0.45593999997E+02  0.45594000000E+02  0.51100000000E-03 0.  1.
         11   -1    0    0    0    0 -0.00000000000E+00 -0.00000000000E+00 -0.45593999997E+02  0.45594000000E+02  0.51100000000E-03 0. -1.
    9900012    2    1    2    0    0 -0.41917261432E+01 -0.28430886774E+02  0.13814312164E+02  0.59301935468E+02  0.49999984389E+02 0.  0.
         12    1    1    2    0    0  0.41917261432E+01  0.28430886774E+02 -0.13814312164E+02  0.31886064532E+02  0.00000000000E+00 0. -1.
         11    1    3    3    0    0  0.16555764372E+02 -0.19981763834E+02  0.36203042818E+01  0.26200588223E+02  0.51100000000E-03 0. -1.
        -11    1    3    3    0    0 -0.18139710027E+02 -0.13426354570E+02  0.13773470168E+02  0.26439072556E+02  0.51100000000E-03 0.  1.
         12    1    3    3    0    0 -0.26077804880E+01  0.49772316298E+01 -0.35794622864E+01  0.66622746888E+01  0.00000000000E+00 0. -1.
</event>
<event>
 7    1  0.7674040E-012  0.5930194E+02  0.7816164E-02  0.1266605E+00
        -11   -1    0    0    0    0  0.00000000000E+00  0.00000000000E+00  0.45593999997E+02  0.45594000000E+02  0.51100000000E-03 0.  1.
         11   -1    0    0    0    0 -0.00000000000E+00 -0.00000000000E+00 -0.45593999997E+02  0.45594000000E+02  0.51100000000E-03 0. -1.
    9900012    2    1    2    0    0  0.48853006131E+01  0.10392427180E+02  0.29746461368E+02  0.59301942409E+02  0.49999997047E+02 0.  0.
         12    1    1    2    0    0 -0.48853006131E+01 -0.10392427180E+02 -0.29746461368E+02  0.31886057591E+02  0.00000000000E+00 0. -1.
         11    1    3    3    0    0  0.13538971680E+02 -0.59258891516E+01  0.28557107287E+02  0.32154755376E+02  0.51100000000E-03 0. -1.
        -11    1    3    3    0    0  0.16134389286E+01  0.11634870882E+02  0.77702020653E+01  0.14083658829E+02  0.51100000000E-03 0.  1.
         12    1    3    3    0    0 -0.10267109996E+02  0.46834454496E+01 -0.65808479843E+01  0.13063528204E+02  0.00000000000E+00 0. -1.
</event>
<event>
 7    1  0.7674040E-012  0.5930194E+02  0.7816164E-02  0.1266605E+00
        -11   -1    0    0    0    0  0.00000000000E+00  0.00000000000E+00  0.45593999997E+02  0.45594000000E+02  0.51100000000E-03 0.  1.
         11   -1    0    0    0    0 -0.00000000000E+00 -0.00000000000E+00 -0.45593999997E+02  0.45594000000E+02  0.51100000000E-03 0. -1.
    9900012    2    1    2    0    0 -0.12810727156E+02  0.15637819185E+02  0.24658968868E+02  0.59301939335E+02  0.49999991442E+02 0.  0.
         12    1    1    2    0    0  0.12810727156E+02 -0.15637819185E+02 -0.24658968868E+02  0.31886060665E+02  0.00000000000E+00 0. -1.
         11    1    3    3    0    0  0.13760591887E+02 -0.29133226607E+01  0.15264006323E+02  0.20756474347E+02  0.51100000000E-03 0.  1.
        -11    1    3    3    0    0 -0.20088064166E+02  0.22160285728E+02  0.67013250766E+01  0.30651530851E+02  0.51100000000E-03 0. -1.
        -12    1    3    3    0    0 -0.64832548767E+01 -0.36091438819E+01  0.26936374679E+01  0.78939341373E+01  0.00000000000E+00 0.  1.
</event>
<event>
 7    1  0.7674040E-012  0.5930193E+02  0.7816164E-02  0.1266605E+00
        -11   -1    0    0    0    0  0.00000000000E+00  0.00000000000E+00  0.45593999997E+02  0.45594000000E+02  0.51100000000E-03 0.  1.
         11   -1    0    0    0    0 -0.00000000000E+00 -0.00000000000E+00 -0.45593999997E+02  0.45594000000E+02  0.51100000000E-03 0. -1.
    9900012    2    1    2    0    0 -0.12447811560E+02 -0.29059978787E+02 -0.41582502156E+01  0.59301930556E+02  0.49999975431E+02 0.  0.
         12    1    1    2    0    0  0.12447811560E+02  0.29059978787E+02  0.41582502156E+01  0.31886069444E+02  0.00000000000E+00 0. -1.
         11    1    3    3    0    0 -0.73507977013E+01  0.68493083995E+01 -0.62337616545E+01  0.11824002580E+02  0.51100000000E-03 0. -1.
        -11    1    3    3    0    0  0.53865828449E+01 -0.24166228688E+02 -0.10924346404E+02  0.27062210338E+02  0.51100000000E-03 0.  1.
        -12    1    3    3    0    0 -0.10483596704E+02 -0.11743058498E+02  0.12999857843E+02  0.20415717638E+02  0.00000000000E+00 0.  1.
</event>
<event>
 7    1  0.7674040E-012  0.5930195E+02  0.7816164E-02  0.1266605E+00
        -11   -1    0    0    0    0  0.00000000000E+00  0.00000000000E+00  0.45593999997E+02  0.45594000000E+02  0.51100000000E-03 0. -1.
         11   -1    0    0    0    0 -0.00000000000E+00 -0.00000000000E+00 -0.45593999997E+02  0.45594000000E+02  0.51100000000E-03 0.  1.
    9900012    2    1    2    0    0 -0.26804426732E+01 -0.31506534728E+02 -0.41077836705E+01  0.59301946776E+02  0.50000005013E+02 0.  0.
         12    1    1    2    0    0  0.26804426732E+01  0.31506534728E+02  0.41077836705E+01  0.31886053224E+02  0.00000000000E+00 0. -1.
         11    1    3    3    0    0 -0.42013702775E+01 -0.13785169823E+02 -0.20022752377E+02  0.24669678399E+02  0.51100000000E-03 0. -1.
        -11    1    3    3    0    0  0.23575801237E+01 -0.23827558534E+02  0.95667597737E+01  0.25784367794E+02  0.51100000000E-03 0.  1.
         12    1    3    3    0    0 -0.83665251930E+00  0.61061936290E+01  0.63482089331E+01  0.88479005832E+01  0.00000000000E+00 0. -1.
</event>
<event>
 7    1  0.7674040E-012  0.5930192E+02  0.7816164E-02  0.1266605E+00
        -11   -1    0    0    0    0  0.00000000000E+00  0.00000000000E+00  0.45593999997E+02  0.45594000000E+02  0.51100000000E-03 0.  1.
         11   -1    0    0    0    0 -0.00000000000E+00 -0.00000000000E+00 -0.45593999997E+02  0.45594000000E+02  0.51100000000E-03 0. -1.
    9900012    2    1    2    0    0  0.13582289622E+02 -0.20296071372E+02 -0.20501538978E+02  0.59301918319E+02  0.49999953113E+02 0.  0.
         12    1    1    2    0    0 -0.13582289622E+02  0.20296071372E+02  0.20501538978E+02  0.31886081681E+02  0.00000000000E+00 0. -1.
         11    1    3    3    0    0  0.25646468985E+02 -0.11367345192E+02 -0.11440666224E+02  0.30295985741E+02  0.51100000000E-03 0. -1.
        -11    1    3    3    0    0 -0.73479833198E+01  0.41451623087E+01  0.45222891046E+01  0.95721642506E+01  0.51100000000E-03 0.  1.
        -12    1    3    3    0    0 -0.47161960431E+01 -0.13073888488E+02 -0.13583161859E+02  0.19433768327E+02  0.00000000000E+00 0.  1.
</event>
<event>
 7    1  0.7674040E-012  0.5930193E+02  0.7816164E-02  0.1266605E+00
        -11   -1    0    0    0    0  0.00000000000E+00  0.00000000000E+00  0.45593999997E+02  0.45594000000E+02  0.51100000000E-03 0.  1.
         11   -1    0    0    0    0 -0.00000000000E+00 -0.00000000000E+00 -0.45593999997E+02  0.45594000000E+02  0.51100000000E-03 0. -1.
    9900012    2    1    2    0    0  0.25592725320E+02  0.70720318847E+01  0.17655600456E+02  0.59301930130E+02  0.49999974654E+02 0.  0.
         12    1    1    2    0    0 -0.25592725320E+02 -0.70720318847E+01 -0.17655600456E+02  0.31886069870E+02  0.00000000000E+00 0. -1.
         11    1    3    3    0    0 -0.51726212024E+01 -0.13518612529E+01  0.15413067459E+01  0.55640961257E+01  0.51100000000E-03 0. -1.
        -11    1    3    3    0    0  0.30753760938E+02 -0.90477849996E+01  0.16918513627E+02  0.36247652735E+02  0.51100000000E-03 0.  1.
        -12    1    3    3    0    0  0.11585584412E-01  0.17471678137E+02 -0.80421991675E+00  0.17490181269E+02  0.00000000000E+00 0.  1.
</event>
<event>
 7    1  0.7674040E-012  0.5930194E+02  0.7816164E-02  0.1266605E+00
        -11   -1    0    0    0    0  0.00000000000E+00  0.00000000000E+00  0.45593999997E+02  0.45594000000E+02  0.51100000000E-03 0.  1.
         11   -1    0    0    0    0 -0.00000000000E+00 -0.00000000000E+00 -0.45593999997E+02  0.45594000000E+02  0.51100000000E-03 0. -1.
    9900012    2    1    2    0    0 -0.55124154404E+01  0.26750087596E+02  0.16454992299E+02  0.59301942201E+02  0.49999996668E+02 0.  0.
         12    1    1    2    0    0  0.55124154404E+01 -0.26750087596E+02 -0.16454992299E+02  0.31886057799E+02  0.00000000000E+00 0. -1.
         11    1    3    3    0    0  0.16098603615E+02  0.21879792860E+01  0.24107018420E+00  0.16248397053E+02  0.51100000000E-03 0. -1.
        -11    1    3    3    0    0 -0.13294251868E+02  0.26812863036E+02  0.76161201534E+01  0.30881580973E+02  0.51100000000E-03 0.  1.
        -12    1    3    3    0    0 -0.83167671879E+01 -0.22507547259E+01  0.85978019616E+01  0.12171964174E+02  0.00000000000E+00 0.  1.
</event>
<event>
 7    1  0.7674040E-012  0.5930168E+02  0.7816164E-02  0.1266606E+00
        -11   -1    0    0    0    0  0.00000000000E+00  0.00000000000E+00  0.45593999997E+02  0.45594000000E+02  0.51100000000E-03 0.  1.
         11   -1    0    0    0    0 -0.00000000000E+00 -0.00000000000E+00 -0.45593999997E+02  0.45594000000E+02  0.51100000000E-03 0. -1.
    9900012    2    1    2    0    0 -0.10872888275E+02 -0.16205607086E+02  0.25216976622E+02  0.59301681454E+02  0.49999521127E+02 0.  0.
         12    1    1    2    0    0  0.10872888275E+02  0.16205607086E+02 -0.25216976622E+02  0.31886318546E+02  0.00000000000E+00 0. -1.
         11    1    3    3    0    0  0.13957212126E+02 -0.29869237862E+01 -0.24490154332E+01  0.14481821739E+02  0.51100000000E-03 0.  1.
        -11    1    3    3    0    0 -0.17327855811E+02  0.28117533788E+01  0.14266654681E+02  0.22620742254E+02  0.51100000000E-03 0. -1.
        -12    1    3    3    0    0 -0.75022445900E+01 -0.16030436678E+02  0.13399337374E+02  0.22199117461E+02  0.00000000000E+00 0.  1.
</event>
<event>
 7    1  0.7674040E-012  0.5930195E+02  0.7816164E-02  0.1266605E+00
        -11   -1    0    0    0    0  0.00000000000E+00  0.00000000000E+00  0.45593999997E+02  0.45594000000E+02  0.51100000000E-03 0. -1.
         11   -1    0    0    0    0 -0.00000000000E+00 -0.00000000000E+00 -0.45593999997E+02  0.45594000000E+02  0.51100000000E-03 0.  1.
    9900012    2    1    2    0    0 -0.26860765037E+02 -0.15060241662E+02 -0.82709495956E+01  0.59301950001E+02  0.50000010894E+02 0.  0.
         12    1    1    2    0    0  0.26860765037E+02  0.15060241662E+02  0.82709495956E+01  0.31886049999E+02  0.00000000000E+00 0. -1.
         11    1    3    3    0    0 -0.13359025911E+02  0.10174873982E+02 -0.82533722723E+01  0.18711220911E+02  0.51100000000E-03 0. -1.
        -11    1    3    3    0    0 -0.11798640846E+02 -0.24510426850E+02  0.11056165484E+02  0.29363374221E+02  0.51100000000E-03 0.  1.
        -12    1    3    3    0    0 -0.17030982799E+01 -0.72468879481E+00 -0.11073742807E+02  0.11227354869E+02  0.00000000000E+00 0.  1.
</event>
<event>
 7    1  0.7674040E-012  0.5930196E+02  0.7816164E-02  0.1266605E+00
        -11   -1    0    0    0    0  0.00000000000E+00  0.00000000000E+00  0.45593999997E+02  0.45594000000E+02  0.51100000000E-03 0.  1.
         11   -1    0    0    0    0 -0.00000000000E+00 -0.00000000000E+00 -0.45593999997E+02  0.45594000000E+02  0.51100000000E-03 0. -1.
    9900012    2    1    2    0    0 -0.15390646638E+02  0.27086587569E+02  0.67944424360E+01  0.59301957942E+02  0.50000025377E+02 0.  0.
         12    1    1    2    0    0  0.15390646638E+02 -0.27086587569E+02 -0.67944424360E+01  0.31886042058E+02  0.00000000000E+00 0. -1.
         11    1    3    3    0    0  0.40034247097E+01  0.21979036373E+02 -0.11643856187E+02  0.25192952118E+02  0.51100000000E-03 0. -1.
        -11    1    3    3    0    0 -0.36442520390E+01  0.19590196931E+01  0.17541181904E+02  0.18022524627E+02  0.51100000000E-03 0.  1.
         12    1    3    3    0    0 -0.15749819309E+02  0.31485315033E+01  0.89711671887E+00  0.16086481197E+02  0.00000000000E+00 0. -1.
</event>
<event>
 7    1  0.7674040E-012  0.5930196E+02  0.7816164E-02  0.1266605E+00
        -11   -1    0    0    0    0  0.00000000000E+00  0.00000000000E+00  0.45593999997E+02  0.45594000000E+02  0.51100000000E-03 0.  1.
         11   -1    0    0    0    0 -0.00000000000E+00 -0.00000000000E+00 -0.45593999997E+02  0.45594000000E+02  0.51100000000E-03 0. -1.
    9900012    2    1    2    0    0  0.19305546608E+01 -0.19286198391E+02  0.25318675535E+02  0.59301955709E+02  0.50000021304E+02 0.  0.
         12    1    1    2    0    0 -0.19305546608E+01  0.19286198391E+02 -0.25318675535E+02  0.31886044291E+02  0.00000000000E+00 0. -1.
         11    1    3    3    0    0  0.67006472823E+01  0.10148138201E+02  0.12332050637E+02  0.17319435791E+02  0.51100000000E-03 0. -1.
        -11    1    3    3    0    0 -0.12006845221E+02 -0.11339854286E+02 -0.29885556419E+01  0.16783566143E+02  0.51100000000E-03 0.  1.
        -12    1    3    3    0    0  0.72367525992E+01 -0.18094482306E+02  0.15975180540E+02  0.25198953776E+02  0.00000000000E+00 0.  1.
</event>
<event>
 7    1  0.7674040E-012  0.5930192E+02  0.7816164E-02  0.1266605E+00
        -11   -1    0    0    0    0  0.00000000000E+00  0.00000000000E+00  0.45593999997E+02  0.45594000000E+02  0.51100000000E-03 0. -1.
         11   -1    0    0    0    0 -0.00000000000E+00 -0.00000000000E+00 -0.45593999997E+02  0.45594000000E+02  0.51100000000E-03 0.  1.
    9900012    2    1    2    0    0 -0.12866781252E+02  0.98518348911E+01 -0.27461054306E+02  0.59301918175E+02  0.49999952851E+02 0.  0.
         12    1    1    2    0    0  0.12866781252E+02 -0.98518348911E+01  0.27461054306E+02  0.31886081825E+02  0.00000000000E+00 0. -1.
         11    1    3    3    0    0  0.13537569666E+02 -0.18920698419E+01 -0.81130266909E+01  0.15895500089E+02  0.51100000000E-03 0. -1.
        -11    1    3    3    0    0 -0.14308016741E+02  0.19479028194E+02 -0.14820964222E+02  0.28351593662E+02  0.51100000000E-03 0.  1.
         12    1    3    3    0    0 -0.12096334177E+02 -0.77351234607E+01 -0.45270633939E+01  0.15054824424E+02  0.00000000000E+00 0. -1.
</event>
<event>
 7    1  0.7674040E-012  0.5930193E+02  0.7816164E-02  0.1266605E+00
        -11   -1    0    0    0    0  0.00000000000E+00  0.00000000000E+00  0.45593999997E+02  0.45594000000E+02  0.51100000000E-03 0. -1.
         11   -1    0    0    0    0 -0.00000000000E+00 -0.00000000000E+00 -0.45593999997E+02  0.45594000000E+02  0.51100000000E-03 0.  1.
    9900012    2    1    2    0    0 -0.88777386326E+01  0.28539242063E+02 -0.11109392914E+02  0.59301934208E+02  0.49999982092E+02 0.  0.
         12    1    1    2    0    0  0.88777386326E+01 -0.28539242063E+02  0.11109392914E+02  0.31886065792E+02  0.00000000000E+00 0. -1.
         11    1    3    3    0    0 -0.47657142777E+01  0.50140497012E+00  0.38035445820E+00  0.48070894828E+01  0.51100000000E-03 0. -1.
        -11    1    3    3    0    0  0.53889033200E+01  0.34338809566E+02 -0.20150688325E+02  0.40177659982E+02  0.51100000000E-03 0.  1.
        -12    1    3    3    0    0 -0.95009276749E+01 -0.63009724729E+01  0.86609409534E+01  0.14317184744E+02  0.00000000000E+00 0.  1.
</event>
<event>
 7    1  0.7674040E-012  0.5930195E+02  0.7816164E-02  0.1266605E+00
        -11   -1    0    0    0    0  0.00000000000E+00  0.00000000000E+00  0.45593999997E+02  0.45594000000E+02  0.51100000000E-03 0.  1.
         11   -1    0    0    0    0 -0.00000000000E+00 -0.00000000000E+00 -0.45593999997E+02  0.45594000000E+02  0.51100000000E-03 0. -1.
    9900012    2    1    2    0    0  0.23046052354E+02 -0.16297263462E+02  0.14832353086E+02  0.59301952526E+02  0.50000015498E+02 0.  0.
         12    1    1    2    0    0 -0.23046052354E+02  0.16297263462E+02 -0.14832353086E+02  0.31886047474E+02  0.00000000000E+00 0. -1.
         11    1    3    3    0    0  0.55293654146E+00  0.77336936005E+00 -0.31897698847E+01  0.33284337405E+01  0.51100000000E-03 0. -1.
        -11    1    3    3    0    0  0.13624792659E+02 -0.32461351519E+02  0.12789454071E+02  0.37455900111E+02  0.51100000000E-03 0.  1.
        -12    1    3    3    0    0  0.88683231533E+01  0.15390718696E+02  0.52326688996E+01  0.18517618674E+02  0.00000000000E+00 0.  1.
</event>
<event>
 7    1  0.7674040E-012  0.5930193E+02  0.7816164E-02  0.1266605E+00
        -11   -1    0    0    0    0  0.00000000000E+00  0.00000000000E+00  0.45593999997E+02  0.45594000000E+02  0.51100000000E-03 0.  1.
         11   -1    0    0    0    0 -0.00000000000E+00 -0.00000000000E+00 -0.45593999997E+02  0.45594000000E+02  0.51100000000E-03 0. -1.
    9900012    2    1    2    0    0 -0.61676139958E+01 -0.70340727398E+01  0.30482840019E+02  0.59301934433E+02  0.49999982502E+02 0.  0.
         12    1    1    2    0    0  0.61676139958E+01  0.70340727398E+01 -0.30482840019E+02  0.31886065567E+02  0.00000000000E+00 0. -1.
         11    1    3    3    0    0  0.46920606800E+01 -0.19144587894E+02  0.12997439387E+01  0.19753987284E+02  0.51100000000E-03 0. -1.
        -11    1    3    3    0    0 -0.16295363689E+02  0.40180350102E+01  0.20490710334E+02  0.26486840003E+02  0.51100000000E-03 0.  1.
         12    1    3    3    0    0  0.54356890136E+01  0.80924801438E+01  0.86923857458E+01  0.13061107146E+02  0.00000000000E+00 0. -1.
</event>
<event>
 7    1  0.7674040E-012  0.5930194E+02  0.7816164E-02  0.1266605E+00
        -11   -1    0    0    0    0  0.00000000000E+00  0.00000000000E+00  0.45593999997E+02  0.45594000000E+02  0.51100000000E-03 0.  1.
         11   -1    0    0    0    0 -0.00000000000E+00 -0.00000000000E+00 -0.45593999997E+02  0.45594000000E+02  0.51100000000E-03 0. -1.
    9900012    2    1    2    0    0 -0.10826195078E+00  0.31770166870E+02  0.27139399146E+01  0.59301942021E+02  0.49999996340E+02 0.  0.
         12    1    1    2    0    0  0.10826195078E+00 -0.31770166870E+02 -0.27139399146E+01  0.31886057979E+02  0.00000000000E+00 0. -1.
         11    1    3    3    0    0  0.27726739675E+01  0.29148341022E+02 -0.13695669205E+01  0.29311929638E+02  0.51100000000E-03 0. -1.
        -11    1    3    3    0    0  0.12833347702E+02 -0.26827576312E+01  0.13380698461E+01  0.13178863112E+02  0.51100000000E-03 0.  1.
        -12    1    3    3    0    0 -0.15714283620E+02  0.53045834787E+01  0.27454369891E+01  0.16811149272E+02  0.00000000000E+00 0.  1.
</event>
<event>
 7    1  0.7674040E-012  0.5930161E+02  0.7816164E-02  0.1266606E+00
        -11   -1    0    0    0    0  0.00000000000E+00  0.00000000000E+00  0.45593999997E+02  0.45594000000E+02  0.51100000000E-03 0.  1.
         11   -1    0    0    0    0 -0.00000000000E+00 -0.00000000000E+00 -0.45593999997E+02  0.45594000000E+02  0.51100000000E-03 0. -1.
    9900012    2    1    2    0    0 -0.25641099074E+02 -0.18406457025E+02 -0.45252766765E+01  0.59301611823E+02  0.49999394135E+02 0.  0.
         12    1    1    2    0    0  0.25641099074E+02  0.18406457025E+02  0.45252766765E+01  0.31886388177E+02  0.00000000000E+00 0. -1.
         11    1    3    3    0    0  0.10956820031E+02 -0.14376961475E+02 -0.56637470672E+01  0.18942728355E+02  0.51100000000E-03 0. -1.
        -11    1    3    3    0    0 -0.18523036862E+02  0.57545096124E+01  0.33633113268E+01  0.19685759798E+02  0.51100000000E-03 0.  1.
         12    1    3    3    0    0 -0.18074882242E+02 -0.97840051624E+01 -0.22248409361E+01  0.20673123670E+02  0.00000000000E+00 0. -1.
</event>
<event>
 7    1  0.7674040E-012  0.5930196E+02  0.7816164E-02  0.1266605E+00
        -11   -1    0    0    0    0  0.00000000000E+00  0.00000000000E+00  0.45593999997E+02  0.45594000000E+02  0.51100000000E-03 0.  1.
         11   -1    0    0    0    0 -0.00000000000E+00 -0.00000000000E+00 -0.45593999997E+02  0.45594000000E+02  0.51100000000E-03 0. -1.
    9900012    2    1    2    0    0  0.28904406831E+02  0.68034675703E+01  0.11617562318E+02  0.59301958235E+02  0.50000025910E+02 0.  0.
         12    1    1    2    0    0 -0.28904406831E+02 -0.68034675703E+01 -0.11617562318E+02  0.31886041765E+02  0.00000000000E+00 0. -1.
         11    1    3    3    0    0  0.96376202631E+01 -0.12554191336E+02 -0.31603889696E+00  0.15830076604E+02  0.51100000000E-03 0. -1.
        -11    1    3    3    0    0  0.10000744720E+02  0.20848224520E+02 -0.54141121000E+01  0.23748178260E+02  0.51100000000E-03 0.  1.
        -12    1    3    3    0    0  0.92660418485E+01 -0.14905656136E+01  0.17347713315E+02  0.19723703371E+02  0.00000000000E+00 0.  1.
</event>
<event>
 7    1  0.7674040E-012  0.5930197E+02  0.7816164E-02  0.1266605E+00
        -11   -1    0    0    0    0  0.00000000000E+00  0.00000000000E+00  0.45593999997E+02  0.45594000000E+02  0.51100000000E-03 0.  1.
         11   -1    0    0    0    0 -0.00000000000E+00 -0.00000000000E+00 -0.45593999997E+02  0.45594000000E+02  0.51100000000E-03 0. -1.
    9900012    2    1    2    0    0  0.13940086786E+02 -0.35304394258E+01  0.28459251110E+02  0.59301968640E+02  0.50000044886E+02 0.  0.
         12    1    1    2    0    0 -0.13940086786E+02  0.35304394258E+01 -0.28459251110E+02  0.31886031360E+02  0.00000000000E+00 0. -1.
         11    1    3    3    0    0  0.98279413977E+01 -0.15744132308E+02  0.10245434658E+02  0.21199883628E+02  0.51100000000E-03 0. -1.
        -11    1    3    3    0    0 -0.63060930519E+01  0.17967966991E+02  0.38144508168E+01  0.19420728171E+02  0.51100000000E-03 0.  1.
        -12    1    3    3    0    0  0.10418238440E+02 -0.57542741096E+01  0.14399365635E+02  0.18681356841E+02  0.00000000000E+00 0.  1.
</event>
<event>
 7    1  0.7674040E-012  0.5930209E+02  0.7816164E-02  0.1266604E+00
        -11   -1    0    0    0    0  0.00000000000E+00  0.00000000000E+00  0.45593999997E+02  0.45594000000E+02  0.51100000000E-03 0.  1.
         11   -1    0    0    0    0 -0.00000000000E+00 -0.00000000000E+00 -0.45593999997E+02  0.45594000000E+02  0.51100000000E-03 0. -1.
    9900012    2    1    2    0    0 -0.31784590349E+02 -0.12956320467E+01  0.21845805037E+01  0.59302090290E+02  0.50000266747E+02 0.  0.
         12    1    1    2    0    0  0.31784590349E+02  0.12956320467E+01 -0.21845805037E+01  0.31885909710E+02  0.00000000000E+00 0. -1.
         11    1    3    3    0    0  0.12723323386E+01 -0.56555479766E+01  0.31259469092E+01  0.65860152472E+01  0.51100000000E-03 0. -1.
        -11    1    3    3    0    0 -0.38786735585E+02 -0.49570439634E+01  0.62886061408E+01  0.39604667776E+02  0.51100000000E-03 0.  1.
        -12    1    3    3    0    0  0.57298128978E+01  0.93169598934E+01 -0.72299725464E+01  0.13111407267E+02  0.00000000000E+00 0.  1.
</event>
<event>
 7    1  0.7674040E-012  0.5930192E+02  0.7816164E-02  0.1266605E+00
        -11   -1    0    0    0    0  0.00000000000E+00  0.00000000000E+00  0.45593999997E+02  0.45594000000E+02  0.51100000000E-03 0.  1.
         11   -1    0    0    0    0 -0.00000000000E+00 -0.00000000000E+00 -0.45593999997E+02  0.45594000000E+02  0.51100000000E-03 0. -1.
    9900012    2    1    2    0    0 -0.17673377590E+02 -0.75664890855E+01  0.25438598547E+02  0.59301916381E+02  0.49999949579E+02 0.  0.
         12    1    1    2    0    0  0.17673377590E+02  0.75664890855E+01 -0.25438598547E+02  0.31886083619E+02  0.00000000000E+00 0. -1.
         11    1    3    3    0    0  0.88401257152E+01 -0.98588618809E+01  0.26475112710E+01  0.13503862279E+02  0.51100000000E-03 0. -1.
        -11    1    3    3    0    0 -0.29692815260E+01  0.10009764485E+01  0.21982372668E+02  0.22204578245E+02  0.51100000000E-03 0.  1.
         12    1    3    3    0    0 -0.23544221780E+02  0.12913963468E+01  0.80871460760E+00  0.23593475858E+02  0.00000000000E+00 0. -1.
</event>
<event>
 7    1  0.7674040E-012  0.5930194E+02  0.7816164E-02  0.1266605E+00
        -11   -1    0    0    0    0  0.00000000000E+00  0.00000000000E+00  0.45593999997E+02  0.45594000000E+02  0.51100000000E-03 0.  1.
         11   -1    0    0    0    0 -0.00000000000E+00 -0.00000000000E+00 -0.45593999997E+02  0.45594000000E+02  0.51100000000E-03 0. -1.
    9900012    2    1    2    0    0  0.23534977351E+01  0.31744493681E+02  0.18624704491E+01  0.59301943066E+02  0.49999998246E+02 0.  0.
         12    1    1    2    0    0 -0.23534977351E+01 -0.31744493681E+02 -0.18624704491E+01  0.31886056934E+02  0.00000000000E+00 0. -1.
         11    1    3    3    0    0  0.12661065567E+02 -0.69279154145E+01 -0.71145745130E+01  0.16090859643E+02  0.51100000000E-03 0. -1.
        -11    1    3    3    0    0 -0.11408548329E+02  0.22587905895E+02  0.12591238950E+01  0.25336808420E+02  0.51100000000E-03 0.  1.
         12    1    3    3    0    0  0.11009804973E+01  0.16084503201E+02  0.77179210672E+01  0.17874275003E+02  0.00000000000E+00 0. -1.
</event>
<event>
 7    1  0.7674040E-012  0.5930199E+02  0.7816164E-02  0.1266605E+00
        -11   -1    0    0    0    0  0.00000000000E+00  0.00000000000E+00  0.45593999997E+02  0.45594000000E+02  0.51100000000E-03 0.  1.
         11   -1    0    0    0    0 -0.00000000000E+00 -0.00000000000E+00 -0.45593999997E+02  0.45594000000E+02  0.51100000000E-03 0. -1.
    9900012    2    1    2    0    0  0.26332876396E+02 -0.10074687712E+02  0.14892881293E+02  0.59301990137E+02  0.50000084092E+02 0.  0.
         12    1    1    2    0    0 -0.26332876396E+02  0.10074687712E+02 -0.14892881293E+02  0.31886009863E+02  0.00000000000E+00 0. -1.
         11    1    3    3    0    0 -0.12785086090E+02  0.39271742760E+01  0.89830238823E+01  0.16111357561E+02  0.51100000000E-03 0. -1.
        -11    1    3    3    0    0  0.36383274177E+02 -0.10805424136E+02  0.29931585592E+01  0.38071758943E+02  0.51100000000E-03 0.  1.
         12    1    3    3    0    0  0.27346883085E+01 -0.31964378515E+01  0.29166988515E+01  0.51188736333E+01  0.00000000000E+00 0. -1.
</event>
<event>
 7    1  0.7674040E-012  0.5930195E+02  0.7816164E-02  0.1266605E+00
        -11   -1    0    0    0    0  0.00000000000E+00  0.00000000000E+00  0.45593999997E+02  0.45594000000E+02  0.51100000000E-03 0.  1.
         11   -1    0    0    0    0 -0.00000000000E+00 -0.00000000000E+00 -0.45593999997E+02  0.45594000000E+02  0.51100000000E-03 0. -1.
    9900012    2    1    2    0    0  0.58260548166E+01 -0.95593337112E+01  0.29856259716E+02  0.59301952582E+02  0.50000015600E+02 0.  0.
         12    1    1    2    0    0 -0.58260548166E+01  0.95593337112E+01 -0.29856259716E+02  0.31886047418E+02  0.00000000000E+00 0. -1.
         11    1    3    3    0    0  0.38695405491E+00 -0.19684297027E+02  0.54935840709E+01  0.20440174879E+02  0.51100000000E-03 0. -1.
        -11    1    3    3    0    0  0.11162144130E+02  0.14732280964E+02  0.65775284498E+01  0.19618803346E+02  0.51100000000E-03 0.  1.
        -12    1    3    3    0    0 -0.57230433686E+01 -0.46073176480E+01  0.17785147195E+02  0.19242974356E+02  0.00000000000E+00 0.  1.
</event>
<event>
 7    1  0.7674040E-012  0.5930192E+02  0.7816164E-02  0.1266605E+00
        -11   -1    0    0    0    0  0.00000000000E+00  0.00000000000E+00  0.45593999997E+02  0.45594000000E+02  0.51100000000E-03 0.  1.
         11   -1    0    0    0    0 -0.00000000000E+00 -0.00000000000E+00 -0.45593999997E+02  0.45594000000E+02  0.51100000000E-03 0. -1.
    9900012    2    1    2    0    0 -0.30118072119E+02  0.29390749899E+01  0.10049147709E+02  0.59301924675E+02  0.49999964706E+02 0.  0.
         12    1    1    2    0    0  0.30118072119E+02 -0.29390749899E+01 -0.10049147709E+02  0.31886075325E+02  0.00000000000E+00 0. -1.
         11    1    3    3    0    0 -0.12099183056E+02 -0.13329943379E+02  0.12099277403E+02  0.21690323535E+02  0.51100000000E-03 0. -1.
        -11    1    3    3    0    0 -0.25196117016E+02  0.16773921906E+02 -0.61662037406E+00  0.30275220722E+02  0.51100000000E-03 0.  1.
        -12    1    3    3    0    0  0.71772279538E+01 -0.50490353742E+00 -0.14335093195E+01  0.73363804190E+01  0.00000000000E+00 0.  1.
</event>
<event>
 7    1  0.7674040E-012  0.5930198E+02  0.7816164E-02  0.1266605E+00
        -11   -1    0    0    0    0  0.00000000000E+00  0.00000000000E+00  0.45593999997E+02  0.45594000000E+02  0.51100000000E-03 0.  1.
         11   -1    0    0    0    0 -0.00000000000E+00 -0.00000000000E+00 -0.45593999997E+02  0.45594000000E+02  0.51100000000E-03 0. -1.
    9900012    2    1    2    0    0 -0.19548764604E+02  0.36697655386E+01  0.24921819314E+02  0.59301977128E+02  0.50000060368E+02 0.  0.
         12    1    1    2    0    0  0.19548764604E+02 -0.36697655386E+01 -0.24921819314E+02  0.31886022872E+02  0.00000000000E+00 0. -1.
         11    1    3    3    0    0  0.10267304523E+02  0.33974929497E+01 -0.50564727786E+01  0.11938526615E+02  0.51100000000E-03 0. -1.
        -11    1    3    3    0    0 -0.11974297730E+02  0.94895143396E+01  0.68805491536E+01  0.16756391182E+02  0.51100000000E-03 0.  1.
         12    1    3    3    0    0 -0.17841771398E+02 -0.92172417507E+01  0.23097742939E+02  0.30607059332E+02  0.00000000000E+00 0. -1.
</event>
<event>
 7    1  0.7674040E-012  0.5930193E+02  0.7816164E-02  0.1266605E+00
        -11   -1    0    0    0    0  0.00000000000E+00  0.00000000000E+00  0.45593999997E+02  0.45594000000E+02  0.51100000000E-03 0.  1.
         11   -1    0    0    0    0 -0.00000000000E+00 -0.00000000000E+00 -0.45593999997E+02  0.45594000000E+02  0.51100000000E-03 0. -1.
    9900012    2    1    2    0    0  0.63395145953E+01  0.15681081415E+02  0.27030276652E+02  0.59301927562E+02  0.49999969970E+02 0.  0.
         12    1    1    2    0    0 -0.63395145953E+01 -0.15681081415E+02 -0.27030276652E+02  0.31886072438E+02  0.00000000000E+00 0. -1.
         11    1    3    3    0    0  0.17043813948E+02  0.21746791562E+02  0.85217453729E+00  0.27643095681E+02  0.51100000000E-03 0. -1.
        -11    1    3    3    0    0 -0.64999723727E+01  0.25383820958E+01  0.17076626844E+02  0.18447336099E+02  0.51100000000E-03 0.  1.
         12    1    3    3    0    0 -0.42043269798E+01 -0.86040922435E+01  0.91014752708E+01  0.13211495782E+02  0.00000000000E+00 0. -1.
</event>
<event>
 7    1  0.7674040E-012  0.5930196E+02  0.7816164E-02  0.1266605E+00
        -11   -1    0    0    0    0  0.00000000000E+00  0.00000000000E+00  0.45593999997E+02  0.45594000000E+02  0.51100000000E-03 0.  1.
         11   -1    0    0    0    0 -0.00000000000E+00 -0.00000000000E+00 -0.45593999997E+02  0.45594000000E+02  0.51100000000E-03 0. -1.
    9900012    2    1    2    0    0  0.36442220006E+01  0.85277186356E+01  0.30507659504E+02  0.59301958736E+02  0.50000026823E+02 0.  0.
         12    1    1    2    0    0 -0.36442220006E+01 -0.85277186356E+01 -0.30507659504E+02  0.31886041264E+02  0.00000000000E+00 0. -1.
         11    1    3    3    0    0 -0.75825964875E+01  0.98283335472E+01  0.49038866680E+01  0.13346910299E+02  0.51100000000E-03 0. -1.
        -11    1    3    3    0    0  0.24475298638E+02 -0.35130874836E+01  0.16289565094E+02  0.29609659882E+02  0.51100000000E-03 0.  1.
        -12    1    3    3    0    0 -0.13248480150E+02  0.22124725720E+01  0.93142077417E+01  0.16345388555E+02  0.00000000000E+00 0.  1.
</event>
<event>
 7    1  0.7674040E-012  0.5930190E+02  0.7816164E-02  0.1266605E+00
        -11   -1    0    0    0    0  0.00000000000E+00  0.00000000000E+00  0.45593999997E+02  0.45594000000E+02  0.51100000000E-03 0. -1.
         11   -1    0    0    0    0 -0.00000000000E+00 -0.00000000000E+00 -0.45593999997E+02  0.45594000000E+02  0.51100000000E-03 0.  1.
    9900012    2    1    2    0    0 -0.30403143425E+02 -0.61648352220E+01 -0.73733978024E+01  0.59301900857E+02  0.49999921266E+02 0.  0.
         12    1    1    2    0    0  0.30403143425E+02  0.61648352220E+01  0.73733978024E+01  0.31886099143E+02  0.00000000000E+00 0. -1.
         11    1    3    3    0    0 -0.58644263499E+01  0.19717570545E+02 -0.82692261845E+01  0.22171021324E+02  0.51100000000E-03 0. -1.
        -11    1    3    3    0    0 -0.16814390200E+02 -0.20449337023E+02  0.48104409432E+01  0.26907981061E+02  0.51100000000E-03 0.  1.
         12    1    3    3    0    0 -0.77243268751E+01 -0.54330687443E+01 -0.39146125610E+01  0.10222898471E+02  0.00000000000E+00 0. -1.
</event>
<event>
 7    1  0.7674040E-012  0.5930194E+02  0.7816164E-02  0.1266605E+00
        -11   -1    0    0    0    0  0.00000000000E+00  0.00000000000E+00  0.45593999997E+02  0.45594000000E+02  0.51100000000E-03 0. -1.
         11   -1    0    0    0    0 -0.00000000000E+00 -0.00000000000E+00 -0.45593999997E+02  0.45594000000E+02  0.51100000000E-03 0.  1.
    9900012    2    1    2    0    0  0.73571496083E+01 -0.31002483475E+02 -0.11997654327E+01  0.59301936131E+02  0.49999985597E+02 0.  0.
         12    1    1    2    0    0 -0.73571496083E+01  0.31002483475E+02  0.11997654327E+01  0.31886063869E+02  0.00000000000E+00 0. -1.
         11    1    3    3    0    0  0.90906126083E+01  0.34513680588E+00  0.10039023871E+02  0.13547706727E+02  0.51100000000E-03 0. -1.
        -11    1    3    3    0    0 -0.96348982215E+01 -0.19132734185E+01 -0.11696744188E+02  0.15274347900E+02  0.51100000000E-03 0.  1.
        -12    1    3    3    0    0  0.79014352214E+01 -0.29434346863E+02  0.45795488366E+00  0.30479881504E+02  0.00000000000E+00 0.  1.
</event>
<event>
 7    1  0.7674040E-012  0.5930194E+02  0.7816164E-02  0.1266605E+00
        -11   -1    0    0    0    0  0.00000000000E+00  0.00000000000E+00  0.45593999997E+02  0.45594000000E+02  0.51100000000E-03 0.  1.
         11   -1    0    0    0    0 -0.00000000000E+00 -0.00000000000E+00 -0.45593999997E+02  0.45594000000E+02  0.51100000000E-03 0. -1.
    9900012    2    1    2    0    0 -0.30109489193E+02  0.96346841459E+01  0.41608148056E+01  0.59301939442E+02  0.49999991636E+02 0.  0.
         12    1    1    2    0    0  0.30109489193E+02 -0.96346841459E+01 -0.41608148056E+01  0.31886060558E+02  0.00000000000E+00 0. -1.
         11    1    3    3    0    0 -0.17826959491E+02  0.27683335641E+02 -0.58387764773E+01  0.33440377808E+02  0.51100000000E-03 0. -1.
        -11    1    3    3    0    0 -0.44402658952E+01 -0.25141599243E+01  0.62357741135E+01  0.80574090377E+01  0.51100000000E-03 0.  1.
         12    1    3    3    0    0 -0.78422638074E+01 -0.15534491571E+02  0.37638171694E+01  0.17804152596E+02  0.00000000000E+00 0. -1.
</event>
<event>
 7    1  0.7674040E-012  0.5930194E+02  0.7816164E-02  0.1266605E+00
        -11   -1    0    0    0    0  0.00000000000E+00  0.00000000000E+00  0.45593999997E+02  0.45594000000E+02  0.51100000000E-03 0.  1.
         11   -1    0    0    0    0 -0.00000000000E+00 -0.00000000000E+00 -0.45593999997E+02  0.45594000000E+02  0.51100000000E-03 0. -1.
    9900012    2    1    2    0    0 -0.21989988105E+02  0.13194393045E+02  0.18949128264E+02  0.59301936483E+02  0.49999986239E+02 0.  0.
         12    1    1    2    0    0  0.21989988105E+02 -0.13194393045E+02 -0.18949128264E+02  0.31886063517E+02  0.00000000000E+00 0. -1.
         11    1    3    3    0    0 -0.25158203255E+02  0.91772800864E+01 -0.52507638051E+01  0.27289708346E+02  0.51100000000E-03 0. -1.
        -11    1    3    3    0    0  0.11618172026E+02  0.43651867800E-01  0.13446450460E+02  0.17770505253E+02  0.51100000000E-03 0.  1.
        -12    1    3    3    0    0 -0.84499568755E+01  0.39734610907E+01  0.10753441610E+02  0.14241722883E+02  0.00000000000E+00 0.  1.
</event>
<event>
 7    1  0.7674040E-012  0.5930170E+02  0.7816164E-02  0.1266606E+00
        -11   -1    0    0    0    0  0.00000000000E+00  0.00000000000E+00  0.45593999997E+02  0.45594000000E+02  0.51100000000E-03 0.  1.
         11   -1    0    0    0    0 -0.00000000000E+00 -0.00000000000E+00 -0.45593999997E+02  0.45594000000E+02  0.51100000000E-03 0. -1.
    9900012    2    1    2    0    0 -0.98252893666E+01 -0.82854562940E+01  0.29181351226E+02  0.59301696412E+02  0.49999548407E+02 0.  0.
         12    1    1    2    0    0  0.98252893666E+01  0.82854562940E+01 -0.29181351226E+02  0.31886303588E+02  0.00000000000E+00 0. -1.
         11    1    3    3    0    0  0.56475697811E+01 -0.16996930240E+02 -0.46397891366E+01  0.18501846543E+02  0.51100000000E-03 0. -1.
        -11    1    3    3    0    0 -0.59567100607E+01  0.37001558236E+01  0.27379633942E+02  0.28263366801E+02  0.51100000000E-03 0.  1.
        -12    1    3    3    0    0 -0.95161490870E+01  0.50113181220E+01  0.64415064202E+01  0.12536483069E+02  0.00000000000E+00 0.  1.
</event>
<event>
 7    1  0.7674040E-012  0.5930196E+02  0.7816164E-02  0.1266605E+00
        -11   -1    0    0    0    0  0.00000000000E+00  0.00000000000E+00  0.45593999997E+02  0.45594000000E+02  0.51100000000E-03 0.  1.
         11   -1    0    0    0    0 -0.00000000000E+00 -0.00000000000E+00 -0.45593999997E+02  0.45594000000E+02  0.51100000000E-03 0. -1.
    9900012    2    1    2    0    0 -0.66456516731E+01 -0.27697538596E+02  0.14331814772E+02  0.59301964733E+02  0.50000037761E+02 0.  0.
         12    1    1    2    0    0  0.66456516731E+01  0.27697538596E+02 -0.14331814772E+02  0.31886035267E+02  0.00000000000E+00 0. -1.
         11    1    3    3    0    0 -0.25622391967E+02 -0.10781822570E+02  0.89744214535E+00  0.27812947896E+02  0.51100000000E-03 0. -1.
        -11    1    3    3    0    0  0.12905089478E+02 -0.51351851334E+01  0.11626426005E+02  0.18113123494E+02  0.51100000000E-03 0.  1.
         12    1    3    3    0    0  0.60716508151E+01 -0.11780530892E+02  0.18079466213E+01  0.13375893342E+02  0.00000000000E+00 0. -1.
</event>
<event>
 7    1  0.7674040E-012  0.5930195E+02  0.7816164E-02  0.1266605E+00
        -11   -1    0    0    0    0  0.00000000000E+00  0.00000000000E+00  0.45593999997E+02  0.45594000000E+02  0.51100000000E-03 0.  1.
         11   -1    0    0    0    0 -0.00000000000E+00 -0.00000000000E+00 -0.45593999997E+02  0.45594000000E+02  0.51100000000E-03 0. -1.
    9900012    2    1    2    0    0  0.86065072547E+01 -0.29793537296E+02  0.74157634523E+01  0.59301946946E+02  0.50000005323E+02 0.  0.
         12    1    1    2    0    0 -0.86065072547E+01  0.29793537296E+02 -0.74157634523E+01  0.31886053054E+02  0.00000000000E+00 0. -1.
         11    1    3    3    0    0  0.23132587244E+01  0.67498650803E+01 -0.11996265644E+02  0.13957873555E+02  0.51100000000E-03 0. -1.
        -11    1    3    3    0    0  0.11074001029E+02 -0.15527283977E+02  0.61551152997E+01  0.20040346581E+02  0.51100000000E-03 0.  1.
         12    1    3    3    0    0 -0.47807524986E+01 -0.21016118400E+02  0.13256913796E+02  0.25303726810E+02  0.00000000000E+00 0. -1.
</event>
<event>
 7    1  0.7674040E-012  0.5930193E+02  0.7816164E-02  0.1266605E+00
        -11   -1    0    0    0    0  0.00000000000E+00  0.00000000000E+00  0.45593999997E+02  0.45594000000E+02  0.51100000000E-03 0.  1.
         11   -1    0    0    0    0 -0.00000000000E+00 -0.00000000000E+00 -0.45593999997E+02  0.45594000000E+02  0.51100000000E-03 0. -1.
    9900012    2    1    2    0    0 -0.18503794635E+02 -0.59174806388E+01  0.25284672144E+02  0.59301927203E+02  0.49999969315E+02 0.  0.
         12    1    1    2    0    0  0.18503794635E+02  0.59174806388E+01 -0.25284672144E+02  0.31886072797E+02  0.00000000000E+00 0. -1.
         11    1    3    3    0    0 -0.33788732315E+01  0.19473868940E+02  0.97665833081E+01  0.22046190274E+02  0.51100000000E-03 0. -1.
        -11    1    3    3    0    0 -0.27080848129E+01 -0.15930312908E+02  0.14196076183E+01  0.16221093637E+02  0.51100000000E-03 0.  1.
        -12    1    3    3    0    0 -0.12416836590E+02 -0.94610366707E+01  0.14098481218E+02  0.21034643292E+02  0.00000000000E+00 0.  1.
</event>
<event>
 7    1  0.7674040E-012  0.5930192E+02  0.7816164E-02  0.1266605E+00
        -11   -1    0    0    0    0  0.00000000000E+00  0.00000000000E+00  0.45593999997E+02  0.45594000000E+02  0.51100000000E-03 0.  1.
         11   -1    0    0    0    0 -0.00000000000E+00 -0.00000000000E+00 -0.45593999997E+02  0.45594000000E+02  0.51100000000E-03 0. -1.
    9900012    2    1    2    0    0  0.21963795453E+02  0.23111445463E+02 -0.41798633992E+00  0.59301922557E+02  0.49999960843E+02 0.  0.
         12    1    1    2    0    0 -0.21963795453E+02 -0.23111445463E+02  0.41798633992E+00  0.31886077443E+02  0.00000000000E+00 0. -1.
         11    1    3    3    0    0  0.32544204692E+02  0.26693666402E+02  0.40338835055E+01  0.42284149529E+02  0.51100000000E-03 0.  1.
        -11    1    3    3    0    0 -0.63923397955E+01 -0.54742382102E+01  0.24143994821E+01  0.87554906866E+01  0.51100000000E-03 0. -1.
         12    1    3    3    0    0 -0.41880694434E+01  0.18920172717E+01 -0.68662693276E+01  0.82622823419E+01  0.00000000000E+00 0. -1.
</event>
<event>
 7    1  0.7674040E-012  0.5930192E+02  0.7816164E-02  0.1266605E+00
        -11   -1    0    0    0    0  0.00000000000E+00  0.00000000000E+00  0.45593999997E+02  0.45594000000E+02  0.51100000000E-03 0.  1.
         11   -1    0    0    0    0 -0.00000000000E+00 -0.00000000000E+00 -0.45593999997E+02  0.45594000000E+02  0.51100000000E-03 0. -1.
    9900012    2    1    2    0    0  0.26126083160E+02  0.13671568931E+02 -0.12134177109E+02  0.59301917261E+02  0.49999951184E+02 0.  0.
         12    1    1    2    0    0 -0.26126083160E+02 -0.13671568931E+02  0.12134177109E+02  0.31886082739E+02  0.00000000000E+00 0. -1.
         11    1    3    3    0    0  0.32203051289E+02  0.69982528486E+01 -0.94692584180E+01  0.34288174500E+02  0.51100000000E-03 0. -1.
        -11    1    3    3    0    0 -0.97793762947E+01  0.11760470537E+02 -0.75414253700E+01  0.17053385730E+02  0.51100000000E-03 0.  1.
         12    1    3    3    0    0  0.37024081660E+01 -0.50871544551E+01  0.48765066794E+01  0.79603570317E+01  0.00000000000E+00 0. -1.
</event>
<event>
 7    1  0.7674040E-012  0.5930192E+02  0.7816164E-02  0.1266605E+00
        -11   -1    0    0    0    0  0.00000000000E+00  0.00000000000E+00  0.45593999997E+02  0.45594000000E+02  0.51100000000E-03 0.  1.
         11   -1    0    0    0    0 -0.00000000000E+00 -0.00000000000E+00 -0.45593999997E+02  0.45594000000E+02  0.51100000000E-03 0. -1.
    9900012    2    1    2    0    0  0.69883048576E+01  0.27355198027E+02  0.14818187125E+02  0.59301922576E+02  0.49999960876E+02 0.  0.
         12    1    1    2    0    0 -0.69883048576E+01 -0.27355198027E+02 -0.14818187125E+02  0.31886077424E+02  0.00000000000E+00 0. -1.
         11    1    3    3    0    0 -0.12641479831E+02  0.17010732280E+02  0.22460691421E+02  0.30881299914E+02  0.51100000000E-03 0.  1.
        -11    1    3    3    0    0  0.18881231831E+02  0.21058649370E+01 -0.41801234986E+01  0.19452737990E+02  0.51100000000E-03 0. -1.
        -12    1    3    3    0    0  0.74855285719E+00  0.82386008100E+01 -0.34623807981E+01  0.89678846712E+01  0.00000000000E+00 0.  1.
</event>
<event>
 7    1  0.7674040E-012  0.5930194E+02  0.7816164E-02  0.1266605E+00
        -11   -1    0    0    0    0  0.00000000000E+00  0.00000000000E+00  0.45593999997E+02  0.45594000000E+02  0.51100000000E-03 0. -1.
         11   -1    0    0    0    0 -0.00000000000E+00 -0.00000000000E+00 -0.45593999997E+02  0.45594000000E+02  0.51100000000E-03 0.  1.
    9900012    2    1    2    0    0 -0.27410925715E+02  0.45552220850E+01  0.15640077750E+02  0.59301938330E+02  0.49999989610E+02 0.  0.
         12    1    1    2    0    0  0.27410925715E+02 -0.45552220850E+01 -0.15640077750E+02  0.31886061670E+02  0.00000000000E+00 0. -1.
         11    1    3    3    0    0 -0.29114627989E+02 -0.44629619289E+01  0.23809665462E+02  0.37874526555E+02  0.51100000000E-03 0. -1.
        -11    1    3    3    0    0  0.90005855445E+00 -0.40706302774E+01 -0.71471251832E+01  0.82741485908E+01  0.51100000000E-03 0.  1.
         12    1    3    3    0    0  0.80364371951E+00  0.13088814291E+02 -0.10224625292E+01  0.13153263185E+02  0.00000000000E+00 0. -1.
</event>
<event>
 7    1  0.7674040E-012  0.5930196E+02  0.7816164E-02  0.1266605E+00
        -11   -1    0    0    0    0  0.00000000000E+00  0.00000000000E+00  0.45593999997E+02  0.45594000000E+02  0.51100000000E-03 0.  1.
         11   -1    0    0    0    0 -0.00000000000E+00 -0.00000000000E+00 -0.45593999997E+02  0.45594000000E+02  0.51100000000E-03 0. -1.
    9900012    2    1    2    0    0  0.28718485417E+02  0.89522631448E+01  0.10574745513E+02  0.59301958184E+02  0.50000025818E+02 0.  0.
         12    1    1    2    0    0 -0.28718485417E+02 -0.89522631448E+01 -0.10574745513E+02  0.31886041816E+02  0.00000000000E+00 0. -1.
         11    1    3    3    0    0 -0.46191701814E+01 -0.50769329160E+01  0.10382107581E+02  0.12445888441E+02  0.51100000000E-03 0. -1.
        -11    1    3    3    0    0  0.31915481042E+02  0.18696404782E+02  0.78157228013E+01  0.37805277477E+02  0.51100000000E-03 0.  1.
         12    1    3    3    0    0  0.14221745556E+01 -0.46672087213E+01 -0.76230848697E+01  0.90507922662E+01  0.00000000000E+00 0. -1.
</event>
<event>
 7    1  0.7674040E-012  0.5930193E+02  0.7816164E-02  0.1266605E+00
        -11   -1    0    0    0    0  0.00000000000E+00  0.00000000000E+00  0.45593999997E+02  0.45594000000E+02  0.51100000000E-03 0.  1.
         11   -1    0    0    0    0 -0.00000000000E+00 -0.00000000000E+00 -0.45593999997E+02  0.45594000000E+02  0.51100000000E-03 0. -1.
    9900012    2    1    2    0    0 -0.24762916164E+02  0.14450442388E+02  0.13953649660E+02  0.59301927163E+02  0.49999969242E+02 0.  0.
         12    1    1    2    0    0  0.24762916164E+02 -0.14450442388E+02 -0.13953649660E+02  0.31886072837E+02  0.00000000000E+00 0. -1.
         11    1    3    3    0    0 -0.21327145889E+02  0.23096560207E+02 -0.68115706856E+01  0.32166686814E+02  0.51100000000E-03 0. -1.
        -11    1    3    3    0    0 -0.26064531891E+01 -0.18774500732E+01  0.20019195447E+02  0.20275270740E+02  0.51100000000E-03 0.  1.
         12    1    3    3    0    0 -0.82931708656E+00 -0.67686677452E+01  0.74602489870E+00  0.68599696081E+01  0.00000000000E+00 0. -1.
</event>
<event>
 7    1  0.7674040E-012  0.5930194E+02  0.7816164E-02  0.1266605E+00
        -11   -1    0    0    0    0  0.00000000000E+00  0.00000000000E+00  0.45593999997E+02  0.45594000000E+02  0.51100000000E-03 0. -1.
         11   -1    0    0    0    0 -0.00000000000E+00 -0.00000000000E+00 -0.45593999997E+02  0.45594000000E+02  0.51100000000E-03 0.  1.
    9900012    2    1    2    0    0 -0.38081768522E+01  0.32984854733E+01 -0.31485529068E+02  0.59301941007E+02  0.49999994492E+02 0.  0.
         12    1    1    2    0    0  0.38081768522E+01 -0.32984854733E+01  0.31485529068E+02  0.31886058993E+02  0.00000000000E+00 0. -1.
         11    1    3    3    0    0 -0.54354122691E+00  0.95045739058E+01 -0.13075194918E+01  0.96094729137E+01  0.51100000000E-03 0. -1.
        -11    1    3    3    0    0  0.86420096054E+00 -0.20576951908E+02 -0.27729591424E+02  0.34541106438E+02  0.51100000000E-03 0.  1.
        -12    1    3    3    0    0 -0.41288365858E+01  0.14370863476E+02 -0.24484181526E+01  0.15151361656E+02  0.00000000000E+00 0.  1.
</event>
<event>
 7    1  0.7674040E-012  0.5930194E+02  0.7816164E-02  0.1266605E+00
        -11   -1    0    0    0    0  0.00000000000E+00  0.00000000000E+00  0.45593999997E+02  0.45594000000E+02  0.51100000000E-03 0.  1.
         11   -1    0    0    0    0 -0.00000000000E+00 -0.00000000000E+00 -0.45593999997E+02  0.45594000000E+02  0.51100000000E-03 0. -1.
    9900012    2    1    2    0    0  0.80956821128E+01  0.73829857585E+01  0.29944485737E+02  0.59301940763E+02  0.49999994046E+02 0.  0.
         12    1    1    2    0    0 -0.80956821128E+01 -0.73829857585E+01 -0.29944485737E+02  0.31886059237E+02  0.00000000000E+00 0. -1.
         11    1    3    3    0    0 -0.10328199374E+02 -0.13499180433E+01  0.32469864523E+02  0.34099649315E+02  0.51100000000E-03 0. -1.
        -11    1    3    3    0    0 -0.97064390200E+00  0.27400670253E+01 -0.38911738961E+01  0.48570928999E+01  0.51100000000E-03 0.  1.
         12    1    3    3    0    0  0.19394525388E+02  0.59928367765E+01  0.13657951108E+01  0.20345198548E+02  0.00000000000E+00 0. -1.
</event>
<event>
 7    1  0.7674040E-012  0.5930195E+02  0.7816164E-02  0.1266605E+00
        -11   -1    0    0    0    0  0.00000000000E+00  0.00000000000E+00  0.45593999997E+02  0.45594000000E+02  0.51100000000E-03 0. -1.
         11   -1    0    0    0    0 -0.00000000000E+00 -0.00000000000E+00 -0.45593999997E+02  0.45594000000E+02  0.51100000000E-03 0.  1.
    9900012    2    1    2    0    0 -0.20276975058E+02 -0.24466821637E+02 -0.26342135192E+01  0.59301950395E+02  0.50000011613E+02 0.  0.
         12    1    1    2    0    0  0.20276975058E+02  0.24466821637E+02  0.26342135192E+01  0.31886049605E+02  0.00000000000E+00 0. -1.
         11    1    3    3    0    0 -0.12558787756E+02  0.71316804803E+01 -0.39512501372E+01  0.14973189182E+02  0.51100000000E-03 0. -1.
        -11    1    3    3    0    0  0.19850292442E+01 -0.34192859010E+02  0.14963803070E+01  0.34283102290E+02  0.51100000000E-03 0.  1.
        -12    1    3    3    0    0 -0.97032165468E+01  0.25943568930E+01 -0.17934368901E+00  0.10045658923E+02  0.00000000000E+00 0.  1.
</event>
<event>
 7    1  0.7674040E-012  0.5930217E+02  0.7816164E-02  0.1266604E+00
        -11   -1    0    0    0    0  0.00000000000E+00  0.00000000000E+00  0.45593999997E+02  0.45594000000E+02  0.51100000000E-03 0.  1.
         11   -1    0    0    0    0 -0.00000000000E+00 -0.00000000000E+00 -0.45593999997E+02  0.45594000000E+02  0.51100000000E-03 0. -1.
    9900012    2    1    2    0    0 -0.22482021124E+02  0.56367291315E+01  0.21897316562E+02  0.59302165187E+02  0.50000403340E+02 0.  0.
         12    1    1    2    0    0  0.22482021124E+02 -0.56367291315E+01 -0.21897316562E+02  0.31885834813E+02  0.00000000000E+00 0. -1.
         11    1    3    3    0    0 -0.14922532270E+01 -0.89806562838E+01 -0.94065117759E+01  0.13090510725E+02  0.51100000000E-03 0. -1.
        -11    1    3    3    0    0 -0.63383563543E+01 -0.47058162481E+01  0.15122081038E+02  0.17058628404E+02  0.51100000000E-03 0.  1.
         12    1    3    3    0    0 -0.14651411542E+02  0.19323201663E+02  0.16181747300E+02  0.29153026059E+02  0.00000000000E+00 0. -1.
</event>
<event>
 7    1  0.7674040E-012  0.5930196E+02  0.7816164E-02  0.1266605E+00
        -11   -1    0    0    0    0  0.00000000000E+00  0.00000000000E+00  0.45593999997E+02  0.45594000000E+02  0.51100000000E-03 0.  1.
         11   -1    0    0    0    0 -0.00000000000E+00 -0.00000000000E+00 -0.45593999997E+02  0.45594000000E+02  0.51100000000E-03 0. -1.
    9900012    2    1    2    0    0 -0.48800220487E+01 -0.24709886117E+02  0.19553164522E+02  0.59301963401E+02  0.50000035333E+02 0.  0.
         12    1    1    2    0    0  0.48800220487E+01  0.24709886117E+02 -0.19553164522E+02  0.31886036599E+02  0.00000000000E+00 0. -1.
         11    1    3    3    0    0 -0.97823138871E+01  0.40334120296E+01  0.48533234745E+01  0.11641169469E+02  0.51100000000E-03 0. -1.
        -11    1    3    3    0    0  0.19642171504E+02 -0.18966724275E+02  0.60296128547E+01  0.27962613657E+02  0.51100000000E-03 0.  1.
        -12    1    3    3    0    0 -0.14739879666E+02 -0.97765738723E+01  0.86702281931E+01  0.19698180275E+02  0.00000000000E+00 0.  1.
</event>
<event>
 7    1  0.7674040E-012  0.5930177E+02  0.7816164E-02  0.1266605E+00
        -11   -1    0    0    0    0  0.00000000000E+00  0.00000000000E+00  0.45593999997E+02  0.45594000000E+02  0.51100000000E-03 0.  1.
         11   -1    0    0    0    0 -0.00000000000E+00 -0.00000000000E+00 -0.45593999997E+02  0.45594000000E+02  0.51100000000E-03 0. -1.
    9900012    2    1    2    0    0 -0.52488796141E+00  0.29827373139E+02 -0.11259827827E+02  0.59301773845E+02  0.49999689626E+02 0.  0.
         12    1    1    2    0    0  0.52488796141E+00 -0.29827373139E+02  0.11259827827E+02  0.31886226155E+02  0.00000000000E+00 0. -1.
         11    1    3    3    0    0  0.16671730798E+02  0.33466546226E+02 -0.12046480331E+02  0.39281980764E+02  0.51100000000E-03 0. -1.
        -11    1    3    3    0    0 -0.15852026747E+02 -0.44832475120E+01 -0.22170782429E+01  0.16622325242E+02  0.51100000000E-03 0.  1.
        -12    1    3    3    0    0 -0.13445920125E+01  0.84407442503E+00  0.30037307473E+01  0.33974678391E+01  0.00000000000E+00 0.  1.
</event>
<event>
 7    1  0.7674040E-012  0.5930183E+02  0.7816164E-02  0.1266605E+00
        -11   -1    0    0    0    0  0.00000000000E+00  0.00000000000E+00  0.45593999997E+02  0.45594000000E+02  0.51100000000E-03 0.  1.
         11   -1    0    0    0    0 -0.00000000000E+00 -0.00000000000E+00 -0.45593999997E+02  0.45594000000E+02  0.51100000000E-03 0. -1.
    9900012    2    1    2    0    0  0.63849305338E+01 -0.26373616745E+02  0.16744941984E+02  0.59301826191E+02  0.49999785094E+02 0.  0.
         12    1    1    2    0    0 -0.63849305338E+01  0.26373616745E+02 -0.16744941984E+02  0.31886173809E+02  0.00000000000E+00 0. -1.
         11    1    3    3    0    0 -0.77688408649E+01 -0.48244080143E+01 -0.28305722664E+01  0.95729797184E+01  0.51100000000E-03 0. -1.
        -11    1    3    3    0    0  0.40378179401E+01 -0.17446200533E+02  0.29803527852E+02  0.34769586702E+02  0.51100000000E-03 0.  1.
        -12    1    3    3    0    0  0.10115953459E+02 -0.41030081973E+01 -0.10228013602E+02  0.14959259771E+02  0.00000000000E+00 0.  1.
</event>
<event>
 7    1  0.7674040E-012  0.5930193E+02  0.7816164E-02  0.1266605E+00
        -11   -1    0    0    0    0  0.00000000000E+00  0.00000000000E+00  0.45593999997E+02  0.45594000000E+02  0.51100000000E-03 0. -1.
         11   -1    0    0    0    0 -0.00000000000E+00 -0.00000000000E+00 -0.45593999997E+02  0.45594000000E+02  0.51100000000E-03 0.  1.
    9900012    2    1    2    0    0  0.13274476243E+02 -0.24761264806E+02 -0.15079429566E+02  0.59301934856E+02  0.49999983273E+02 0.  0.
         12    1    1    2    0    0 -0.13274476243E+02  0.24761264806E+02  0.15079429566E+02  0.31886065144E+02  0.00000000000E+00 0. -1.
         11    1    3    3    0    0  0.21323565095E+02 -0.11759360148E+02 -0.47297382441E+01  0.24806196878E+02  0.51100000000E-03 0. -1.
        -11    1    3    3    0    0 -0.11448345239E+02 -0.55194998155E+01 -0.18809791655E+02  0.22701051722E+02  0.51100000000E-03 0.  1.
         12    1    3    3    0    0  0.33992563873E+01 -0.74824048425E+01  0.84601003333E+01  0.11794686255E+02  0.00000000000E+00 0. -1.
</event>
<event>
 7    1  0.7674040E-012  0.5930195E+02  0.7816164E-02  0.1266605E+00
        -11   -1    0    0    0    0  0.00000000000E+00  0.00000000000E+00  0.45593999997E+02  0.45594000000E+02  0.51100000000E-03 0.  1.
         11   -1    0    0    0    0 -0.00000000000E+00 -0.00000000000E+00 -0.45593999997E+02  0.45594000000E+02  0.51100000000E-03 0. -1.
    9900012    2    1    2    0    0  0.21607754550E+01 -0.18124412332E+02  0.26144916792E+02  0.59301953726E+02  0.50000017687E+02 0.  0.
         12    1    1    2    0    0 -0.21607754550E+01  0.18124412332E+02 -0.26144916792E+02  0.31886046274E+02  0.00000000000E+00 0. -1.
         11    1    3    3    0    0  0.16059347445E+01 -0.31892459004E+02  0.48668313442E+01  0.32301610104E+02  0.51100000000E-03 0.  1.
        -11    1    3    3    0    0  0.18058576187E+01  0.21929266978E+01  0.11135443029E+00  0.28429648804E+01  0.51100000000E-03 0. -1.
         12    1    3    3    0    0 -0.12510169081E+01  0.11575119974E+02  0.21166731017E+02  0.24157378742E+02  0.00000000000E+00 0. -1.
</event>
<event>
 7    1  0.7674040E-012  0.5930188E+02  0.7816164E-02  0.1266605E+00
        -11   -1    0    0    0    0  0.00000000000E+00  0.00000000000E+00  0.45593999997E+02  0.45594000000E+02  0.51100000000E-03 0.  1.
         11   -1    0    0    0    0 -0.00000000000E+00 -0.00000000000E+00 -0.45593999997E+02  0.45594000000E+02  0.51100000000E-03 0. -1.
    9900012    2    1    2    0    0  0.74876680525E+01 -0.30788552757E+02  0.35671053491E+01  0.59301883989E+02  0.49999890503E+02 0.  0.
         12    1    1    2    0    0 -0.74876680525E+01  0.30788552757E+02 -0.35671053491E+01  0.31886116011E+02  0.00000000000E+00 0. -1.
         11    1    3    3    0    0  0.21930421062E+02 -0.17271105132E+02 -0.11263723238E+02  0.30101593012E+02  0.51100000000E-03 0. -1.
        -11    1    3    3    0    0 -0.68606089593E+01 -0.15234754517E+02  0.68472146721E+01  0.18056856025E+02  0.51100000000E-03 0.  1.
         12    1    3    3    0    0 -0.75821440499E+01  0.17173068926E+01  0.79836139152E+01  0.11143434951E+02  0.00000000000E+00 0. -1.
</event>
<event>
 7    1  0.7674040E-012  0.5930184E+02  0.7816164E-02  0.1266605E+00
        -11   -1    0    0    0    0  0.00000000000E+00  0.00000000000E+00  0.45593999997E+02  0.45594000000E+02  0.51100000000E-03 0. -1.
         11   -1    0    0    0    0 -0.00000000000E+00 -0.00000000000E+00 -0.45593999997E+02  0.45594000000E+02  0.51100000000E-03 0.  1.
    9900012    2    1    2    0    0 -0.19214419522E+02  0.35865517008E+01 -0.25192656836E+02  0.59301839537E+02  0.49999809433E+02 0.  0.
         12    1    1    2    0    0  0.19214419522E+02 -0.35865517008E+01  0.25192656836E+02  0.31886160463E+02  0.00000000000E+00 0. -1.
         11    1    3    3    0    0  0.14564456872E+02 -0.49915800321E+00 -0.55265905146E+01  0.15585755217E+02  0.51100000000E-03 0. -1.
        -11    1    3    3    0    0 -0.18221492243E+02  0.94927437553E+01 -0.17719090108E+02  0.27131183499E+02  0.51100000000E-03 0.  1.
         12    1    3    3    0    0 -0.15557384151E+02 -0.54070340513E+01 -0.19469762131E+01  0.16584900820E+02  0.00000000000E+00 0. -1.
</event>
<event>
 7    1  0.7674040E-012  0.5930195E+02  0.7816164E-02  0.1266605E+00
        -11   -1    0    0    0    0  0.00000000000E+00  0.00000000000E+00  0.45593999997E+02  0.45594000000E+02  0.51100000000E-03 0. -1.
         11   -1    0    0    0    0 -0.00000000000E+00 -0.00000000000E+00 -0.45593999997E+02  0.45594000000E+02  0.51100000000E-03 0.  1.
    9900012    2    1    2    0    0  0.19057814190E+02 -0.84738324505E+01 -0.24118744615E+02  0.59301953523E+02  0.50000017318E+02 0.  0.
         12    1    1    2    0    0 -0.19057814190E+02  0.84738324505E+01  0.24118744615E+02  0.31886046477E+02  0.00000000000E+00 0. -1.
         11    1    3    3    0    0  0.27387084608E+02  0.76264590013E+01 -0.14775654155E+02  0.32039588577E+02  0.51100000000E-03 0. -1.
        -11    1    3    3    0    0 -0.51504470656E+01 -0.11521230250E+02  0.36388998809E+01  0.13134208924E+02  0.51100000000E-03 0.  1.
         12    1    3    3    0    0 -0.31788233519E+01 -0.45790612018E+01 -0.12981990341E+02  0.14128156023E+02  0.00000000000E+00 0. -1.
</event>
<event>
 7    1  0.7674040E-012  0.5930195E+02  0.7816164E-02  0.1266605E+00
        -11   -1    0    0    0    0  0.00000000000E+00  0.00000000000E+00  0.45593999997E+02  0.45594000000E+02  0.51100000000E-03 0. -1.
         11   -1    0    0    0    0 -0.00000000000E+00 -0.00000000000E+00 -0.45593999997E+02  0.45594000000E+02  0.51100000000E-03 0.  1.
    9900012    2    1    2    0    0  0.52835381152E+01  0.16565333346E+02 -0.26728149334E+02  0.59301952727E+02  0.50000015866E+02 0.  0.
         12    1    1    2    0    0 -0.52835381152E+01 -0.16565333346E+02  0.26728149334E+02  0.31886047273E+02  0.00000000000E+00 0. -1.
         11    1    3    3    0    0  0.18434981861E+01  0.10065731148E+02  0.44133589013E+01  0.11144288500E+02  0.51100000000E-03 0. -1.
        -11    1    3    3    0    0  0.15667419313E+02 -0.86347709851E+00 -0.29979060354E+02  0.33837223299E+02  0.51100000000E-03 0.  1.
        -12    1    3    3    0    0 -0.12227379384E+02  0.73630792958E+01 -0.11624478808E+01  0.14320440928E+02  0.00000000000E+00 0.  1.
</event>
<event>
 7    1  0.7674040E-012  0.5930194E+02  0.7816164E-02  0.1266605E+00
        -11   -1    0    0    0    0  0.00000000000E+00  0.00000000000E+00  0.45593999997E+02  0.45594000000E+02  0.51100000000E-03 0.  1.
         11   -1    0    0    0    0 -0.00000000000E+00 -0.00000000000E+00 -0.45593999997E+02  0.45594000000E+02  0.51100000000E-03 0. -1.
    9900012    2    1    2    0    0  0.29624812929E+02  0.11215350111E+02  0.36479092325E+01  0.59301939394E+02  0.49999991549E+02 0.  0.
         12    1    1    2    0    0 -0.29624812929E+02 -0.11215350111E+02 -0.36479092325E+01  0.31886060606E+02  0.00000000000E+00 0. -1.
         11    1    3    3    0    0  0.24780047175E+02  0.13026531758E+02  0.21576747240E+02  0.35345399833E+02  0.51100000000E-03 0.  1.
        -11    1    3    3    0    0 -0.46402055339E+01  0.50813442847E+00 -0.16068242232E+01  0.49367592953E+01  0.51100000000E-03 0. -1.
         12    1    3    3    0    0  0.94849712884E+01 -0.23193160751E+01 -0.16322013784E+02  0.19019780266E+02  0.00000000000E+00 0. -1.
</event>
<event>
 7    1  0.7674040E-012  0.5930201E+02  0.7816164E-02  0.1266605E+00
        -11   -1    0    0    0    0  0.00000000000E+00  0.00000000000E+00  0.45593999997E+02  0.45594000000E+02  0.51100000000E-03 0.  1.
         11   -1    0    0    0    0 -0.00000000000E+00 -0.00000000000E+00 -0.45593999997E+02  0.45594000000E+02  0.51100000000E-03 0. -1.
    9900012    2    1    2    0    0 -0.26450180910E+02 -0.16200161926E+02 -0.73931710115E+01  0.59302011005E+02  0.50000122150E+02 0.  0.
         12    1    1    2    0    0  0.26450180910E+02  0.16200161926E+02  0.73931710115E+01  0.31885988995E+02  0.00000000000E+00 0. -1.
         11    1    3    3    0    0 -0.60907723685E+01  0.16702786614E+02 -0.34827949001E+01  0.18116579404E+02  0.51100000000E-03 0. -1.
        -11    1    3    3    0    0 -0.10006330953E+02 -0.55549287780E+01  0.11730203055E+01  0.11504775954E+02  0.51100000000E-03 0.  1.
         12    1    3    3    0    0 -0.10353077589E+02 -0.27348019762E+02 -0.50833964169E+01  0.29680655646E+02  0.00000000000E+00 0. -1.
</event>
<event>
 7    1  0.7674040E-012  0.5930189E+02  0.7816164E-02  0.1266605E+00
        -11   -1    0    0    0    0  0.00000000000E+00  0.00000000000E+00  0.45593999997E+02  0.45594000000E+02  0.51100000000E-03 0.  1.
         11   -1    0    0    0    0 -0.00000000000E+00 -0.00000000000E+00 -0.45593999997E+02  0.45594000000E+02  0.51100000000E-03 0. -1.
    9900012    2    1    2    0    0  0.26307552704E+02 -0.31762311757E+01  0.17735502012E+02  0.59301893223E+02  0.49999907345E+02 0.  0.
         12    1    1    2    0    0 -0.26307552704E+02  0.31762311757E+01 -0.17735502012E+02  0.31886106777E+02  0.00000000000E+00 0. -1.
         11    1    3    3    0    0  0.85583094951E+00 -0.18407352364E+02  0.62689248328E+01  0.19464390216E+02  0.51100000000E-03 0. -1.
        -11    1    3    3    0    0  0.14113376980E+02  0.18927225378E+02  0.14269375246E+02  0.27586995858E+02  0.51100000000E-03 0.  1.
         12    1    3    3    0    0  0.11338344775E+02 -0.36961041902E+01 -0.28027980672E+01  0.12250507150E+02  0.00000000000E+00 0. -1.
</event>
<event>
 7    1  0.7674040E-012  0.5930194E+02  0.7816164E-02  0.1266605E+00
        -11   -1    0    0    0    0  0.00000000000E+00  0.00000000000E+00  0.45593999997E+02  0.45594000000E+02  0.51100000000E-03 0.  1.
         11   -1    0    0    0    0 -0.00000000000E+00 -0.00000000000E+00 -0.45593999997E+02  0.45594000000E+02  0.51100000000E-03 0. -1.
    9900012    2    1    2    0    0  0.13744813434E+02  0.25812761444E+02 -0.12708350811E+02  0.59301941447E+02  0.49999995293E+02 0.  0.
         12    1    1    2    0    0 -0.13744813434E+02 -0.25812761444E+02  0.12708350811E+02  0.31886058553E+02  0.00000000000E+00 0. -1.
         11    1    3    3    0    0 -0.94820134411E+01  0.16342360915E+02 -0.10214797288E+02  0.21478440890E+02  0.51100000000E-03 0. -1.
        -11    1    3    3    0    0  0.87413938877E+01 -0.88916136060E+01  0.47448351996E+01  0.13341147662E+02  0.51100000000E-03 0.  1.
        -12    1    3    3    0    0  0.14485432987E+02  0.18362014136E+02 -0.72383887228E+01  0.24482352894E+02  0.00000000000E+00 0.  1.
</event>
<event>
 7    1  0.7674040E-012  0.5930193E+02  0.7816164E-02  0.1266605E+00
        -11   -1    0    0    0    0  0.00000000000E+00  0.00000000000E+00  0.45593999997E+02  0.45594000000E+02  0.51100000000E-03 0.  1.
         11   -1    0    0    0    0 -0.00000000000E+00 -0.00000000000E+00 -0.45593999997E+02  0.45594000000E+02  0.51100000000E-03 0. -1.
    9900012    2    1    2    0    0  0.22109197437E+02  0.22883728990E+02  0.20590052942E+01  0.59301934602E+02  0.49999982809E+02 0.  0.
         12    1    1    2    0    0 -0.22109197437E+02 -0.22883728990E+02 -0.20590052942E+01  0.31886065398E+02  0.00000000000E+00 0. -1.
         11    1    3    3    0    0 -0.39619957043E+01 -0.68928000599E+01 -0.13843455281E+01  0.80699761727E+01  0.51100000000E-03 0. -1.
        -11    1    3    3    0    0  0.11791925503E+02  0.18364025492E+02 -0.14029748878E+02  0.25944571556E+02  0.51100000000E-03 0.  1.
        -12    1    3    3    0    0  0.14279267638E+02  0.11412503558E+02  0.17473099701E+02  0.25287386873E+02  0.00000000000E+00 0.  1.
</event>
<event>
 7    1  0.7674040E-012  0.5930191E+02  0.7816164E-02  0.1266605E+00
        -11   -1    0    0    0    0  0.00000000000E+00  0.00000000000E+00  0.45593999997E+02  0.45594000000E+02  0.51100000000E-03 0. -1.
         11   -1    0    0    0    0 -0.00000000000E+00 -0.00000000000E+00 -0.45593999997E+02  0.45594000000E+02  0.51100000000E-03 0.  1.
    9900012    2    1    2    0    0  0.21588729513E+02 -0.23464291072E+02 -0.27647773979E+00  0.59301911537E+02  0.49999940745E+02 0.  0.
         12    1    1    2    0    0 -0.21588729513E+02  0.23464291072E+02  0.27647773979E+00  0.31886088463E+02  0.00000000000E+00 0. -1.
         11    1    3    3    0    0 -0.25315901874E+01  0.76430199246E+01 -0.83597796074E+01  0.11606490330E+02  0.51100000000E-03 0. -1.
        -11    1    3    3    0    0  0.54950981118E+01 -0.15440300778E+02 -0.82858602925E+01  0.18364489441E+02  0.51100000000E-03 0.  1.
         12    1    3    3    0    0  0.18625221589E+02 -0.15667010219E+02  0.16369162160E+02  0.29330931766E+02  0.00000000000E+00 0. -1.
</event>
<event>
 7    1  0.7674040E-012  0.5930192E+02  0.7816164E-02  0.1266605E+00
        -11   -1    0    0    0    0  0.00000000000E+00  0.00000000000E+00  0.45593999997E+02  0.45594000000E+02  0.51100000000E-03 0. -1.
         11   -1    0    0    0    0 -0.00000000000E+00 -0.00000000000E+00 -0.45593999997E+02  0.45594000000E+02  0.51100000000E-03 0.  1.
    9900012    2    1    2    0    0 -0.14924589457E+02 -0.10855187703E+02 -0.26002759800E+02  0.59301921725E+02  0.49999959326E+02 0.  0.
         12    1    1    2    0    0  0.14924589457E+02  0.10855187703E+02  0.26002759800E+02  0.31886078275E+02  0.00000000000E+00 0. -1.
         11    1    3    3    0    0 -0.93745480942E+01 -0.20793085019E+02 -0.11167995913E+02  0.25396036493E+02  0.51100000000E-03 0. -1.
        -11    1    3    3    0    0  0.72696448153E+01  0.13875874237E+02 -0.28537946643E+01  0.15922680862E+02  0.51100000000E-03 0.  1.
        -12    1    3    3    0    0 -0.12819686178E+02 -0.39379769207E+01 -0.11980969223E+02  0.17983204371E+02  0.00000000000E+00 0.  1.
</event>
<event>
 7    1  0.7674040E-012  0.5930193E+02  0.7816164E-02  0.1266605E+00
        -11   -1    0    0    0    0  0.00000000000E+00  0.00000000000E+00  0.45593999997E+02  0.45594000000E+02  0.51100000000E-03 0.  1.
         11   -1    0    0    0    0 -0.00000000000E+00 -0.00000000000E+00 -0.45593999997E+02  0.45594000000E+02  0.51100000000E-03 0. -1.
    9900012    2    1    2    0    0  0.18853970113E+02 -0.10145503168E+02  0.23628756999E+02  0.59301928105E+02  0.49999970961E+02 0.  0.
         12    1    1    2    0    0 -0.18853970113E+02  0.10145503168E+02 -0.23628756999E+02  0.31886071895E+02  0.00000000000E+00 0. -1.
         11    1    3    3    0    0  0.18671118459E+02 -0.99401603929E+01  0.14418413268E+01  0.21201329199E+02  0.51100000000E-03 0. -1.
        -11    1    3    3    0    0 -0.41321802135E+01  0.37379479667E+01  0.28765512347E+02  0.29300202545E+02  0.51100000000E-03 0.  1.
         12    1    3    3    0    0  0.43150318675E+01 -0.39432907421E+01 -0.65785966749E+01  0.88003963607E+01  0.00000000000E+00 0. -1.
</event>
<event>
 7    1  0.7674040E-012  0.5930194E+02  0.7816164E-02  0.1266605E+00
        -11   -1    0    0    0    0  0.00000000000E+00  0.00000000000E+00  0.45593999997E+02  0.45594000000E+02  0.51100000000E-03 0.  1.
         11   -1    0    0    0    0 -0.00000000000E+00 -0.00000000000E+00 -0.45593999997E+02  0.45594000000E+02  0.51100000000E-03 0. -1.
    9900012    2    1    2    0    0 -0.30298753614E+02  0.96859250633E+01  0.22111958213E+01  0.59301937185E+02  0.49999987520E+02 0.  0.
         12    1    1    2    0    0  0.30298753614E+02 -0.96859250633E+01 -0.22111958213E+01  0.31886062815E+02  0.00000000000E+00 0. -1.
         11    1    3    3    0    0 -0.21578239658E+01  0.21704570291E+02  0.11052713176E+02  0.24452137833E+02  0.51100000000E-03 0. -1.
        -11    1    3    3    0    0 -0.20715341282E+02 -0.14706437634E+02 -0.89978847540E+01  0.26951189261E+02  0.51100000000E-03 0.  1.
        -12    1    3    3    0    0 -0.74255883664E+01  0.26877924061E+01  0.15636739930E+00  0.78986100910E+01  0.00000000000E+00 0.  1.
</event>
<event>
 7    1  0.7674040E-012  0.5930194E+02  0.7816164E-02  0.1266605E+00
        -11   -1    0    0    0    0  0.00000000000E+00  0.00000000000E+00  0.45593999997E+02  0.45594000000E+02  0.51100000000E-03 0.  1.
         11   -1    0    0    0    0 -0.00000000000E+00 -0.00000000000E+00 -0.45593999997E+02  0.45594000000E+02  0.51100000000E-03 0. -1.
    9900012    2    1    2    0    0 -0.14801249626E+02 -0.24052762802E+02  0.14802308143E+02  0.59301941679E+02  0.49999995716E+02 0.  0.
         12    1    1    2    0    0  0.14801249626E+02  0.24052762802E+02 -0.14802308143E+02  0.31886058321E+02  0.00000000000E+00 0. -1.
         11    1    3    3    0    0 -0.12324639510E+01 -0.31109918789E+02  0.14108048959E+02  0.34181618746E+02  0.51100000000E-03 0.  1.
        -11    1    3    3    0    0 -0.67899988342E+01  0.13721481970E+02  0.22943311414E+01  0.15480539631E+02  0.51100000000E-03 0. -1.
         12    1    3    3    0    0 -0.67787868404E+01 -0.66643259834E+01 -0.16000719567E+01  0.96397833019E+01  0.00000000000E+00 0. -1.
</event>
<event>
 7    1  0.7674040E-012  0.5930195E+02  0.7816164E-02  0.1266605E+00
        -11   -1    0    0    0    0  0.00000000000E+00  0.00000000000E+00  0.45593999997E+02  0.45594000000E+02  0.51100000000E-03 0.  1.
         11   -1    0    0    0    0 -0.00000000000E+00 -0.00000000000E+00 -0.45593999997E+02  0.45594000000E+02  0.51100000000E-03 0. -1.
    9900012    2    1    2    0    0 -0.12187721265E+02  0.28576083319E+02 -0.71824244197E+01  0.59301948065E+02  0.50000007362E+02 0.  0.
         12    1    1    2    0    0  0.12187721265E+02 -0.28576083319E+02  0.71824244197E+01  0.31886051935E+02  0.00000000000E+00 0. -1.
         11    1    3    3    0    0  0.53458054958E+01  0.10827554800E+02  0.16828413436E+02  0.20712534330E+02  0.51100000000E-03 0. -1.
        -11    1    3    3    0    0 -0.11188977390E+02  0.33960257098E+00 -0.57918417097E+01  0.12603728638E+02  0.51100000000E-03 0.  1.
         12    1    3    3    0    0 -0.63445493712E+01  0.17408925948E+02 -0.18218996146E+02  0.25985685096E+02  0.00000000000E+00 0. -1.
</event>
<event>
 7    1  0.7674040E-012  0.5930202E+02  0.7816164E-02  0.1266604E+00
        -11   -1    0    0    0    0  0.00000000000E+00  0.00000000000E+00  0.45593999997E+02  0.45594000000E+02  0.51100000000E-03 0.  1.
         11   -1    0    0    0    0 -0.00000000000E+00 -0.00000000000E+00 -0.45593999997E+02  0.45594000000E+02  0.51100000000E-03 0. -1.
    9900012    2    1    2    0    0  0.25694338233E+02  0.79204533299E+01  0.17140100174E+02  0.59302021386E+02  0.50000141083E+02 0.  0.
         12    1    1    2    0    0 -0.25694338233E+02 -0.79204533299E+01 -0.17140100174E+02  0.31885978614E+02  0.00000000000E+00 0. -1.
         11    1    3    3    0    0 -0.10548423982E+02  0.12788154892E+01  0.10374617340E+02  0.14850498402E+02  0.51100000000E-03 0. -1.
        -11    1    3    3    0    0  0.26663988443E+02 -0.43700271489E+01 -0.25458124147E+01  0.27139391630E+02  0.51100000000E-03 0.  1.
        -12    1    3    3    0    0  0.95787737725E+01  0.11011664990E+02  0.93112952486E+01  0.17312131354E+02  0.00000000000E+00 0.  1.
</event>
<event>
 7    1  0.7674040E-012  0.5930197E+02  0.7816164E-02  0.1266605E+00
        -11   -1    0    0    0    0  0.00000000000E+00  0.00000000000E+00  0.45593999997E+02  0.45594000000E+02  0.51100000000E-03 0.  1.
         11   -1    0    0    0    0 -0.00000000000E+00 -0.00000000000E+00 -0.45593999997E+02  0.45594000000E+02  0.51100000000E-03 0. -1.
    9900012    2    1    2    0    0 -0.73713959881E+01 -0.14862516796E+02  0.27230254352E+02  0.59301974277E+02  0.50000055168E+02 0.  0.
         12    1    1    2    0    0  0.73713959881E+01  0.14862516796E+02 -0.27230254352E+02  0.31886025723E+02  0.00000000000E+00 0. -1.
         11    1    3    3    0    0  0.84957008181E+01 -0.10129949437E+02 -0.87921427075E+01  0.15877486628E+02  0.51100000000E-03 0. -1.
        -11    1    3    3    0    0 -0.15154720253E+02  0.28808151677E+00  0.13370239969E+02  0.20211676180E+02  0.51100000000E-03 0.  1.
         12    1    3    3    0    0 -0.71237655351E+00 -0.50206488761E+01  0.22652157090E+02  0.23212811469E+02  0.00000000000E+00 0. -1.
</event>
<event>
 7    1  0.7674040E-012  0.5930194E+02  0.7816164E-02  0.1266605E+00
        -11   -1    0    0    0    0  0.00000000000E+00  0.00000000000E+00  0.45593999997E+02  0.45594000000E+02  0.51100000000E-03 0. -1.
         11   -1    0    0    0    0 -0.00000000000E+00 -0.00000000000E+00 -0.45593999997E+02  0.45594000000E+02  0.51100000000E-03 0.  1.
    9900012    2    1    2    0    0  0.54279256930E+01 -0.15079510457E+01 -0.31384458826E+02  0.59301944278E+02  0.50000000457E+02 0.  0.
         12    1    1    2    0    0 -0.54279256930E+01  0.15079510457E+01  0.31384458826E+02  0.31886055722E+02  0.00000000000E+00 0. -1.
         11    1    3    3    0    0  0.18032485788E+02 -0.77671211886E+01  0.17082279983E+01  0.19708291616E+02  0.51100000000E-03 0. -1.
        -11    1    3    3    0    0 -0.22595503549E+01  0.10355152368E+02 -0.15471244484E+02  0.18753510459E+02  0.51100000000E-03 0.  1.
         12    1    3    3    0    0 -0.10345009740E+02 -0.40959822252E+01 -0.17621442340E+02  0.20840142203E+02  0.00000000000E+00 0. -1.
</event>
<event>
 7    1  0.7674040E-012  0.5930195E+02  0.7816164E-02  0.1266605E+00
        -11   -1    0    0    0    0  0.00000000000E+00  0.00000000000E+00  0.45593999997E+02  0.45594000000E+02  0.51100000000E-03 0.  1.
         11   -1    0    0    0    0 -0.00000000000E+00 -0.00000000000E+00 -0.45593999997E+02  0.45594000000E+02  0.51100000000E-03 0. -1.
    9900012    2    1    2    0    0  0.14393716708E+02 -0.53366036098E+01  0.27947479130E+02  0.59301952762E+02  0.50000015929E+02 0.  0.
         12    1    1    2    0    0 -0.14393716708E+02  0.53366036098E+01 -0.27947479130E+02  0.31886047238E+02  0.00000000000E+00 0. -1.
         11    1    3    3    0    0  0.15499219686E+02 -0.12248622255E+02  0.16351370441E+02  0.25644139166E+02  0.51100000000E-03 0. -1.
        -11    1    3    3    0    0 -0.95375576378E+01  0.11325692671E+02  0.17134967096E+02  0.22646046406E+02  0.51100000000E-03 0.  1.
        -12    1    3    3    0    0  0.84320546595E+01 -0.44136740261E+01 -0.55388584072E+01  0.11011767190E+02  0.00000000000E+00 0.  1.
</event>
<event>
 7    1  0.7674040E-012  0.5930196E+02  0.7816164E-02  0.1266605E+00
        -11   -1    0    0    0    0  0.00000000000E+00  0.00000000000E+00  0.45593999997E+02  0.45594000000E+02  0.51100000000E-03 0.  1.
         11   -1    0    0    0    0 -0.00000000000E+00 -0.00000000000E+00 -0.45593999997E+02  0.45594000000E+02  0.51100000000E-03 0. -1.
    9900012    2    1    2    0    0 -0.26766749148E+02  0.53154360604E+01  0.16492638394E+02  0.59301955377E+02  0.50000020699E+02 0.  0.
         12    1    1    2    0    0  0.26766749148E+02 -0.53154360604E+01 -0.16492638394E+02  0.31886044623E+02  0.00000000000E+00 0. -1.
         11    1    3    3    0    0 -0.26467894175E+02  0.22529171882E+01 -0.27035532666E+01  0.26700828797E+02  0.51100000000E-03 0. -1.
        -11    1    3    3    0    0  0.12585461002E+02  0.24712099804E+01  0.60386489261E+01  0.14176247336E+02  0.51100000000E-03 0.  1.
         12    1    3    3    0    0 -0.12884315975E+02  0.59130889181E+00  0.13157542735E+02  0.18424879244E+02  0.00000000000E+00 0. -1.
</event>
<event>
 7    1  0.7674040E-012  0.5930201E+02  0.7816164E-02  0.1266605E+00
        -11   -1    0    0    0    0  0.00000000000E+00  0.00000000000E+00  0.45593999997E+02  0.45594000000E+02  0.51100000000E-03 0. -1.
         11   -1    0    0    0    0 -0.00000000000E+00 -0.00000000000E+00 -0.45593999997E+02  0.45594000000E+02  0.51100000000E-03 0.  1.
    9900012    2    1    2    0    0 -0.46570816192E+01  0.32501149917E+01 -0.31376184859E+02  0.59302005693E+02  0.50000112462E+02 0.  0.
         12    1    1    2    0    0  0.46570816192E+01 -0.32501149917E+01  0.31376184859E+02  0.31885994307E+02  0.00000000000E+00 0. -1.
         11    1    3    3    0    0 -0.24010336855E+01  0.12225535025E+02 -0.18749229225E+02  0.22511380815E+02  0.51100000000E-03 0.  1.
        -11    1    3    3    0    0  0.78328047407E+01 -0.15857319641E+01  0.88585141685E+01  0.11930660061E+02  0.51100000000E-03 0. -1.
         12    1    3    3    0    0 -0.10088852674E+02 -0.73896880689E+01 -0.21485469803E+02  0.24859964817E+02  0.00000000000E+00 0. -1.
</event>
<event>
 7    1  0.7674040E-012  0.5930169E+02  0.7816164E-02  0.1266606E+00
        -11   -1    0    0    0    0  0.00000000000E+00  0.00000000000E+00  0.45593999997E+02  0.45594000000E+02  0.51100000000E-03 0.  1.
         11   -1    0    0    0    0 -0.00000000000E+00 -0.00000000000E+00 -0.45593999997E+02  0.45594000000E+02  0.51100000000E-03 0. -1.
    9900012    2    1    2    0    0 -0.54442366322E+01 -0.16757493751E+02  0.26575999733E+02  0.59301685206E+02  0.49999527969E+02 0.  0.
         12    1    1    2    0    0  0.54442366322E+01  0.16757493751E+02 -0.26575999733E+02  0.31886314794E+02  0.00000000000E+00 0. -1.
         11    1    3    3    0    0  0.15972918411E+02 -0.28155246106E+01  0.28866459393E+02  0.33110931420E+02  0.51100000000E-03 0.  1.
        -11    1    3    3    0    0 -0.17087374810E+02 -0.85229800152E+01 -0.24570159090E+01  0.19252441239E+02  0.51100000000E-03 0. -1.
        -12    1    3    3    0    0 -0.43297802329E+01 -0.54189891255E+01  0.16655624897E+00  0.69383125463E+01  0.00000000000E+00 0.  1.
</event>
<event>
 7    1  0.7674040E-012  0.5930192E+02  0.7816164E-02  0.1266605E+00
        -11   -1    0    0    0    0  0.00000000000E+00  0.00000000000E+00  0.45593999997E+02  0.45594000000E+02  0.51100000000E-03 0.  1.
         11   -1    0    0    0    0 -0.00000000000E+00 -0.00000000000E+00 -0.45593999997E+02  0.45594000000E+02  0.51100000000E-03 0. -1.
    9900012    2    1    2    0    0  0.28379466890E+02  0.34548397335E+01  0.14120628012E+02  0.59301918491E+02  0.49999953427E+02 0.  0.
         12    1    1    2    0    0 -0.28379466890E+02 -0.34548397335E+01 -0.14120628012E+02  0.31886081509E+02  0.00000000000E+00 0. -1.
         11    1    3    3    0    0  0.15570851993E+02  0.14633346512E+01  0.23701727449E+02  0.28396560785E+02  0.51100000000E-03 0.  1.
        -11    1    3    3    0    0  0.15615672292E+02  0.18407580533E+01 -0.16888996330E+02  0.23075437344E+02  0.51100000000E-03 0. -1.
        -12    1    3    3    0    0 -0.28070573953E+01  0.15074702908E+00  0.73078968925E+01  0.78299203622E+01  0.00000000000E+00 0.  1.
</event>
<event>
 7    1  0.7674040E-012  0.5930194E+02  0.7816164E-02  0.1266605E+00
        -11   -1    0    0    0    0  0.00000000000E+00  0.00000000000E+00  0.45593999997E+02  0.45594000000E+02  0.51100000000E-03 0.  1.
         11   -1    0    0    0    0 -0.00000000000E+00 -0.00000000000E+00 -0.45593999997E+02  0.45594000000E+02  0.51100000000E-03 0. -1.
    9900012    2    1    2    0    0 -0.27670444750E+02 -0.41858381097E+01  0.15282221239E+02  0.59301936597E+02  0.49999986448E+02 0.  0.
         12    1    1    2    0    0  0.27670444750E+02  0.41858381097E+01 -0.15282221239E+02  0.31886063403E+02  0.00000000000E+00 0. -1.
         11    1    3    3    0    0  0.54955335447E+01  0.35308682903E+01 -0.76321074671E+01  0.10045744595E+02  0.51100000000E-03 0. -1.
        -11    1    3    3    0    0 -0.30350350508E+02 -0.16364605664E+02  0.18813814007E+02  0.39279812783E+02  0.51100000000E-03 0.  1.
        -12    1    3    3    0    0 -0.28156277867E+01  0.86478992644E+01  0.41005146991E+01  0.99763792189E+01  0.00000000000E+00 0.  1.
</event>
<event>
 7    1  0.7674040E-012  0.5930194E+02  0.7816164E-02  0.1266605E+00
        -11   -1    0    0    0    0  0.00000000000E+00  0.00000000000E+00  0.45593999997E+02  0.45594000000E+02  0.51100000000E-03 0. -1.
         11   -1    0    0    0    0 -0.00000000000E+00 -0.00000000000E+00 -0.45593999997E+02  0.45594000000E+02  0.51100000000E-03 0.  1.
    9900012    2    1    2    0    0  0.23406930144E+02  0.78803141079E-01 -0.21652483833E+02  0.59301942783E+02  0.49999997730E+02 0.  0.
         12    1    1    2    0    0 -0.23406930144E+02 -0.78803141079E-01  0.21652483833E+02  0.31886057217E+02  0.00000000000E+00 0. -1.
         11    1    3    3    0    0 -0.98601107995E+01  0.89381445314E+01  0.44325683786E+01  0.14027112152E+02  0.51100000000E-03 0. -1.
        -11    1    3    3    0    0  0.72455405520E+01  0.42992661764E+00 -0.12573677896E+02  0.14518266800E+02  0.51100000000E-03 0.  1.
         12    1    3    3    0    0  0.26021500391E+02 -0.92892680079E+01 -0.13511374316E+02  0.30756563830E+02  0.00000000000E+00 0. -1.
</event>
<event>
 7    1  0.7674040E-012  0.5930193E+02  0.7816164E-02  0.1266605E+00
        -11   -1    0    0    0    0  0.00000000000E+00  0.00000000000E+00  0.45593999997E+02  0.45594000000E+02  0.51100000000E-03 0.  1.
         11   -1    0    0    0    0 -0.00000000000E+00 -0.00000000000E+00 -0.45593999997E+02  0.45594000000E+02  0.51100000000E-03 0. -1.
    9900012    2    1    2    0    0 -0.26784633201E+02  0.14113793123E+02  0.10005296690E+02  0.59301926333E+02  0.49999967729E+02 0.  0.
         12    1    1    2    0    0  0.26784633201E+02 -0.14113793123E+02 -0.10005296690E+02  0.31886073667E+02  0.00000000000E+00 0. -1.
         11    1    3    3    0    0 -0.11767020187E+02  0.41562020891E+01  0.25155575551E+02  0.28080950153E+02  0.51100000000E-03 0.  1.
        -11    1    3    3    0    0 -0.20063528575E+02  0.93798113254E+01 -0.13183226350E+02  0.25774473741E+02  0.51100000000E-03 0. -1.
         12    1    3    3    0    0  0.50459155611E+01  0.57777970870E+00 -0.19670525121E+01  0.54465024398E+01  0.00000000000E+00 0. -1.
</event>
<event>
 7    1  0.7674040E-012  0.5930199E+02  0.7816164E-02  0.1266605E+00
        -11   -1    0    0    0    0  0.00000000000E+00  0.00000000000E+00  0.45593999997E+02  0.45594000000E+02  0.51100000000E-03 0.  1.
         11   -1    0    0    0    0 -0.00000000000E+00 -0.00000000000E+00 -0.45593999997E+02  0.45594000000E+02  0.51100000000E-03 0. -1.
    9900012    2    1    2    0    0  0.18881128672E+02 -0.36183031210E+01  0.25438715917E+02  0.59301993588E+02  0.50000090386E+02 0.  0.
         12    1    1    2    0    0 -0.18881128672E+02  0.36183031210E+01 -0.25438715917E+02  0.31886006412E+02  0.00000000000E+00 0. -1.
         11    1    3    3    0    0  0.12328812646E+02  0.12045957700E+02  0.10058591274E+02  0.19956953095E+02  0.51100000000E-03 0. -1.
        -11    1    3    3    0    0  0.35599590439E+01 -0.14741034618E+02  0.24993576543E+02  0.29234402315E+02  0.51100000000E-03 0.  1.
         12    1    3    3    0    0  0.29923569817E+01 -0.92322620273E+00 -0.96134519004E+01  0.10110638178E+02  0.00000000000E+00 0. -1.
</event>
<event>
 7    1  0.7674040E-012  0.5930194E+02  0.7816164E-02  0.1266605E+00
        -11   -1    0    0    0    0  0.00000000000E+00  0.00000000000E+00  0.45593999997E+02  0.45594000000E+02  0.51100000000E-03 0.  1.
         11   -1    0    0    0    0 -0.00000000000E+00 -0.00000000000E+00 -0.45593999997E+02  0.45594000000E+02  0.51100000000E-03 0. -1.
    9900012    2    1    2    0    0  0.69721908715E+01  0.30917327675E+02  0.34968982591E+01  0.59301938883E+02  0.49999990618E+02 0.  0.
         12    1    1    2    0    0 -0.69721908715E+01 -0.30917327675E+02 -0.34968982591E+01  0.31886061117E+02  0.00000000000E+00 0. -1.
         11    1    3    3    0    0 -0.37865936332E+01 -0.11536911449E+02 -0.32734941925E+01  0.12575944561E+02  0.51100000000E-03 0. -1.
        -11    1    3    3    0    0  0.10426382486E+02  0.24103908382E+02  0.99790340953E+01  0.28094287191E+02  0.51100000000E-03 0.  1.
         12    1    3    3    0    0  0.33240201922E+00  0.18350330742E+02 -0.32086416437E+01  0.18631707131E+02  0.00000000000E+00 0. -1.
</event>
<event>
 7    1  0.7674040E-012  0.5930194E+02  0.7816164E-02  0.1266605E+00
        -11   -1    0    0    0    0  0.00000000000E+00  0.00000000000E+00  0.45593999997E+02  0.45594000000E+02  0.51100000000E-03 0. -1.
         11   -1    0    0    0    0 -0.00000000000E+00 -0.00000000000E+00 -0.45593999997E+02  0.45594000000E+02  0.51100000000E-03 0.  1.
    9900012    2    1    2    0    0 -0.23595936813E+02 -0.14105126330E+02 -0.16155441869E+02  0.59301935256E+02  0.49999984002E+02 0.  0.
         12    1    1    2    0    0  0.23595936813E+02  0.14105126330E+02  0.16155441869E+02  0.31886064744E+02  0.00000000000E+00 0. -1.
         11    1    3    3    0    0 -0.20190750598E+02 -0.13244260419E+02  0.14190772431E+02  0.28008121432E+02  0.51100000000E-03 0. -1.
        -11    1    3    3    0    0 -0.27095038482E+01 -0.23059570274E+01 -0.66378343565E+01  0.75312478462E+01  0.51100000000E-03 0.  1.
         12    1    3    3    0    0 -0.69568236751E+00  0.14450911162E+01 -0.23708379943E+02  0.23762565977E+02  0.00000000000E+00 0. -1.
</event>
<event>
 7    1  0.7674040E-012  0.5930194E+02  0.7816164E-02  0.1266605E+00
        -11   -1    0    0    0    0  0.00000000000E+00  0.00000000000E+00  0.45593999997E+02  0.45594000000E+02  0.51100000000E-03 0.  1.
         11   -1    0    0    0    0 -0.00000000000E+00 -0.00000000000E+00 -0.45593999997E+02  0.45594000000E+02  0.51100000000E-03 0. -1.
    9900012    2    1    2    0    0 -0.15566030753E+02 -0.74618627522E+01  0.26809323646E+02  0.59301944373E+02  0.50000000629E+02 0.  0.
         12    1    1    2    0    0  0.15566030753E+02  0.74618627522E+01 -0.26809323646E+02  0.31886055627E+02  0.00000000000E+00 0. -1.
         11    1    3    3    0    0  0.13149609521E+02 -0.13948174805E+02  0.11338087075E+02  0.22271417326E+02  0.51100000000E-03 0. -1.
        -11    1    3    3    0    0 -0.25591350929E+02  0.72150884231E+01  0.63151549918E+01  0.27328664917E+02  0.51100000000E-03 0.  1.
        -12    1    3    3    0    0 -0.31242893450E+01 -0.72877637036E+00  0.91560815787E+01  0.97018621297E+01  0.00000000000E+00 0.  1.
</event>
<event>
 7    1  0.7674040E-012  0.5930193E+02  0.7816164E-02  0.1266605E+00
        -11   -1    0    0    0    0  0.00000000000E+00  0.00000000000E+00  0.45593999997E+02  0.45594000000E+02  0.51100000000E-03 0.  1.
         11   -1    0    0    0    0 -0.00000000000E+00 -0.00000000000E+00 -0.45593999997E+02  0.45594000000E+02  0.51100000000E-03 0. -1.
    9900012    2    1    2    0    0  0.21974327366E+02  0.68970128259E+01  0.22051790116E+02  0.59301932565E+02  0.49999979096E+02 0.  0.
         12    1    1    2    0    0 -0.21974327366E+02 -0.68970128259E+01 -0.22051790116E+02  0.31886067435E+02  0.00000000000E+00 0. -1.
         11    1    3    3    0    0 -0.14952300438E+02 -0.44537401600E+01  0.36951677579E+01  0.16033133032E+02  0.51100000000E-03 0. -1.
        -11    1    3    3    0    0  0.22275180682E+02  0.87766536256E+01  0.84192208208E+01  0.25379058351E+02  0.51100000000E-03 0.  1.
         12    1    3    3    0    0  0.14651447122E+02  0.25740993603E+01  0.99374015372E+01  0.17889741183E+02  0.00000000000E+00 0. -1.
</event>
<event>
 7    1  0.7674040E-012  0.5930198E+02  0.7816164E-02  0.1266605E+00
        -11   -1    0    0    0    0  0.00000000000E+00  0.00000000000E+00  0.45593999997E+02  0.45594000000E+02  0.51100000000E-03 0.  1.
         11   -1    0    0    0    0 -0.00000000000E+00 -0.00000000000E+00 -0.45593999997E+02  0.45594000000E+02  0.51100000000E-03 0. -1.
    9900012    2    1    2    0    0  0.31637571437E+02 -0.34179034382E+00 -0.39579769303E+01  0.59301979106E+02  0.50000063974E+02 0.  0.
         12    1    1    2    0    0 -0.31637571437E+02  0.34179034382E+00  0.39579769303E+01  0.31886020894E+02  0.00000000000E+00 0. -1.
         11    1    3    3    0    0 -0.51849913851E+01 -0.11154015104E+02  0.10151593204E+02  0.15948386547E+02  0.51100000000E-03 0. -1.
        -11    1    3    3    0    0  0.29639103574E+02  0.36553871348E+01 -0.62171046375E+01  0.30503945747E+02  0.51100000000E-03 0.  1.
         12    1    3    3    0    0  0.71834592485E+01  0.71568376257E+01 -0.78924654967E+01  0.12849646812E+02  0.00000000000E+00 0. -1.
</event>
<event>
 7    1  0.7674040E-012  0.5930194E+02  0.7816164E-02  0.1266605E+00
        -11   -1    0    0    0    0  0.00000000000E+00  0.00000000000E+00  0.45593999997E+02  0.45594000000E+02  0.51100000000E-03 0. -1.
         11   -1    0    0    0    0 -0.00000000000E+00 -0.00000000000E+00 -0.45593999997E+02  0.45594000000E+02  0.51100000000E-03 0.  1.
    9900012    2    1    2    0    0 -0.13316594833E+01 -0.34849410970E+00 -0.31856330292E+02  0.59301944352E+02  0.50000000591E+02 0.  0.
         12    1    1    2    0    0  0.13316594833E+01  0.34849410970E+00  0.31856330292E+02  0.31886055648E+02  0.00000000000E+00 0. -1.
         11    1    3    3    0    0  0.11544976067E+02  0.16746473751E+02 -0.17725968119E+02  0.26980378083E+02  0.51100000000E-03 0. -1.
        -11    1    3    3    0    0  0.30694180385E+01 -0.11696385690E+02 -0.43461585367E+01  0.12849741616E+02  0.51100000000E-03 0.  1.
        -12    1    3    3    0    0 -0.15946053589E+02 -0.53985821707E+01 -0.97842036366E+01  0.19471824653E+02  0.00000000000E+00 0.  1.
</event>
<event>
 7    1  0.7674040E-012  0.5930193E+02  0.7816164E-02  0.1266605E+00
        -11   -1    0    0    0    0  0.00000000000E+00  0.00000000000E+00  0.45593999997E+02  0.45594000000E+02  0.51100000000E-03 0. -1.
         11   -1    0    0    0    0 -0.00000000000E+00 -0.00000000000E+00 -0.45593999997E+02  0.45594000000E+02  0.51100000000E-03 0.  1.
    9900012    2    1    2    0    0  0.10047278017E+01 -0.36341945275E+00 -0.31868167819E+02  0.59301926680E+02  0.49999968361E+02 0.  0.
         12    1    1    2    0    0 -0.10047278017E+01  0.36341945275E+00  0.31868167819E+02  0.31886073320E+02  0.00000000000E+00 0. -1.
         11    1    3    3    0    0 -0.10241213446E+02  0.10329359804E+02 -0.26018143399E+02  0.29808084692E+02  0.51100000000E-03 0. -1.
        -11    1    3    3    0    0  0.97835062489E+01 -0.52598519178E+01  0.85606157271E+01  0.14023807565E+02  0.51100000000E-03 0.  1.
        -12    1    3    3    0    0  0.14624349991E+01 -0.54329273390E+01 -0.14410640147E+02  0.15470034423E+02  0.00000000000E+00 0.  1.
</event>
<event>
 7    1  0.7674040E-012  0.5930193E+02  0.7816164E-02  0.1266605E+00
        -11   -1    0    0    0    0  0.00000000000E+00  0.00000000000E+00  0.45593999997E+02  0.45594000000E+02  0.51100000000E-03 0.  1.
         11   -1    0    0    0    0 -0.00000000000E+00 -0.00000000000E+00 -0.45593999997E+02  0.45594000000E+02  0.51100000000E-03 0. -1.
    9900012    2    1    2    0    0  0.46823056477E+01 -0.29009200003E+02  0.12379975314E+02  0.59301930004E+02  0.49999974425E+02 0.  0.
         12    1    1    2    0    0 -0.46823056477E+01  0.29009200003E+02 -0.12379975314E+02  0.31886069996E+02  0.00000000000E+00 0. -1.
         11    1    3    3    0    0 -0.45010876684E+01 -0.70315634727E+01 -0.15441377398E+02  0.17553883083E+02  0.51100000000E-03 0. -1.
        -11    1    3    3    0    0  0.35486418560E+01 -0.19663898102E+02  0.29314165665E+02  0.35476500060E+02  0.51100000000E-03 0.  1.
        -12    1    3    3    0    0  0.56347514601E+01 -0.23137384283E+01 -0.14928129529E+01  0.62715468621E+01  0.00000000000E+00 0.  1.
</event>
<event>
 7    1  0.7674040E-012  0.5930196E+02  0.7816164E-02  0.1266605E+00
        -11   -1    0    0    0    0  0.00000000000E+00  0.00000000000E+00  0.45593999997E+02  0.45594000000E+02  0.51100000000E-03 0.  1.
         11   -1    0    0    0    0 -0.00000000000E+00 -0.00000000000E+00 -0.45593999997E+02  0.45594000000E+02  0.51100000000E-03 0. -1.
    9900012    2    1    2    0    0 -0.22672475054E+02 -0.71356474770E+01  0.21254662949E+02  0.59301964074E+02  0.50000036560E+02 0.  0.
         12    1    1    2    0    0  0.22672475054E+02  0.71356474770E+01 -0.21254662949E+02  0.31886035926E+02  0.00000000000E+00 0. -1.
         11    1    3    3    0    0 -0.18831289549E+01 -0.11759576834E+02 -0.90103227939E+01  0.14933845422E+02  0.51100000000E-03 0. -1.
        -11    1    3    3    0    0 -0.23364952443E+02 -0.62908392976E+00  0.30602970834E+02  0.38507902739E+02  0.51100000000E-03 0.  1.
        -12    1    3    3    0    0  0.25756063444E+01  0.52530132866E+01 -0.33798509084E+00  0.58602159134E+01  0.00000000000E+00 0.  1.
</event>
<event>
 7    1  0.7674040E-012  0.5930194E+02  0.7816164E-02  0.1266605E+00
        -11   -1    0    0    0    0  0.00000000000E+00  0.00000000000E+00  0.45593999997E+02  0.45594000000E+02  0.51100000000E-03 0. -1.
         11   -1    0    0    0    0 -0.00000000000E+00 -0.00000000000E+00 -0.45593999997E+02  0.45594000000E+02  0.51100000000E-03 0.  1.
    9900012    2    1    2    0    0  0.18186529226E+02 -0.89280717818E+01 -0.24622355963E+02  0.59301941538E+02  0.49999995460E+02 0.  0.
         12    1    1    2    0    0 -0.18186529226E+02  0.89280717818E+01  0.24622355963E+02  0.31886058462E+02  0.00000000000E+00 0. -1.
         11    1    3    3    0    0  0.52407819464E+01 -0.14809268648E+02 -0.28257494115E+02  0.32330576970E+02  0.51100000000E-03 0. -1.
        -11    1    3    3    0    0  0.16817532501E+02  0.10246865090E+02  0.61297654580E+01  0.20625267718E+02  0.51100000000E-03 0.  1.
         12    1    3    3    0    0 -0.38717852209E+01 -0.43656682247E+01 -0.24946273067E+01  0.63460968512E+01  0.00000000000E+00 0. -1.
</event>
<event>
 7    1  0.7674040E-012  0.5930193E+02  0.7816164E-02  0.1266605E+00
        -11   -1    0    0    0    0  0.00000000000E+00  0.00000000000E+00  0.45593999997E+02  0.45594000000E+02  0.51100000000E-03 0.  1.
         11   -1    0    0    0    0 -0.00000000000E+00 -0.00000000000E+00 -0.45593999997E+02  0.45594000000E+02  0.51100000000E-03 0. -1.
    9900012    2    1    2    0    0  0.30143687367E+02 -0.10325256747E+02 -0.12118421372E+01  0.59301931312E+02  0.49999976810E+02 0.  0.
         12    1    1    2    0    0 -0.30143687367E+02  0.10325256747E+02  0.12118421372E+01  0.31886068688E+02  0.00000000000E+00 0. -1.
         11    1    3    3    0    0  0.17007241899E+02 -0.23720854296E+02  0.26734996155E+01  0.29309943807E+02  0.51100000000E-03 0. -1.
        -11    1    3    3    0    0  0.65431376073E+01  0.17930599682E+02  0.31395823569E+01  0.19343630278E+02  0.51100000000E-03 0.  1.
        -12    1    3    3    0    0  0.65933078613E+01 -0.45350021332E+01 -0.70249241096E+01  0.10648357228E+02  0.00000000000E+00 0.  1.
</event>
<event>
 7    1  0.7674040E-012  0.5930192E+02  0.7816164E-02  0.1266605E+00
        -11   -1    0    0    0    0  0.00000000000E+00  0.00000000000E+00  0.45593999997E+02  0.45594000000E+02  0.51100000000E-03 0. -1.
         11   -1    0    0    0    0 -0.00000000000E+00 -0.00000000000E+00 -0.45593999997E+02  0.45594000000E+02  0.51100000000E-03 0.  1.
    9900012    2    1    2    0    0 -0.20368371800E+02 -0.24482626060E+02 -0.15659680003E+01  0.59301924601E+02  0.49999964570E+02 0.  0.
         12    1    1    2    0    0  0.20368371800E+02  0.24482626060E+02  0.15659680003E+01  0.31886075399E+02  0.00000000000E+00 0. -1.
         11    1    3    3    0    0 -0.82893492991E+01 -0.29401355561E+02 -0.73995997310E+01  0.31430989438E+02  0.51100000000E-03 0. -1.
        -11    1    3    3    0    0 -0.97437979228E+01  0.12622896808E+02 -0.26621724246E+01  0.16166826654E+02  0.51100000000E-03 0.  1.
        -12    1    3    3    0    0 -0.23352245780E+01 -0.77041673079E+01  0.84958041554E+01  0.11704108509E+02  0.00000000000E+00 0.  1.
</event>
<event>
 7    1  0.7674040E-012  0.5930194E+02  0.7816164E-02  0.1266605E+00
        -11   -1    0    0    0    0  0.00000000000E+00  0.00000000000E+00  0.45593999997E+02  0.45594000000E+02  0.51100000000E-03 0. -1.
         11   -1    0    0    0    0 -0.00000000000E+00 -0.00000000000E+00 -0.45593999997E+02  0.45594000000E+02  0.51100000000E-03 0.  1.
    9900012    2    1    2    0    0 -0.29539219848E+02 -0.12005350297E+02 -0.16464238611E+00  0.59301936397E+02  0.49999986083E+02 0.  0.
         12    1    1    2    0    0  0.29539219848E+02  0.12005350297E+02  0.16464238611E+00  0.31886063603E+02  0.00000000000E+00 0. -1.
         11    1    3    3    0    0 -0.49995032672E+01 -0.26955178899E+02  0.90719054795E+00  0.27429905165E+02  0.51100000000E-03 0. -1.
        -11    1    3    3    0    0 -0.15148872341E+02  0.44982880385E+01 -0.61137982968E+01  0.16944068531E+02  0.51100000000E-03 0.  1.
         12    1    3    3    0    0 -0.93908442396E+01  0.10451540564E+02  0.50419653627E+01  0.14927962701E+02  0.00000000000E+00 0. -1.
</event>
<event>
 7    1  0.7674040E-012  0.5930181E+02  0.7816164E-02  0.1266605E+00
        -11   -1    0    0    0    0  0.00000000000E+00  0.00000000000E+00  0.45593999997E+02  0.45594000000E+02  0.51100000000E-03 0.  1.
         11   -1    0    0    0    0 -0.00000000000E+00 -0.00000000000E+00 -0.45593999997E+02  0.45594000000E+02  0.51100000000E-03 0. -1.
    9900012    2    1    2    0    0  0.26303726660E+02  0.13448706253E+02  0.11998977546E+02  0.59301808659E+02  0.49999753120E+02 0.  0.
         12    1    1    2    0    0 -0.26303726660E+02 -0.13448706253E+02 -0.11998977546E+02  0.31886191341E+02  0.00000000000E+00 0. -1.
         11    1    3    3    0    0  0.57883330458E+01 -0.15699884849E+02  0.13672791392E+02  0.21608711401E+02  0.51100000000E-03 0. -1.
        -11    1    3    3    0    0  0.66362147571E+01  0.19609769504E+02  0.52649525891E+00  0.20708925704E+02  0.51100000000E-03 0.  1.
         12    1    3    3    0    0  0.13879178857E+02  0.95388215980E+01 -0.22003091046E+01  0.16984171554E+02  0.00000000000E+00 0. -1.
</event>
<event>
 7    1  0.7674040E-012  0.5930192E+02  0.7816164E-02  0.1266605E+00
        -11   -1    0    0    0    0  0.00000000000E+00  0.00000000000E+00  0.45593999997E+02  0.45594000000E+02  0.51100000000E-03 0. -1.
         11   -1    0    0    0    0 -0.00000000000E+00 -0.00000000000E+00 -0.45593999997E+02  0.45594000000E+02  0.51100000000E-03 0.  1.
    9900012    2    1    2    0    0 -0.14377125784E+01 -0.31712053252E+02 -0.30001317372E+01  0.59301919504E+02  0.49999955275E+02 0.  0.
         12    1    1    2    0    0  0.14377125784E+01  0.31712053252E+02  0.30001317372E+01  0.31886080496E+02  0.00000000000E+00 0. -1.
         11    1    3    3    0    0 -0.12883823070E+02  0.80657141404E+01 -0.71600697600E+01  0.16802239158E+02  0.51100000000E-03 0. -1.
        -11    1    3    3    0    0  0.56654510025E+01 -0.30553398377E+02  0.54117248450E+01  0.31541944352E+02  0.51100000000E-03 0.  1.
         12    1    3    3    0    0  0.57806594894E+01 -0.92243690160E+01 -0.12517868222E+01  0.10957735994E+02  0.00000000000E+00 0. -1.
</event>
<event>
 7    1  0.7674040E-012  0.5930195E+02  0.7816164E-02  0.1266605E+00
        -11   -1    0    0    0    0  0.00000000000E+00  0.00000000000E+00  0.45593999997E+02  0.45594000000E+02  0.51100000000E-03 0. -1.
         11   -1    0    0    0    0 -0.00000000000E+00 -0.00000000000E+00 -0.45593999997E+02  0.45594000000E+02  0.51100000000E-03 0.  1.
    9900012    2    1    2    0    0 -0.11938891492E+02  0.28778928605E+02 -0.67791095893E+01  0.59301949939E+02  0.50000010780E+02 0.  0.
         12    1    1    2    0    0  0.11938891492E+02 -0.28778928605E+02  0.67791095893E+01  0.31886050061E+02  0.00000000000E+00 0. -1.
         11    1    3    3    0    0 -0.22345768903E+01  0.31941400015E+02 -0.12555975788E+02  0.34393297270E+02  0.51100000000E-03 0.  1.
        -11    1    3    3    0    0 -0.16990879456E+01 -0.94083173208E+01 -0.44075136349E+01  0.10527559611E+02  0.51100000000E-03 0. -1.
         12    1    3    3    0    0 -0.80052266563E+01  0.62458459101E+01  0.10184379834E+02  0.14381093058E+02  0.00000000000E+00 0. -1.
</event>
<event>
 7    1  0.7674040E-012  0.5930195E+02  0.7816164E-02  0.1266605E+00
        -11   -1    0    0    0    0  0.00000000000E+00  0.00000000000E+00  0.45593999997E+02  0.45594000000E+02  0.51100000000E-03 0. -1.
         11   -1    0    0    0    0 -0.00000000000E+00 -0.00000000000E+00 -0.45593999997E+02  0.45594000000E+02  0.51100000000E-03 0.  1.
    9900012    2    1    2    0    0  0.31521032218E+02 -0.42217657940E+01 -0.23067872915E+01  0.59301952171E+02  0.50000014852E+02 0.  0.
         12    1    1    2    0    0 -0.31521032218E+02  0.42217657940E+01  0.23067872915E+01  0.31886047829E+02  0.00000000000E+00 0. -1.
         11    1    3    3    0    0  0.70791072590E+01  0.11310480952E+02 -0.10951982490E+02  0.17262290105E+02  0.51100000000E-03 0.  1.
        -11    1    3    3    0    0  0.18214598456E+02 -0.28564018657E+01  0.17459222708E+02  0.25392028008E+02  0.51100000000E-03 0. -1.
        -12    1    3    3    0    0  0.62273265032E+01 -0.12675844880E+02 -0.88140275089E+01  0.16647634058E+02  0.00000000000E+00 0.  1.
</event>
<event>
 7    1  0.7674040E-012  0.5930193E+02  0.7816164E-02  0.1266605E+00
        -11   -1    0    0    0    0  0.00000000000E+00  0.00000000000E+00  0.45593999997E+02  0.45594000000E+02  0.51100000000E-03 0.  1.
         11   -1    0    0    0    0 -0.00000000000E+00 -0.00000000000E+00 -0.45593999997E+02  0.45594000000E+02  0.51100000000E-03 0. -1.
    9900012    2    1    2    0    0  0.17037923850E+02 -0.66305404548E+01  0.26124055946E+02  0.59301933844E+02  0.49999981427E+02 0.  0.
         12    1    1    2    0    0 -0.17037923850E+02  0.66305404548E+01 -0.26124055946E+02  0.31886066156E+02  0.00000000000E+00 0. -1.
         11    1    3    3    0    0  0.26881689646E+01  0.28908200027E+00 -0.38614835019E+01  0.47139024047E+01  0.51100000000E-03 0. -1.
        -11    1    3    3    0    0  0.28285380106E+02 -0.22171222415E+01  0.27794781119E+02  0.39718109428E+02  0.51100000000E-03 0.  1.
        -12    1    3    3    0    0 -0.13935625221E+02 -0.47025002136E+01  0.21907583287E+01  0.14869922011E+02  0.00000000000E+00 0.  1.
</event>
<event>
 7    1  0.7674040E-012  0.5930193E+02  0.7816164E-02  0.1266605E+00
        -11   -1    0    0    0    0  0.00000000000E+00  0.00000000000E+00  0.45593999997E+02  0.45594000000E+02  0.51100000000E-03 0.  1.
         11   -1    0    0    0    0 -0.00000000000E+00 -0.00000000000E+00 -0.45593999997E+02  0.45594000000E+02  0.51100000000E-03 0. -1.
    9900012    2    1    2    0    0 -0.15756619425E+01 -0.25325027696E+02  0.19310138242E+02  0.59301934434E+02  0.49999982502E+02 0.  0.
         12    1    1    2    0    0  0.15756619425E+01  0.25325027696E+02 -0.19310138242E+02  0.31886065566E+02  0.00000000000E+00 0. -1.
         11    1    3    3    0    0 -0.25627334912E+01  0.15145578524E+01  0.41777044705E+01  0.51297858960E+01  0.51100000000E-03 0. -1.
        -11    1    3    3    0    0 -0.18640223368E+02 -0.23510488926E+02  0.14934026609E+01  0.30040493813E+02  0.51100000000E-03 0.  1.
        -12    1    3    3    0    0  0.19627294917E+02 -0.33290966224E+01  0.13639031111E+02  0.24131654724E+02  0.00000000000E+00 0.  1.
</event>
<event>
 7    1  0.7674040E-012  0.5930195E+02  0.7816164E-02  0.1266605E+00
        -11   -1    0    0    0    0  0.00000000000E+00  0.00000000000E+00  0.45593999997E+02  0.45594000000E+02  0.51100000000E-03 0.  1.
         11   -1    0    0    0    0 -0.00000000000E+00 -0.00000000000E+00 -0.45593999997E+02  0.45594000000E+02  0.51100000000E-03 0. -1.
    9900012    2    1    2    0    0 -0.42943310916E+00  0.27178014897E+02 -0.16670071482E+02  0.59301949919E+02  0.50000010744E+02 0.  0.
         12    1    1    2    0    0  0.42943310916E+00 -0.27178014897E+02  0.16670071482E+02  0.31886050081E+02  0.00000000000E+00 0. -1.
         11    1    3    3    0    0 -0.10695817559E+02  0.49158208689E+01  0.86615427951E+01  0.14614654697E+02  0.51100000000E-03 0. -1.
        -11    1    3    3    0    0  0.14496337778E+02  0.87073301348E+00 -0.66468099993E+01  0.15971288877E+02  0.51100000000E-03 0.  1.
         12    1    3    3    0    0 -0.42299533286E+01  0.21391461015E+02 -0.18684804278E+02  0.28716006345E+02  0.00000000000E+00 0. -1.
</event>
<event>
 7    1  0.7674040E-012  0.5930200E+02  0.7816164E-02  0.1266605E+00
        -11   -1    0    0    0    0  0.00000000000E+00  0.00000000000E+00  0.45593999997E+02  0.45594000000E+02  0.51100000000E-03 0. -1.
         11   -1    0    0    0    0 -0.00000000000E+00 -0.00000000000E+00 -0.45593999997E+02  0.45594000000E+02  0.51100000000E-03 0.  1.
    9900012    2    1    2    0    0 -0.39681485347E+01 -0.54161715697E+01 -0.31171073122E+02  0.59302001242E+02  0.50000104345E+02 0.  0.
         12    1    1    2    0    0  0.39681485347E+01  0.54161715697E+01  0.31171073122E+02  0.31885998758E+02  0.00000000000E+00 0. -1.
         11    1    3    3    0    0  0.52978167431E+01  0.15764058134E+02 -0.14364380688E+02  0.21975163797E+02  0.51100000000E-03 0.  1.
        -11    1    3    3    0    0 -0.10639160958E+02 -0.11686574936E+02 -0.21471154618E+02  0.26660424988E+02  0.51100000000E-03 0. -1.
         12    1    3    3    0    0  0.13731956805E+01 -0.94936547684E+01  0.46644621842E+01  0.10666412457E+02  0.00000000000E+00 0. -1.
</event>
<event>
 7    1  0.7674040E-012  0.5930193E+02  0.7816164E-02  0.1266605E+00
        -11   -1    0    0    0    0  0.00000000000E+00  0.00000000000E+00  0.45593999997E+02  0.45594000000E+02  0.51100000000E-03 0. -1.
         11   -1    0    0    0    0 -0.00000000000E+00 -0.00000000000E+00 -0.45593999997E+02  0.45594000000E+02  0.51100000000E-03 0.  1.
    9900012    2    1    2    0    0 -0.11810600080E+02 -0.16667065194E+02 -0.24483470313E+02  0.59301926943E+02  0.49999968841E+02 0.  0.
         12    1    1    2    0    0  0.11810600080E+02  0.16667065194E+02  0.24483470313E+02  0.31886073057E+02  0.00000000000E+00 0. -1.
         11    1    3    3    0    0  0.14064497340E+01  0.54567628846E+01 -0.21302361870E+02  0.22035085286E+02  0.51100000000E-03 0. -1.
        -11    1    3    3    0    0 -0.19322547088E+02 -0.72450146214E+01 -0.45302197597E+01  0.21127563848E+02  0.51100000000E-03 0.  1.
         12    1    3    3    0    0  0.61054972740E+01 -0.14878813457E+02  0.13491113167E+01  0.16139277809E+02  0.00000000000E+00 0. -1.
</event>
<event>
 7    1  0.7674040E-012  0.5930195E+02  0.7816164E-02  0.1266605E+00
        -11   -1    0    0    0    0  0.00000000000E+00  0.00000000000E+00  0.45593999997E+02  0.45594000000E+02  0.51100000000E-03 0.  1.
         11   -1    0    0    0    0 -0.00000000000E+00 -0.00000000000E+00 -0.45593999997E+02  0.45594000000E+02  0.51100000000E-03 0. -1.
    9900012    2    1    2    0    0 -0.29433542184E+02 -0.30488200895E+01  0.11878188035E+02  0.59301951948E+02  0.50000014444E+02 0.  0.
         12    1    1    2    0    0  0.29433542184E+02  0.30488200895E+01 -0.11878188035E+02  0.31886048052E+02  0.00000000000E+00 0. -1.
         11    1    3    3    0    0 -0.37097160680E+02 -0.93357390787E+01  0.31598268335E+01  0.38384109479E+02  0.51100000000E-03 0.  1.
        -11    1    3    3    0    0 -0.51067535895E+00  0.48053973375E+01 -0.36237994599E+01  0.60402446705E+01  0.51100000000E-03 0. -1.
         12    1    3    3    0    0  0.81742938552E+01  0.14815216517E+01  0.12342160661E+02  0.14877597798E+02  0.00000000000E+00 0. -1.
</event>
<event>
 7    1  0.7674040E-012  0.5930198E+02  0.7816164E-02  0.1266605E+00
        -11   -1    0    0    0    0  0.00000000000E+00  0.00000000000E+00  0.45593999997E+02  0.45594000000E+02  0.51100000000E-03 0. -1.
         11   -1    0    0    0    0 -0.00000000000E+00 -0.00000000000E+00 -0.45593999997E+02  0.45594000000E+02  0.51100000000E-03 0.  1.
    9900012    2    1    2    0    0 -0.15346379463E+02 -0.25007327239E+02 -0.12483608554E+02  0.59301980167E+02  0.50000065909E+02 0.  0.
         12    1    1    2    0    0  0.15346379463E+02  0.25007327239E+02  0.12483608554E+02  0.31886019833E+02  0.00000000000E+00 0. -1.
         11    1    3    3    0    0  0.22988394732E+01 -0.82297645678E+01  0.39986509633E+01  0.94341347007E+01  0.51100000000E-03 0. -1.
        -11    1    3    3    0    0 -0.41110645786E+01 -0.18908492699E+02 -0.26558893380E+02  0.32860413356E+02  0.51100000000E-03 0.  1.
         12    1    3    3    0    0 -0.13534154358E+02  0.21309300272E+01  0.10076633863E+02  0.17007432110E+02  0.00000000000E+00 0. -1.
</event>
<event>
 7    1  0.7674040E-012  0.5930194E+02  0.7816164E-02  0.1266605E+00
        -11   -1    0    0    0    0  0.00000000000E+00  0.00000000000E+00  0.45593999997E+02  0.45594000000E+02  0.51100000000E-03 0.  1.
         11   -1    0    0    0    0 -0.00000000000E+00 -0.00000000000E+00 -0.45593999997E+02  0.45594000000E+02  0.51100000000E-03 0. -1.
    9900012    2    1    2    0    0 -0.23793468829E+02  0.18775599548E+02 -0.99029471080E+01  0.59301942565E+02  0.49999997333E+02 0.  0.
         12    1    1    2    0    0  0.23793468829E+02 -0.18775599548E+02  0.99029471080E+01  0.31886057435E+02  0.00000000000E+00 0. -1.
         11    1    3    3    0    0 -0.85013453220E+00  0.94960633991E+01 -0.18648539651E+02  0.20944354375E+02  0.51100000000E-03 0. -1.
        -11    1    3    3    0    0 -0.17129461629E+02 -0.73434515287E+01  0.91075966260E+01  0.20743506276E+02  0.51100000000E-03 0.  1.
        -12    1    3    3    0    0 -0.58138726677E+01  0.16622987678E+02 -0.36200408255E+00  0.17614081914E+02  0.00000000000E+00 0.  1.
</event>
<event>
 7    1  0.7674040E-012  0.5930194E+02  0.7816164E-02  0.1266605E+00
        -11   -1    0    0    0    0  0.00000000000E+00  0.00000000000E+00  0.45593999997E+02  0.45594000000E+02  0.51100000000E-03 0. -1.
         11   -1    0    0    0    0 -0.00000000000E+00 -0.00000000000E+00 -0.45593999997E+02  0.45594000000E+02  0.51100000000E-03 0.  1.
    9900012    2    1    2    0    0 -0.30435609297E+02  0.63554546479E+01 -0.70712809535E+01  0.59301935154E+02  0.49999983816E+02 0.  0.
         12    1    1    2    0    0  0.30435609297E+02 -0.63554546479E+01  0.70712809535E+01  0.31886064846E+02  0.00000000000E+00 0. -1.
         11    1    3    3    0    0 -0.23040712793E+01 -0.42931449019E+01  0.80256188497E+01  0.93888442202E+01  0.51100000000E-03 0. -1.
        -11    1    3    3    0    0 -0.29632226103E+02  0.14827504171E+02 -0.23353871532E+02  0.40537970097E+02  0.51100000000E-03 0.  1.
        -12    1    3    3    0    0  0.15006880853E+01 -0.41789046216E+01  0.82569717288E+01  0.93751208364E+01  0.00000000000E+00 0.  1.
</event>
<event>
 7    1  0.7674040E-012  0.5930188E+02  0.7816164E-02  0.1266605E+00
        -11   -1    0    0    0    0  0.00000000000E+00  0.00000000000E+00  0.45593999997E+02  0.45594000000E+02  0.51100000000E-03 0.  1.
         11   -1    0    0    0    0 -0.00000000000E+00 -0.00000000000E+00 -0.45593999997E+02  0.45594000000E+02  0.51100000000E-03 0. -1.
    9900012    2    1    2    0    0 -0.14068630731E+02 -0.10435914145E+02  0.26643754858E+02  0.59301884720E+02  0.49999891837E+02 0.  0.
         12    1    1    2    0    0  0.14068630731E+02  0.10435914145E+02 -0.26643754858E+02  0.31886115280E+02  0.00000000000E+00 0. -1.
         11    1    3    3    0    0 -0.16361965153E+02 -0.24498604705E+02  0.85743868163E+01  0.30682497384E+02  0.51100000000E-03 0. -1.
        -11    1    3    3    0    0 -0.57095563336E+01  0.12805698913E+02  0.10326939091E+02  0.17413518583E+02  0.51100000000E-03 0.  1.
         12    1    3    3    0    0  0.80028907560E+01  0.12569916473E+01  0.77424289514E+01  0.11205868754E+02  0.00000000000E+00 0. -1.
</event>
<event>
 7    1  0.7674040E-012  0.5930195E+02  0.7816164E-02  0.1266605E+00
        -11   -1    0    0    0    0  0.00000000000E+00  0.00000000000E+00  0.45593999997E+02  0.45594000000E+02  0.51100000000E-03 0.  1.
         11   -1    0    0    0    0 -0.00000000000E+00 -0.00000000000E+00 -0.45593999997E+02  0.45594000000E+02  0.51100000000E-03 0. -1.
    9900012    2    1    2    0    0  0.82275918513E+01 -0.17577465102E+02  0.25299404248E+02  0.59301946585E+02  0.50000004664E+02 0.  0.
         12    1    1    2    0    0 -0.82275918513E+01  0.17577465102E+02 -0.25299404248E+02  0.31886053415E+02  0.00000000000E+00 0. -1.
         11    1    3    3    0    0  0.10265904311E+01  0.11808683619E+02 -0.17325608045E+00  0.11854489220E+02  0.51100000000E-03 0. -1.
        -11    1    3    3    0    0 -0.48005793611E+01 -0.27385600796E+02  0.18896057968E+02  0.33616628328E+02  0.51100000000E-03 0.  1.
        -12    1    3    3    0    0  0.12001580781E+02 -0.20005479246E+01  0.65766023603E+01  0.13830829037E+02  0.00000000000E+00 0.  1.
</event>
<event>
 7    1  0.7674040E-012  0.5930200E+02  0.7816164E-02  0.1266605E+00
        -11   -1    0    0    0    0  0.00000000000E+00  0.00000000000E+00  0.45593999997E+02  0.45594000000E+02  0.51100000000E-03 0.  1.
         11   -1    0    0    0    0 -0.00000000000E+00 -0.00000000000E+00 -0.45593999997E+02  0.45594000000E+02  0.51100000000E-03 0. -1.
    9900012    2    1    2    0    0  0.13931403926E+02  0.27666785821E+02  0.75618727863E+01  0.59302000359E+02  0.50000102735E+02 0.  0.
         12    1    1    2    0    0 -0.13931403926E+02 -0.27666785821E+02 -0.75618727863E+01  0.31885999641E+02  0.00000000000E+00 0. -1.
         11    1    3    3    0    0  0.26564650543E+02  0.28818957943E+02  0.31471108160E+01  0.39320698139E+02  0.51100000000E-03 0. -1.
        -11    1    3    3    0    0 -0.14599090007E+02  0.29720908585E+01  0.37611572963E+01  0.15365970766E+02  0.51100000000E-03 0.  1.
         12    1    3    3    0    0  0.19658433901E+01 -0.41242629802E+01  0.65360467409E+00  0.46153314544E+01  0.00000000000E+00 0. -1.
</event>
<event>
 7    1  0.7674040E-012  0.5930196E+02  0.7816164E-02  0.1266605E+00
        -11   -1    0    0    0    0  0.00000000000E+00  0.00000000000E+00  0.45593999997E+02  0.45594000000E+02  0.51100000000E-03 0.  1.
         11   -1    0    0    0    0 -0.00000000000E+00 -0.00000000000E+00 -0.45593999997E+02  0.45594000000E+02  0.51100000000E-03 0. -1.
    9900012    2    1    2    0    0  0.63995948829E+01  0.37312966952E+01  0.31013580207E+02  0.59301959999E+02  0.50000029127E+02 0.  0.
         12    1    1    2    0    0 -0.63995948829E+01 -0.37312966952E+01 -0.31013580207E+02  0.31886040001E+02  0.00000000000E+00 0. -1.
         11    1    3    3    0    0 -0.28950126983E+01 -0.23981753104E+00 -0.59509831971E+01  0.66221455922E+01  0.51100000000E-03 0. -1.
        -11    1    3    3    0    0 -0.92646826500E+01  0.17938486153E+01  0.31975167333E+02  0.33338619702E+02  0.51100000000E-03 0.  1.
        -12    1    3    3    0    0  0.18559290231E+02  0.21772656109E+01  0.49893960717E+01  0.19341194704E+02  0.00000000000E+00 0.  1.
</event>
<event>
 7    1  0.7674040E-012  0.5930193E+02  0.7816164E-02  0.1266605E+00
        -11   -1    0    0    0    0  0.00000000000E+00  0.00000000000E+00  0.45593999997E+02  0.45594000000E+02  0.51100000000E-03 0.  1.
         11   -1    0    0    0    0 -0.00000000000E+00 -0.00000000000E+00 -0.45593999997E+02  0.45594000000E+02  0.51100000000E-03 0. -1.
    9900012    2    1    2    0    0 -0.21933448962E+02 -0.22919746133E+02 -0.32140646003E+01  0.59301934745E+02  0.49999983070E+02 0.  0.
         12    1    1    2    0    0  0.21933448962E+02  0.22919746133E+02  0.32140646003E+01  0.31886065255E+02  0.00000000000E+00 0. -1.
         11    1    3    3    0    0 -0.52066907655E+01 -0.29663150542E+01 -0.15140406341E+02  0.16283137233E+02  0.51100000000E-03 0. -1.
        -11    1    3    3    0    0 -0.96494647931E+01 -0.15688386789E+01  0.19579639995E+02  0.21884600252E+02  0.51100000000E-03 0.  1.
        -12    1    3    3    0    0 -0.70772934038E+01 -0.18384592400E+02 -0.76532982545E+01  0.21134197260E+02  0.00000000000E+00 0.  1.
</event>
<event>
 7    1  0.7674040E-012  0.5930198E+02  0.7816164E-02  0.1266605E+00
        -11   -1    0    0    0    0  0.00000000000E+00  0.00000000000E+00  0.45593999997E+02  0.45594000000E+02  0.51100000000E-03 0. -1.
         11   -1    0    0    0    0 -0.00000000000E+00 -0.00000000000E+00 -0.45593999997E+02  0.45594000000E+02  0.51100000000E-03 0.  1.
    9900012    2    1    2    0    0 -0.20736389432E+02  0.12001594215E+02 -0.21040019482E+02  0.59301975943E+02  0.50000058205E+02 0.  0.
         12    1    1    2    0    0  0.20736389432E+02 -0.12001594215E+02  0.21040019482E+02  0.31886024057E+02  0.00000000000E+00 0. -1.
         11    1    3    3    0    0 -0.16342856520E+02 -0.13520150832E+02  0.50321154189E+01  0.21799211537E+02  0.51100000000E-03 0. -1.
        -11    1    3    3    0    0 -0.13643372560E+01  0.12286984259E+01 -0.45492452556E+01  0.49057872586E+01  0.51100000000E-03 0.  1.
         12    1    3    3    0    0 -0.30291956556E+01  0.24293046621E+02 -0.21522889646E+02  0.32596977147E+02  0.00000000000E+00 0. -1.
</event>
<event>
 7    1  0.7674040E-012  0.5930212E+02  0.7816164E-02  0.1266604E+00
        -11   -1    0    0    0    0  0.00000000000E+00  0.00000000000E+00  0.45593999997E+02  0.45594000000E+02  0.51100000000E-03 0.  1.
         11   -1    0    0    0    0 -0.00000000000E+00 -0.00000000000E+00 -0.45593999997E+02  0.45594000000E+02  0.51100000000E-03 0. -1.
    9900012    2    1    2    0    0 -0.56127275963E+01  0.18378808060E+02  0.25444567279E+02  0.59302120668E+02  0.50000322148E+02 0.  0.
         12    1    1    2    0    0  0.56127275963E+01 -0.18378808060E+02 -0.25444567279E+02  0.31885879332E+02  0.00000000000E+00 0. -1.
         11    1    3    3    0    0 -0.14059507737E+01  0.54004289993E+01  0.22142575675E+01  0.60036878492E+01  0.51100000000E-03 0. -1.
        -11    1    3    3    0    0 -0.83965334909E+01 -0.11352098432E+02 -0.57340483150E+01  0.15239790806E+02  0.51100000000E-03 0.  1.
        -12    1    3    3    0    0  0.41897566684E+01  0.24330477492E+02  0.28964358026E+02  0.38058642013E+02  0.00000000000E+00 0.  1.
</event>
<event>
 7    1  0.7674040E-012  0.5930199E+02  0.7816164E-02  0.1266605E+00
        -11   -1    0    0    0    0  0.00000000000E+00  0.00000000000E+00  0.45593999997E+02  0.45594000000E+02  0.51100000000E-03 0. -1.
         11   -1    0    0    0    0 -0.00000000000E+00 -0.00000000000E+00 -0.45593999997E+02  0.45594000000E+02  0.51100000000E-03 0.  1.
    9900012    2    1    2    0    0  0.25502490702E+02  0.18409202907E+02 -0.52385004430E+01  0.59301989422E+02  0.50000082788E+02 0.  0.
         12    1    1    2    0    0 -0.25502490702E+02 -0.18409202907E+02  0.52385004430E+01  0.31886010578E+02  0.00000000000E+00 0. -1.
         11    1    3    3    0    0 -0.32862444113E+01 -0.10223610323E+02  0.10974238529E+02  0.15354332350E+02  0.51100000000E-03 0. -1.
        -11    1    3    3    0    0  0.56227392007E+01  0.73558787052E+01 -0.22187074043E+01  0.95208618544E+01  0.51100000000E-03 0.  1.
         12    1    3    3    0    0  0.23165995913E+02  0.21276934525E+02 -0.13994031568E+02  0.34426795217E+02  0.00000000000E+00 0. -1.
</event>
<event>
 7    1  0.7674040E-012  0.5930194E+02  0.7816164E-02  0.1266605E+00
        -11   -1    0    0    0    0  0.00000000000E+00  0.00000000000E+00  0.45593999997E+02  0.45594000000E+02  0.51100000000E-03 0.  1.
         11   -1    0    0    0    0 -0.00000000000E+00 -0.00000000000E+00 -0.45593999997E+02  0.45594000000E+02  0.51100000000E-03 0. -1.
    9900012    2    1    2    0    0  0.13399030286E+02  0.12713754749E+02  0.25991294643E+02  0.59301937690E+02  0.49999988441E+02 0.  0.
         12    1    1    2    0    0 -0.13399030286E+02 -0.12713754749E+02 -0.25991294643E+02  0.31886062310E+02  0.00000000000E+00 0. -1.
         11    1    3    3    0    0  0.34557288036E+01  0.12341896217E+02 -0.74125621893E+01  0.14805760442E+02  0.51100000000E-03 0. -1.
        -11    1    3    3    0    0  0.97504497888E+01 -0.25458151528E+01  0.37853411355E+02  0.39171841894E+02  0.51100000000E-03 0.  1.
        -12    1    3    3    0    0  0.19285169409E+00  0.29176736841E+01 -0.44495545230E+01  0.53243353534E+01  0.00000000000E+00 0.  1.
</event>
<event>
 7    1  0.7674040E-012  0.5930194E+02  0.7816164E-02  0.1266605E+00
        -11   -1    0    0    0    0  0.00000000000E+00  0.00000000000E+00  0.45593999997E+02  0.45594000000E+02  0.51100000000E-03 0. -1.
         11   -1    0    0    0    0 -0.00000000000E+00 -0.00000000000E+00 -0.45593999997E+02  0.45594000000E+02  0.51100000000E-03 0.  1.
    9900012    2    1    2    0    0 -0.62340487993E+01  0.15580490804E+02 -0.27112831994E+02  0.59301941654E+02  0.49999995671E+02 0.  0.
         12    1    1    2    0    0  0.62340487993E+01 -0.15580490804E+02  0.27112831994E+02  0.31886058346E+02  0.00000000000E+00 0. -1.
         11    1    3    3    0    0 -0.13418726415E+02  0.10937149265E+02  0.62083350093E+01  0.18390945503E+02  0.51100000000E-03 0. -1.
        -11    1    3    3    0    0 -0.54913177224E+01 -0.23519487707E+01 -0.21210009700E+02  0.22035216020E+02  0.51100000000E-03 0.  1.
         12    1    3    3    0    0  0.12675995338E+02  0.69952903092E+01 -0.12111157303E+02  0.18875780131E+02  0.00000000000E+00 0. -1.
</event>
<event>
 7    1  0.7674040E-012  0.5930201E+02  0.7816164E-02  0.1266605E+00
        -11   -1    0    0    0    0  0.00000000000E+00  0.00000000000E+00  0.45593999997E+02  0.45594000000E+02  0.51100000000E-03 0.  1.
         11   -1    0    0    0    0 -0.00000000000E+00 -0.00000000000E+00 -0.45593999997E+02  0.45594000000E+02  0.51100000000E-03 0. -1.
    9900012    2    1    2    0    0  0.76945637711E+01 -0.22561783588E+02  0.21177248924E+02  0.59302011505E+02  0.50000123062E+02 0.  0.
         12    1    1    2    0    0 -0.76945637711E+01  0.22561783588E+02 -0.21177248924E+02  0.31885988495E+02  0.00000000000E+00 0. -1.
         11    1    3    3    0    0 -0.83922205177E+01  0.10316843063E+01  0.64322469232E+01  0.10623913519E+02  0.51100000000E-03 0. -1.
        -11    1    3    3    0    0  0.23394961420E+02 -0.27498155243E+02  0.59427981804E+01  0.36589474062E+02  0.51100000000E-03 0.  1.
        -12    1    3    3    0    0 -0.73081771314E+01  0.39046873491E+01  0.88022038208E+01  0.12088623924E+02  0.00000000000E+00 0.  1.
</event>
<event>
 7    1  0.7674040E-012  0.5930197E+02  0.7816164E-02  0.1266605E+00
        -11   -1    0    0    0    0  0.00000000000E+00  0.00000000000E+00  0.45593999997E+02  0.45594000000E+02  0.51100000000E-03 0.  1.
         11   -1    0    0    0    0 -0.00000000000E+00 -0.00000000000E+00 -0.45593999997E+02  0.45594000000E+02  0.51100000000E-03 0. -1.
    9900012    2    1    2    0    0  0.82889179638E+01  0.85715476242E+01  0.29572647702E+02  0.59301967293E+02  0.50000042430E+02 0.  0.
         12    1    1    2    0    0 -0.82889179638E+01 -0.85715476242E+01 -0.29572647702E+02  0.31886032707E+02  0.00000000000E+00 0. -1.
         11    1    3    3    0    0 -0.13702339773E+02 -0.88825188664E+01  0.13659436894E+01  0.16386551165E+02  0.51100000000E-03 0. -1.
        -11    1    3    3    0    0  0.18288186043E+01  0.10887053012E+02  0.80904474683E+01  0.13686776146E+02  0.51100000000E-03 0.  1.
         12    1    3    3    0    0  0.20162439133E+02  0.65670134783E+01  0.20116256544E+02  0.29228639981E+02  0.00000000000E+00 0. -1.
</event>
<event>
 7    1  0.7674040E-012  0.5930193E+02  0.7816164E-02  0.1266605E+00
        -11   -1    0    0    0    0  0.00000000000E+00  0.00000000000E+00  0.45593999997E+02  0.45594000000E+02  0.51100000000E-03 0.  1.
         11   -1    0    0    0    0 -0.00000000000E+00 -0.00000000000E+00 -0.45593999997E+02  0.45594000000E+02  0.51100000000E-03 0. -1.
    9900012    2    1    2    0    0  0.22695161951E+02 -0.20433929391E+02  0.91709009603E+01  0.59301932968E+02  0.49999979830E+02 0.  0.
         12    1    1    2    0    0 -0.22695161951E+02  0.20433929391E+02 -0.91709009603E+01  0.31886067032E+02  0.00000000000E+00 0. -1.
         11    1    3    3    0    0 -0.30963402299E+01 -0.21387068114E+02 -0.27322647580E+01  0.21782086133E+02  0.51100000000E-03 0. -1.
        -11    1    3    3    0    0  0.15398090423E+02 -0.10600298787E+02  0.11552190709E+02  0.21975455251E+02  0.51100000000E-03 0.  1.
         12    1    3    3    0    0  0.10393411758E+02  0.11553437510E+02  0.35097500963E+00  0.15544391584E+02  0.00000000000E+00 0. -1.
</event>
<event>
 7    1  0.7674040E-012  0.5930196E+02  0.7816164E-02  0.1266605E+00
        -11   -1    0    0    0    0  0.00000000000E+00  0.00000000000E+00  0.45593999997E+02  0.45594000000E+02  0.51100000000E-03 0.  1.
         11   -1    0    0    0    0 -0.00000000000E+00 -0.00000000000E+00 -0.45593999997E+02  0.45594000000E+02  0.51100000000E-03 0. -1.
    9900012    2    1    2    0    0  0.15814502166E+01  0.50848961623E+01  0.31438229881E+02  0.59301961491E+02  0.50000031848E+02 0.  0.
         12    1    1    2    0    0 -0.15814502166E+01 -0.50848961623E+01 -0.31438229881E+02  0.31886038509E+02  0.00000000000E+00 0. -1.
         11    1    3    3    0    0 -0.11044368466E+02 -0.10332818065E+02 -0.23995977002E+01  0.15313499710E+02  0.51100000000E-03 0.  1.
        -11    1    3    3    0    0 -0.24187520131E+01  0.74128348553E+01  0.22812071955E+01  0.81243084889E+01  0.51100000000E-03 0. -1.
         12    1    3    3    0    0  0.15044570695E+02  0.80048793723E+01  0.31556620386E+02  0.35864153292E+02  0.00000000000E+00 0. -1.
</event>
<event>
 7    1  0.7674040E-012  0.5930206E+02  0.7816164E-02  0.1266604E+00
        -11   -1    0    0    0    0  0.00000000000E+00  0.00000000000E+00  0.45593999997E+02  0.45594000000E+02  0.51100000000E-03 0.  1.
         11   -1    0    0    0    0 -0.00000000000E+00 -0.00000000000E+00 -0.45593999997E+02  0.45594000000E+02  0.51100000000E-03 0. -1.
    9900012    2    1    2    0    0  0.28963080635E+02  0.12086966149E+02 -0.56354366681E+01  0.59302063649E+02  0.50000218160E+02 0.  0.
         12    1    1    2    0    0 -0.28963080635E+02 -0.12086966149E+02  0.56354366681E+01  0.31885936351E+02  0.00000000000E+00 0. -1.
         11    1    3    3    0    0  0.15890027599E+02  0.15609505225E+00 -0.71965079834E+00  0.15907081451E+02  0.51100000000E-03 0. -1.
        -11    1    3    3    0    0 -0.13072668001E+02  0.97648901710E+01  0.15021366512E+01  0.16386096042E+02  0.51100000000E-03 0.  1.
        -12    1    3    3    0    0  0.26145721037E+02  0.21659809255E+01 -0.64179225210E+01  0.27008886156E+02  0.00000000000E+00 0.  1.
</event>
<event>
 7    1  0.7674040E-012  0.5930195E+02  0.7816164E-02  0.1266605E+00
        -11   -1    0    0    0    0  0.00000000000E+00  0.00000000000E+00  0.45593999997E+02  0.45594000000E+02  0.51100000000E-03 0. -1.
         11   -1    0    0    0    0 -0.00000000000E+00 -0.00000000000E+00 -0.45593999997E+02  0.45594000000E+02  0.51100000000E-03 0.  1.
    9900012    2    1    2    0    0  0.35678212302E+01 -0.92060756610E+01 -0.30318957681E+02  0.59301947057E+02  0.50000005526E+02 0.  0.
         12    1    1    2    0    0 -0.35678212302E+01  0.92060756610E+01  0.30318957681E+02  0.31886052943E+02  0.00000000000E+00 0. -1.
         11    1    3    3    0    0  0.71626172956E+01 -0.27767138279E+02 -0.20780511914E+02  0.35413934127E+02  0.51100000000E-03 0. -1.
        -11    1    3    3    0    0 -0.34097000837E+00  0.16747385449E+02 -0.40142055604E+01  0.17225127764E+02  0.51100000000E-03 0.  1.
         12    1    3    3    0    0 -0.32538260570E+01  0.18136771684E+01 -0.55242402068E+01  0.66628851665E+01  0.00000000000E+00 0. -1.
</event>
<event>
 7    1  0.7674040E-012  0.5930196E+02  0.7816164E-02  0.1266605E+00
        -11   -1    0    0    0    0  0.00000000000E+00  0.00000000000E+00  0.45593999997E+02  0.45594000000E+02  0.51100000000E-03 0.  1.
         11   -1    0    0    0    0 -0.00000000000E+00 -0.00000000000E+00 -0.45593999997E+02  0.45594000000E+02  0.51100000000E-03 0. -1.
    9900012    2    1    2    0    0  0.29674598443E+02 -0.10539392486E+02  0.50058714053E+01  0.59301963318E+02  0.50000035182E+02 0.  0.
         12    1    1    2    0    0 -0.29674598443E+02  0.10539392486E+02 -0.50058714053E+01  0.31886036682E+02  0.00000000000E+00 0. -1.
         11    1    3    3    0    0  0.16647632533E+02  0.77892227955E+01 -0.63686056461E+01  0.19451858493E+02  0.51100000000E-03 0. -1.
        -11    1    3    3    0    0 -0.95000924443E+01 -0.10928449191E+02  0.44086781156E+01  0.15136683955E+02  0.51100000000E-03 0.  1.
         12    1    3    3    0    0  0.22527058355E+02 -0.74001660900E+01  0.69657989358E+01  0.24713420870E+02  0.00000000000E+00 0. -1.
</event>
<event>
 7    1  0.7674040E-012  0.5930198E+02  0.7816164E-02  0.1266605E+00
        -11   -1    0    0    0    0  0.00000000000E+00  0.00000000000E+00  0.45593999997E+02  0.45594000000E+02  0.51100000000E-03 0. -1.
         11   -1    0    0    0    0 -0.00000000000E+00 -0.00000000000E+00 -0.45593999997E+02  0.45594000000E+02  0.51100000000E-03 0.  1.
    9900012    2    1    2    0    0  0.37012321675E+01  0.51948317502E+01 -0.31241520397E+02  0.59301984363E+02  0.50000073562E+02 0.  0.
         12    1    1    2    0    0 -0.37012321675E+01 -0.51948317502E+01  0.31241520397E+02  0.31886015637E+02  0.00000000000E+00 0. -1.
         11    1    3    3    0    0  0.22475831153E+02  0.55174998880E+01 -0.27997195752E+01  0.23311890121E+02  0.51100000000E-03 0. -1.
        -11    1    3    3    0    0 -0.35940160962E+01  0.50804371159E+00 -0.15817680662E+02  0.16228804080E+02  0.51100000000E-03 0.  1.
         12    1    3    3    0    0 -0.15180582889E+02 -0.83071184941E+00 -0.12624120161E+02  0.19761290162E+02  0.00000000000E+00 0. -1.
</event>
<event>
 7    1  0.7674040E-012  0.5930195E+02  0.7816164E-02  0.1266605E+00
        -11   -1    0    0    0    0  0.00000000000E+00  0.00000000000E+00  0.45593999997E+02  0.45594000000E+02  0.51100000000E-03 0. -1.
         11   -1    0    0    0    0 -0.00000000000E+00 -0.00000000000E+00 -0.45593999997E+02  0.45594000000E+02  0.51100000000E-03 0.  1.
    9900012    2    1    2    0    0 -0.22717934414E+02 -0.14626085113E+02 -0.16932013667E+02  0.59301952948E+02  0.50000016269E+02 0.  0.
         12    1    1    2    0    0  0.22717934414E+02  0.14626085113E+02  0.16932013667E+02  0.31886047052E+02  0.00000000000E+00 0. -1.
         11    1    3    3    0    0  0.95870819761E+00 -0.15459527143E+02  0.36029621954E+01  0.15902749376E+02  0.51100000000E-03 0. -1.
        -11    1    3    3    0    0 -0.25243127450E+02 -0.10093715537E+02 -0.14192342168E+02  0.30667917329E+02  0.51100000000E-03 0.  1.
         12    1    3    3    0    0  0.15664848388E+01  0.10927157567E+02 -0.63426336943E+01  0.12731286244E+02  0.00000000000E+00 0. -1.
</event>
<event>
 7    1  0.7674040E-012  0.5930195E+02  0.7816164E-02  0.1266605E+00
        -11   -1    0    0    0    0  0.00000000000E+00  0.00000000000E+00  0.45593999997E+02  0.45594000000E+02  0.51100000000E-03 0.  1.
         11   -1    0    0    0    0 -0.00000000000E+00 -0.00000000000E+00 -0.45593999997E+02  0.45594000000E+02  0.51100000000E-03 0. -1.
    9900012    2    1    2    0    0 -0.31380186114E+02  0.32828875698E+01 -0.46072353960E+01  0.59301952121E+02  0.50000014761E+02 0.  0.
         12    1    1    2    0    0  0.31380186114E+02 -0.32828875698E+01  0.46072353960E+01  0.31886047879E+02  0.00000000000E+00 0. -1.
         11    1    3    3    0    0  0.18794853568E+01 -0.10484018748E+01 -0.94871049403E+01  0.97281433021E+01  0.51100000000E-03 0. -1.
        -11    1    3    3    0    0 -0.23069213056E+02  0.19154119313E+02  0.86248660045E+01  0.31200275504E+02  0.51100000000E-03 0.  1.
         12    1    3    3    0    0 -0.10190458415E+02 -0.14822829868E+02 -0.37449964601E+01  0.18373533315E+02  0.00000000000E+00 0. -1.
</event>
<event>
 7    1  0.7674040E-012  0.5930194E+02  0.7816164E-02  0.1266605E+00
        -11   -1    0    0    0    0  0.00000000000E+00  0.00000000000E+00  0.45593999997E+02  0.45594000000E+02  0.51100000000E-03 0. -1.
         11   -1    0    0    0    0 -0.00000000000E+00 -0.00000000000E+00 -0.45593999997E+02  0.45594000000E+02  0.51100000000E-03 0.  1.
    9900012    2    1    2    0    0  0.29906812956E+02 -0.42510083738E+01  0.10209426301E+02  0.59301938488E+02  0.49999989897E+02 0.  0.
         12    1    1    2    0    0 -0.29906812956E+02  0.42510083738E+01 -0.10209426301E+02  0.31886061512E+02  0.00000000000E+00 0. -1.
         11    1    3    3    0    0  0.32660226920E+01 -0.74602989081E+00  0.24729751292E+02  0.24955641928E+02  0.51100000000E-03 0. -1.
        -11    1    3    3    0    0  0.15438057521E+02 -0.35856101135E+01  0.19693276380E+00  0.15850205130E+02  0.51100000000E-03 0.  1.
         12    1    3    3    0    0  0.11202732743E+02  0.80631630509E-01 -0.14717257755E+02  0.18496091430E+02  0.00000000000E+00 0. -1.
</event>
<event>
 7    1  0.7674040E-012  0.5930196E+02  0.7816164E-02  0.1266605E+00
        -11   -1    0    0    0    0  0.00000000000E+00  0.00000000000E+00  0.45593999997E+02  0.45594000000E+02  0.51100000000E-03 0. -1.
         11   -1    0    0    0    0 -0.00000000000E+00 -0.00000000000E+00 -0.45593999997E+02  0.45594000000E+02  0.51100000000E-03 0.  1.
    9900012    2    1    2    0    0  0.28243695939E+02  0.91128507103E+01 -0.11660583754E+02  0.59301958824E+02  0.50000026985E+02 0.  0.
         12    1    1    2    0    0 -0.28243695939E+02 -0.91128507103E+01  0.11660583754E+02  0.31886041176E+02  0.00000000000E+00 0. -1.
         11    1    3    3    0    0  0.91982751154E+01  0.66841075725E+01  0.81678826075E+01  0.13999995203E+02  0.51100000000E-03 0. -1.
        -11    1    3    3    0    0 -0.64206825749E+01 -0.89568875947E+01 -0.12077259307E+02  0.16349654208E+02  0.51100000000E-03 0.  1.
        -12    1    3    3    0    0  0.25466103399E+02  0.11385630732E+02 -0.77512070551E+01  0.28952309412E+02  0.00000000000E+00 0.  1.
</event>
<event>
 7    1  0.7674040E-012  0.5930194E+02  0.7816164E-02  0.1266605E+00
        -11   -1    0    0    0    0  0.00000000000E+00  0.00000000000E+00  0.45593999997E+02  0.45594000000E+02  0.51100000000E-03 0.  1.
         11   -1    0    0    0    0 -0.00000000000E+00 -0.00000000000E+00 -0.45593999997E+02  0.45594000000E+02  0.51100000000E-03 0. -1.
    9900012    2    1    2    0    0 -0.20894664318E+02 -0.31548834562E+01  0.23878455278E+02  0.59301938577E+02  0.49999990060E+02 0.  0.
         12    1    1    2    0    0  0.20894664318E+02  0.31548834562E+01 -0.23878455278E+02  0.31886061423E+02  0.00000000000E+00 0. -1.
         11    1    3    3    0    0  0.79219412307E+00  0.77109667353E+01  0.24354882209E+02  0.25558694552E+02  0.51100000000E-03 0. -1.
        -11    1    3    3    0    0 -0.21419184650E+02  0.88581214923E+00  0.25947385486E+01  0.21593952918E+02  0.51100000000E-03 0.  1.
         12    1    3    3    0    0 -0.26767379165E+00 -0.11751662341E+02 -0.30711654794E+01  0.12149291108E+02  0.00000000000E+00 0. -1.
</event>
<event>
 7    1  0.7674040E-012  0.5930206E+02  0.7816164E-02  0.1266604E+00
        -11   -1    0    0    0    0  0.00000000000E+00  0.00000000000E+00  0.45593999997E+02  0.45594000000E+02  0.51100000000E-03 0.  1.
         11   -1    0    0    0    0 -0.00000000000E+00 -0.00000000000E+00 -0.45593999997E+02  0.45594000000E+02  0.51100000000E-03 0. -1.
    9900012    2    1    2    0    0 -0.26970464458E+02 -0.68353191892E+01 -0.15575153621E+02  0.59302063416E+02  0.50000217735E+02 0.  0.
         12    1    1    2    0    0  0.26970464458E+02  0.68353191892E+01  0.15575153621E+02  0.31885936584E+02  0.00000000000E+00 0. -1.
         11    1    3    3    0    0 -0.40671892594E+02 -0.52872261652E+01 -0.18192190075E+02  0.44867732144E+02  0.51100000000E-03 0. -1.
        -11    1    3    3    0    0  0.97194401447E+01 -0.20419726504E+01  0.30725879917E+01  0.10396055322E+02  0.51100000000E-03 0.  1.
         12    1    3    3    0    0  0.39819879914E+01  0.49387962635E+00 -0.45555153771E+00  0.40382759505E+01  0.00000000000E+00 0. -1.
</event>
<event>
 7    1  0.7674040E-012  0.5930209E+02  0.7816164E-02  0.1266604E+00
        -11   -1    0    0    0    0  0.00000000000E+00  0.00000000000E+00  0.45593999997E+02  0.45594000000E+02  0.51100000000E-03 0.  1.
         11   -1    0    0    0    0 -0.00000000000E+00 -0.00000000000E+00 -0.45593999997E+02  0.45594000000E+02  0.51100000000E-03 0. -1.
    9900012    2    1    2    0    0 -0.16347184525E+02  0.51324876353E+01  0.26891233212E+02  0.59302089398E+02  0.50000265120E+02 0.  0.
         12    1    1    2    0    0  0.16347184525E+02 -0.51324876353E+01 -0.26891233212E+02  0.31885910602E+02  0.00000000000E+00 0. -1.
         11    1    3    3    0    0  0.10753790764E+02 -0.67202747924E+01  0.13759971643E+02  0.18712106481E+02  0.51100000000E-03 0.  1.
        -11    1    3    3    0    0 -0.21255663596E+02  0.56914286743E+01 -0.31480154660E+01  0.22228486159E+02  0.51100000000E-03 0. -1.
        -12    1    3    3    0    0 -0.58453116929E+01  0.61613337534E+01  0.16279277035E+02  0.18361496758E+02  0.00000000000E+00 0.  1.
</event>
<event>
 7    1  0.7674040E-012  0.5930196E+02  0.7816164E-02  0.1266605E+00
        -11   -1    0    0    0    0  0.00000000000E+00  0.00000000000E+00  0.45593999997E+02  0.45594000000E+02  0.51100000000E-03 0. -1.
         11   -1    0    0    0    0 -0.00000000000E+00 -0.00000000000E+00 -0.45593999997E+02  0.45594000000E+02  0.51100000000E-03 0.  1.
    9900012    2    1    2    0    0  0.18007072478E+02 -0.25010969891E+02 -0.81802516162E+01  0.59301956178E+02  0.50000022158E+02 0.  0.
         12    1    1    2    0    0 -0.18007072478E+02  0.25010969891E+02  0.81802516162E+01  0.31886043822E+02  0.00000000000E+00 0. -1.
         11    1    3    3    0    0  0.59424649262E+01 -0.71825433607E+01 -0.97789299708E+01  0.13510340120E+02  0.51100000000E-03 0.  1.
        -11    1    3    3    0    0 -0.80513182097E+01 -0.19070301273E+02  0.11123946344E+02  0.23499836129E+02  0.51100000000E-03 0. -1.
        -12    1    3    3    0    0  0.20115925762E+02  0.12418747423E+01 -0.95252679892E+01  0.22291779929E+02  0.00000000000E+00 0.  1.
</event>
<event>
 7    1  0.7674040E-012  0.5930190E+02  0.7816164E-02  0.1266605E+00
        -11   -1    0    0    0    0  0.00000000000E+00  0.00000000000E+00  0.45593999997E+02  0.45594000000E+02  0.51100000000E-03 0.  1.
         11   -1    0    0    0    0 -0.00000000000E+00 -0.00000000000E+00 -0.45593999997E+02  0.45594000000E+02  0.51100000000E-03 0. -1.
    9900012    2    1    2    0    0  0.16832794615E+02  0.21973203231E+02  0.15829039565E+02  0.59301903840E+02  0.49999926707E+02 0.  0.
         12    1    1    2    0    0 -0.16832794615E+02 -0.21973203231E+02 -0.15829039565E+02  0.31886096160E+02  0.00000000000E+00 0. -1.
         11    1    3    3    0    0 -0.77136976572E+01 -0.92551240587E+00  0.32833648391E+01  0.84343458364E+01  0.51100000000E-03 0. -1.
        -11    1    3    3    0    0  0.22716451840E+02  0.12073063629E+02  0.23870637996E+02  0.35094207616E+02  0.51100000000E-03 0.  1.
        -12    1    3    3    0    0  0.18300404315E+01  0.10825652008E+02 -0.11324963270E+02  0.15773350387E+02  0.00000000000E+00 0.  1.
</event>
<event>
 7    1  0.7674040E-012  0.5930203E+02  0.7816164E-02  0.1266604E+00
        -11   -1    0    0    0    0  0.00000000000E+00  0.00000000000E+00  0.45593999997E+02  0.45594000000E+02  0.51100000000E-03 0.  1.
         11   -1    0    0    0    0 -0.00000000000E+00 -0.00000000000E+00 -0.45593999997E+02  0.45594000000E+02  0.51100000000E-03 0. -1.
    9900012    2    1    2    0    0 -0.28727451761E+02 -0.10442953522E+02  0.90770708092E+01  0.59302031653E+02  0.50000159807E+02 0.  0.
         12    1    1    2    0    0  0.28727451761E+02  0.10442953522E+02 -0.90770708092E+01  0.31885968347E+02  0.00000000000E+00 0. -1.
         11    1    3    3    0    0 -0.18019868496E+02  0.23539473722E+01 -0.14638858337E+02  0.23335657319E+02  0.51100000000E-03 0. -1.
        -11    1    3    3    0    0  0.24530735600E+01 -0.13060237297E+02  0.15640319113E+02  0.20523326981E+02  0.51100000000E-03 0.  1.
         12    1    3    3    0    0 -0.13160656825E+02  0.26333640240E+00  0.80756100328E+01  0.15443047353E+02  0.00000000000E+00 0. -1.
</event>
<event>
 7    1  0.7674040E-012  0.5930213E+02  0.7816164E-02  0.1266604E+00
        -11   -1    0    0    0    0  0.00000000000E+00  0.00000000000E+00  0.45593999997E+02  0.45594000000E+02  0.51100000000E-03 0.  1.
         11   -1    0    0    0    0 -0.00000000000E+00 -0.00000000000E+00 -0.45593999997E+02  0.45594000000E+02  0.51100000000E-03 0. -1.
    9900012    2    1    2    0    0 -0.28122659129E+02 -0.10968648972E+01  0.14987379570E+02  0.59302131414E+02  0.50000341747E+02 0.  0.
         12    1    1    2    0    0  0.28122659129E+02  0.10968648972E+01 -0.14987379570E+02  0.31885868586E+02  0.00000000000E+00 0. -1.
         11    1    3    3    0    0 -0.10982461629E+02  0.81667972443E+01 -0.15281639840E+02  0.20514374402E+02  0.51100000000E-03 0. -1.
        -11    1    3    3    0    0 -0.19133856224E+02 -0.93763380595E+01  0.23460752635E+02  0.31692697643E+02  0.51100000000E-03 0.  1.
         12    1    3    3    0    0  0.19936587242E+01  0.11267591800E+00  0.68082667748E+01  0.70950593689E+01  0.00000000000E+00 0. -1.
</event>
<event>
 7    1  0.7674040E-012  0.5930196E+02  0.7816164E-02  0.1266605E+00
        -11   -1    0    0    0    0  0.00000000000E+00  0.00000000000E+00  0.45593999997E+02  0.45594000000E+02  0.51100000000E-03 0. -1.
         11   -1    0    0    0    0 -0.00000000000E+00 -0.00000000000E+00 -0.45593999997E+02  0.45594000000E+02  0.51100000000E-03 0.  1.
    9900012    2    1    2    0    0 -0.46082164130E+01  0.17826332726E+01 -0.31500894913E+02  0.59301955713E+02  0.50000021312E+02 0.  0.
         12    1    1    2    0    0  0.46082164130E+01 -0.17826332726E+01  0.31500894913E+02  0.31886044287E+02  0.00000000000E+00 0. -1.
         11    1    3    3    0    0  0.41851095165E+01  0.43343391097E+01  0.79113856757E+01  0.99444286288E+01  0.51100000000E-03 0. -1.
        -11    1    3    3    0    0  0.40074198769E+01  0.72819779232E+01 -0.28954910504E+02  0.30124300143E+02  0.51100000000E-03 0.  1.
        -12    1    3    3    0    0 -0.12800745806E+02 -0.98336837603E+01 -0.10457370085E+02  0.19233226942E+02  0.00000000000E+00 0.  1.
</event>
<event>
 7    1  0.7674040E-012  0.5930199E+02  0.7816164E-02  0.1266605E+00
        -11   -1    0    0    0    0  0.00000000000E+00  0.00000000000E+00  0.45593999997E+02  0.45594000000E+02  0.51100000000E-03 0.  1.
         11   -1    0    0    0    0 -0.00000000000E+00 -0.00000000000E+00 -0.45593999997E+02  0.45594000000E+02  0.51100000000E-03 0. -1.
    9900012    2    1    2    0    0 -0.19704703648E+02  0.24380708166E+02  0.58329285054E+01  0.59301994740E+02  0.50000092486E+02 0.  0.
         12    1    1    2    0    0  0.19704703648E+02 -0.24380708166E+02 -0.58329285054E+01  0.31886005260E+02  0.00000000000E+00 0. -1.
         11    1    3    3    0    0  0.34490645914E+01  0.24082252568E+02  0.27120887167E+01  0.24478691974E+02  0.51100000000E-03 0. -1.
        -11    1    3    3    0    0 -0.22754382356E+02  0.16258346810E+00 -0.76786167272E+01  0.24015609609E+02  0.51100000000E-03 0.  1.
        -12    1    3    3    0    0 -0.39938588269E+00  0.13587213015E+00  0.10799456516E+02  0.10807693156E+02  0.00000000000E+00 0.  1.
</event>
<event>
 7    1  0.7674040E-012  0.5930202E+02  0.7816164E-02  0.1266605E+00
        -11   -1    0    0    0    0  0.00000000000E+00  0.00000000000E+00  0.45593999997E+02  0.45594000000E+02  0.51100000000E-03 0.  1.
         11   -1    0    0    0    0 -0.00000000000E+00 -0.00000000000E+00 -0.45593999997E+02  0.45594000000E+02  0.51100000000E-03 0. -1.
    9900012    2    1    2    0    0 -0.14010597227E+02 -0.83830277478E+01  0.27388756759E+02  0.59302015843E+02  0.50000130973E+02 0.  0.
         12    1    1    2    0    0  0.14010597227E+02  0.83830277478E+01 -0.27388756759E+02  0.31885984157E+02  0.00000000000E+00 0. -1.
         11    1    3    3    0    0 -0.20983579840E+02  0.39351478501E+01  0.83446046913E+01  0.22922225878E+02  0.51100000000E-03 0. -1.
        -11    1    3    3    0    0  0.31838577418E+01 -0.20742857904E+02  0.93038922876E+01  0.22955729483E+02  0.51100000000E-03 0.  1.
         12    1    3    3    0    0  0.37891248713E+01  0.84246823056E+01  0.97402597801E+01  0.13424060482E+02  0.00000000000E+00 0. -1.
</event>
<event>
 7    1  0.7674040E-012  0.5930195E+02  0.7816164E-02  0.1266605E+00
        -11   -1    0    0    0    0  0.00000000000E+00  0.00000000000E+00  0.45593999997E+02  0.45594000000E+02  0.51100000000E-03 0. -1.
         11   -1    0    0    0    0 -0.00000000000E+00 -0.00000000000E+00 -0.45593999997E+02  0.45594000000E+02  0.51100000000E-03 0.  1.
    9900012    2    1    2    0    0  0.17443300190E+02  0.35163772294E+01 -0.26459146968E+02  0.59301951506E+02  0.50000013638E+02 0.  0.
         12    1    1    2    0    0 -0.17443300190E+02 -0.35163772294E+01  0.26459146968E+02  0.31886048494E+02  0.00000000000E+00 0. -1.
         11    1    3    3    0    0 -0.63259325056E+00  0.15604938551E+02 -0.22184656618E+02  0.27130670300E+02  0.51100000000E-03 0. -1.
        -11    1    3    3    0    0  0.90908680019E+01 -0.13048722143E+02  0.72905150708E+01  0.17494703223E+02  0.51100000000E-03 0.  1.
        -12    1    3    3    0    0  0.89850254382E+01  0.96016082108E+00 -0.11565005420E+02  0.14676577983E+02  0.00000000000E+00 0.  1.
</event>
<event>
 7    1  0.7674040E-012  0.5930194E+02  0.7816164E-02  0.1266605E+00
        -11   -1    0    0    0    0  0.00000000000E+00  0.00000000000E+00  0.45593999997E+02  0.45594000000E+02  0.51100000000E-03 0.  1.
         11   -1    0    0    0    0 -0.00000000000E+00 -0.00000000000E+00 -0.45593999997E+02  0.45594000000E+02  0.51100000000E-03 0. -1.
    9900012    2    1    2    0    0  0.37863970874E+01  0.23931662424E+02  0.20728237098E+02  0.59301935921E+02  0.49999985215E+02 0.  0.
         12    1    1    2    0    0 -0.37863970874E+01 -0.23931662424E+02 -0.20728237098E+02  0.31886064079E+02  0.00000000000E+00 0. -1.
         11    1    3    3    0    0 -0.56410608830E+01 -0.51383117165E+01  0.20328314666E+02  0.21713226214E+02  0.51100000000E-03 0. -1.
        -11    1    3    3    0    0  0.15770532818E+02  0.14013144051E+02 -0.14460808953E+01  0.21146372308E+02  0.51100000000E-03 0.  1.
         12    1    3    3    0    0 -0.63430748479E+01  0.15056830090E+02  0.18460033272E+01  0.16442337399E+02  0.00000000000E+00 0. -1.
</event>
<event>
 7    1  0.7674040E-012  0.5930195E+02  0.7816164E-02  0.1266605E+00
        -11   -1    0    0    0    0  0.00000000000E+00  0.00000000000E+00  0.45593999997E+02  0.45594000000E+02  0.51100000000E-03 0. -1.
         11   -1    0    0    0    0 -0.00000000000E+00 -0.00000000000E+00 -0.45593999997E+02  0.45594000000E+02  0.51100000000E-03 0.  1.
    9900012    2    1    2    0    0 -0.18689683567E+02 -0.25834056139E+02 -0.13242517023E+00  0.59301948742E+02  0.50000008598E+02 0.  0.
         12    1    1    2    0    0  0.18689683567E+02  0.25834056139E+02  0.13242517023E+00  0.31886051258E+02  0.00000000000E+00 0. -1.
         11    1    3    3    0    0  0.47438534381E+01 -0.29037632033E+02 -0.62389722056E+01  0.30076784968E+02  0.51100000000E-03 0. -1.
        -11    1    3    3    0    0 -0.13904003415E+02  0.59809619232E+01  0.10447535851E+02  0.18391417077E+02  0.51100000000E-03 0.  1.
        -12    1    3    3    0    0 -0.95295335900E+01 -0.27773860285E+01 -0.43409888160E+01  0.10833746697E+02  0.00000000000E+00 0.  1.
</event>
<event>
 7    1  0.7674040E-012  0.5930194E+02  0.7816164E-02  0.1266605E+00
        -11   -1    0    0    0    0  0.00000000000E+00  0.00000000000E+00  0.45593999997E+02  0.45594000000E+02  0.51100000000E-03 0.  1.
         11   -1    0    0    0    0 -0.00000000000E+00 -0.00000000000E+00 -0.45593999997E+02  0.45594000000E+02  0.51100000000E-03 0. -1.
    9900012    2    1    2    0    0 -0.98696202796E+01  0.20331636425E+02  0.22493027274E+02  0.59301935330E+02  0.49999984138E+02 0.  0.
         12    1    1    2    0    0  0.98696202796E+01 -0.20331636425E+02 -0.22493027274E+02  0.31886064670E+02  0.00000000000E+00 0. -1.
         11    1    3    3    0    0 -0.71832805852E+01 -0.12656756576E+02  0.15216965615E+02  0.21055855475E+02  0.51100000000E-03 0. -1.
        -11    1    3    3    0    0 -0.22004877926E+01  0.18532177430E+02  0.12942852271E+02  0.22711256504E+02  0.51100000000E-03 0.  1.
         12    1    3    3    0    0 -0.48585190176E+00  0.14456215571E+02 -0.56667906122E+01  0.15534823351E+02  0.00000000000E+00 0. -1.
</event>
<event>
 7    1  0.7674040E-012  0.5930194E+02  0.7816164E-02  0.1266605E+00
        -11   -1    0    0    0    0  0.00000000000E+00  0.00000000000E+00  0.45593999997E+02  0.45594000000E+02  0.51100000000E-03 0. -1.
         11   -1    0    0    0    0 -0.00000000000E+00 -0.00000000000E+00 -0.45593999997E+02  0.45594000000E+02  0.51100000000E-03 0.  1.
    9900012    2    1    2    0    0  0.50719222685E+01  0.22761609905E+02 -0.21746389527E+02  0.59301941316E+02  0.49999995054E+02 0.  0.
         12    1    1    2    0    0 -0.50719222685E+01 -0.22761609905E+02  0.21746389527E+02  0.31886058684E+02  0.00000000000E+00 0. -1.
         11    1    3    3    0    0  0.14001846431E+01 -0.35445610925E+01 -0.42175020036E+01  0.56843428630E+01  0.51100000000E-03 0. -1.
        -11    1    3    3    0    0  0.29326575263E+01  0.78021332930E+01  0.14439620121E+02  0.16672624076E+02  0.51100000000E-03 0.  1.
        -12    1    3    3    0    0  0.73908009906E+00  0.18504037704E+02 -0.31968507644E+02  0.36944974377E+02  0.00000000000E+00 0.  1.
</event>
<event>
 7    1  0.7674040E-012  0.5930195E+02  0.7816164E-02  0.1266605E+00
        -11   -1    0    0    0    0  0.00000000000E+00  0.00000000000E+00  0.45593999997E+02  0.45594000000E+02  0.51100000000E-03 0. -1.
         11   -1    0    0    0    0 -0.00000000000E+00 -0.00000000000E+00 -0.45593999997E+02  0.45594000000E+02  0.51100000000E-03 0.  1.
    9900012    2    1    2    0    0  0.14777929355E+02  0.21808703862E+01 -0.28170499224E+02  0.59301946337E+02  0.50000004211E+02 0.  0.
         12    1    1    2    0    0 -0.14777929355E+02 -0.21808703862E+01  0.28170499224E+02  0.31886053663E+02  0.00000000000E+00 0. -1.
         11    1    3    3    0    0  0.37735269212E+01 -0.10334034107E+02 -0.19826575847E+02  0.22674321962E+02  0.51100000000E-03 0. -1.
        -11    1    3    3    0    0  0.19487391486E+01  0.21499094741E+02 -0.38208018163E+00  0.21590614731E+02  0.51100000000E-03 0.  1.
         12    1    3    3    0    0  0.90556632855E+01 -0.89841902476E+01 -0.79618431951E+01  0.15037009643E+02  0.00000000000E+00 0. -1.
</event>
<event>
 7    1  0.7674040E-012  0.5930193E+02  0.7816164E-02  0.1266605E+00
        -11   -1    0    0    0    0  0.00000000000E+00  0.00000000000E+00  0.45593999997E+02  0.45594000000E+02  0.51100000000E-03 0.  1.
         11   -1    0    0    0    0 -0.00000000000E+00 -0.00000000000E+00 -0.45593999997E+02  0.45594000000E+02  0.51100000000E-03 0. -1.
    9900012    2    1    2    0    0 -0.44514889024E+01  0.85273234950E+01  0.30400501264E+02  0.59301929742E+02  0.49999973946E+02 0.  0.
         12    1    1    2    0    0  0.44514889024E+01 -0.85273234950E+01 -0.30400501264E+02  0.31886070258E+02  0.00000000000E+00 0. -1.
         11    1    3    3    0    0  0.77917516918E+01 -0.12338276139E+01  0.39893894229E+02  0.40666405325E+02  0.51100000000E-03 0.  1.
        -11    1    3    3    0    0 -0.10244192279E+02  0.65330907517E+01 -0.80429970765E+01  0.14571017550E+02  0.51100000000E-03 0. -1.
        -12    1    3    3    0    0 -0.19990483153E+01  0.32280603571E+01 -0.14503958889E+01  0.40645068668E+01  0.00000000000E+00 0.  1.
</event>
<event>
 7    1  0.7674040E-012  0.5930193E+02  0.7816164E-02  0.1266605E+00
        -11   -1    0    0    0    0  0.00000000000E+00  0.00000000000E+00  0.45593999997E+02  0.45594000000E+02  0.51100000000E-03 0.  1.
         11   -1    0    0    0    0 -0.00000000000E+00 -0.00000000000E+00 -0.45593999997E+02  0.45594000000E+02  0.51100000000E-03 0. -1.
    9900012    2    1    2    0    0 -0.35822160648E+01 -0.19496119288E+02  0.24975797035E+02  0.59301931306E+02  0.49999976799E+02 0.  0.
         12    1    1    2    0    0  0.35822160648E+01  0.19496119288E+02 -0.24975797035E+02  0.31886068694E+02  0.00000000000E+00 0. -1.
         11    1    3    3    0    0 -0.11441670457E+02  0.11534251387E+00  0.20294519156E+01  0.11620834827E+02  0.51100000000E-03 0. -1.
        -11    1    3    3    0    0  0.11458967814E+02 -0.54656011981E+01  0.29169985664E+02  0.31813028836E+02  0.51100000000E-03 0.  1.
        -12    1    3    3    0    0 -0.35995134220E+01 -0.14145860604E+02 -0.62236405443E+01  0.15868067643E+02  0.00000000000E+00 0.  1.
</event>
<event>
 7    1  0.7674040E-012  0.5930194E+02  0.7816164E-02  0.1266605E+00
        -11   -1    0    0    0    0  0.00000000000E+00  0.00000000000E+00  0.45593999997E+02  0.45594000000E+02  0.51100000000E-03 0. -1.
         11   -1    0    0    0    0 -0.00000000000E+00 -0.00000000000E+00 -0.45593999997E+02  0.45594000000E+02  0.51100000000E-03 0.  1.
    9900012    2    1    2    0    0 -0.30388048597E+02  0.66219356467E+01 -0.70311522291E+01  0.59301943002E+02  0.49999998129E+02 0.  0.
         12    1    1    2    0    0  0.30388048597E+02 -0.66219356467E+01  0.70311522291E+01  0.31886056998E+02  0.00000000000E+00 0. -1.
         11    1    3    3    0    0 -0.12379685959E+02 -0.79278361540E+01  0.96736920866E+01  0.17597941055E+02  0.51100000000E-03 0.  1.
        -11    1    3    3    0    0 -0.12946227620E+02  0.22520776776E+02 -0.46474080412E+01  0.26389175772E+02  0.51100000000E-03 0. -1.
        -12    1    3    3    0    0 -0.50621350180E+01 -0.79710049751E+01 -0.12057436274E+02  0.15314826175E+02  0.00000000000E+00 0.  1.
</event>
<event>
 7    1  0.7674040E-012  0.5930194E+02  0.7816164E-02  0.1266605E+00
        -11   -1    0    0    0    0  0.00000000000E+00  0.00000000000E+00  0.45593999997E+02  0.45594000000E+02  0.51100000000E-03 0. -1.
         11   -1    0    0    0    0 -0.00000000000E+00 -0.00000000000E+00 -0.45593999997E+02  0.45594000000E+02  0.51100000000E-03 0.  1.
    9900012    2    1    2    0    0  0.10729134741E+02 -0.28203843652E+02 -0.10302911396E+02  0.59301935453E+02  0.49999984361E+02 0.  0.
         12    1    1    2    0    0 -0.10729134741E+02  0.28203843652E+02  0.10302911396E+02  0.31886064547E+02  0.00000000000E+00 0. -1.
         11    1    3    3    0    0  0.80733371426E+01 -0.16867121164E+02  0.89980128280E+01  0.20751934466E+02  0.51100000000E-03 0. -1.
        -11    1    3    3    0    0 -0.65964372051E+01 -0.14796268294E+02 -0.22887903753E+02  0.28041017773E+02  0.51100000000E-03 0.  1.
        -12    1    3    3    0    0  0.92522348040E+01  0.34595458056E+01  0.35869795293E+01  0.10508983214E+02  0.00000000000E+00 0.  1.
</event>
<event>
 7    1  0.8586177E-012  0.5930193E+02  0.7816164E-02  0.1266605E+00
        -11   -1    0    0    0    0  0.00000000000E+00  0.00000000000E+00  0.45593999997E+02  0.45594000000E+02  0.51100000000E-03 0. -1.
         11   -1    0    0    0    0 -0.00000000000E+00 -0.00000000000E+00 -0.45593999997E+02  0.45594000000E+02  0.51100000000E-03 0.  1.
    9900012    2    1    2    0    0  0.25204584483E+02  0.79434343919E+00 -0.19514593950E+02  0.59301930354E+02  0.49999975063E+02 0.  0.
         12    1    1    2    0    0 -0.25204584483E+02 -0.79434343919E+00  0.19514593950E+02  0.31886069646E+02  0.00000000000E+00 0. -1.
         11    1    3    3    0    0  0.17160625965E+02  0.10921021842E+02  0.29428809684E+01  0.20552769892E+02  0.51100000000E-03 0. -1.
        -11    1    3    3    0    0 -0.53727893815E+00  0.32853899074E+01 -0.22582261200E+02  0.22826322014E+02  0.51100000000E-03 0.  1.
        -12    1    3    3    0    0  0.85812374556E+01 -0.13412068310E+02  0.12478628238E+00  0.15922838448E+02  0.00000000000E+00 0.  1.
</event>
<event>
 7    1  0.7674040E-012  0.5930187E+02  0.7816164E-02  0.1266605E+00
        -11   -1    0    0    0    0  0.00000000000E+00  0.00000000000E+00  0.45593999997E+02  0.45594000000E+02  0.51100000000E-03 0.  1.
         11   -1    0    0    0    0 -0.00000000000E+00 -0.00000000000E+00 -0.45593999997E+02  0.45594000000E+02  0.51100000000E-03 0. -1.
    9900012    2    1    2    0    0  0.25503145507E+02 -0.33279355440E+01  0.18847799944E+02  0.59301872163E+02  0.49999868935E+02 0.  0.
         12    1    1    2    0    0 -0.25503145507E+02  0.33279355440E+01 -0.18847799944E+02  0.31886127837E+02  0.00000000000E+00 0. -1.
         11    1    3    3    0    0 -0.17763667693E+01  0.31915357607E+01  0.35859944354E+01  0.51186654279E+01  0.51100000000E-03 0. -1.
        -11    1    3    3    0    0  0.35774911522E+02  0.37806826819E+01  0.30737272014E+01  0.36105202605E+02  0.51100000000E-03 0.  1.
        -12    1    3    3    0    0 -0.84953992460E+01 -0.10300153987E+02  0.12188078308E+02  0.18078004130E+02  0.00000000000E+00 0.  1.
</event>
<event>
 7    1  0.7674040E-012  0.5930196E+02  0.7816164E-02  0.1266605E+00
        -11   -1    0    0    0    0  0.00000000000E+00  0.00000000000E+00  0.45593999997E+02  0.45594000000E+02  0.51100000000E-03 0. -1.
         11   -1    0    0    0    0 -0.00000000000E+00 -0.00000000000E+00 -0.45593999997E+02  0.45594000000E+02  0.51100000000E-03 0.  1.
    9900012    2    1    2    0    0  0.31377503616E+02  0.51985880210E+01 -0.22685944458E+01  0.59301959617E+02  0.50000028431E+02 0.  0.
         12    1    1    2    0    0 -0.31377503616E+02 -0.51985880210E+01  0.22685944458E+01  0.31886040383E+02  0.00000000000E+00 0. -1.
         11    1    3    3    0    0  0.40214739675E+00 -0.79238314826E+01 -0.13246412215E+02  0.15440733944E+02  0.51100000000E-03 0. -1.
        -11    1    3    3    0    0  0.28858766200E+02  0.20101695360E+02  0.92667269517E+01  0.36370025730E+02  0.51100000000E-03 0.  1.
        -12    1    3    3    0    0  0.21165900189E+01 -0.69792758568E+01  0.17110908175E+01  0.74911999426E+01  0.00000000000E+00 0.  1.
</event>
<event>
 7    1  0.7674040E-012  0.5930193E+02  0.7816164E-02  0.1266605E+00
        -11   -1    0    0    0    0  0.00000000000E+00  0.00000000000E+00  0.45593999997E+02  0.45594000000E+02  0.51100000000E-03 0. -1.
         11   -1    0    0    0    0 -0.00000000000E+00 -0.00000000000E+00 -0.45593999997E+02  0.45594000000E+02  0.51100000000E-03 0.  1.
    9900012    2    1    2    0    0 -0.95344929476E+01  0.15851997877E+02 -0.25971699908E+02  0.59301927984E+02  0.49999970740E+02 0.  0.
         12    1    1    2    0    0  0.95344929476E+01 -0.15851997877E+02  0.25971699908E+02  0.31886072016E+02  0.00000000000E+00 0. -1.
         11    1    3    3    0    0  0.92058150966E+00  0.53320982340E+01  0.39144917759E+01  0.66784719823E+01  0.51100000000E-03 0. -1.
        -11    1    3    3    0    0  0.76169499302E+01 -0.10062807786E+02 -0.19708517194E+02  0.23403069821E+02  0.51100000000E-03 0.  1.
        -12    1    3    3    0    0 -0.18072024387E+02  0.20582707429E+02 -0.10177674490E+02  0.29220386181E+02  0.00000000000E+00 0.  1.
</event>
<event>
 7    1  0.7674040E-012  0.5930198E+02  0.7816164E-02  0.1266605E+00
        -11   -1    0    0    0    0  0.00000000000E+00  0.00000000000E+00  0.45593999997E+02  0.45594000000E+02  0.51100000000E-03 0. -1.
         11   -1    0    0    0    0 -0.00000000000E+00 -0.00000000000E+00 -0.45593999997E+02  0.45594000000E+02  0.51100000000E-03 0.  1.
    9900012    2    1    2    0    0  0.19827076934E+01  0.77484237009E+01 -0.30866631327E+02  0.59301982232E+02  0.50000069675E+02 0.  0.
         12    1    1    2    0    0 -0.19827076934E+01 -0.77484237009E+01  0.30866631327E+02  0.31886017768E+02  0.00000000000E+00 0. -1.
         11    1    3    3    0    0 -0.12711040958E+00  0.24252344783E+02 -0.27734026789E+02  0.36842483992E+02  0.51100000000E-03 0. -1.
        -11    1    3    3    0    0 -0.14992179136E+01 -0.74020801626E+01 -0.84371996227E+01  0.11323638232E+02  0.51100000000E-03 0.  1.
         12    1    3    3    0    0  0.36090360166E+01 -0.91018409191E+01  0.53045950847E+01  0.11135860007E+02  0.00000000000E+00 0. -1.
</event>
<event>
 7    1  0.7674040E-012  0.5930197E+02  0.7816164E-02  0.1266605E+00
        -11   -1    0    0    0    0  0.00000000000E+00  0.00000000000E+00  0.45593999997E+02  0.45594000000E+02  0.51100000000E-03 0. -1.
         11   -1    0    0    0    0 -0.00000000000E+00 -0.00000000000E+00 -0.45593999997E+02  0.45594000000E+02  0.51100000000E-03 0.  1.
    9900012    2    1    2    0    0 -0.58866238608E+01 -0.52508205470E+01 -0.30894904874E+02  0.59301974784E+02  0.50000056093E+02 0.  0.
         12    1    1    2    0    0  0.58866238608E+01  0.52508205470E+01  0.30894904874E+02  0.31886025216E+02  0.00000000000E+00 0. -1.
         11    1    3    3    0    0  0.99834772565E+01 -0.43937939805E+01  0.83281326502E+01  0.13723448451E+02  0.51100000000E-03 0. -1.
        -11    1    3    3    0    0 -0.15655184866E+02 -0.39611003208E+01 -0.39276379004E+02  0.42466564223E+02  0.51100000000E-03 0.  1.
        -12    1    3    3    0    0 -0.21491625157E+00  0.31040737543E+01  0.53341480187E-01  0.31119621111E+01  0.00000000000E+00 0.  1.
</event>
<event>
 7    1  0.7674040E-012  0.5930195E+02  0.7816164E-02  0.1266605E+00
        -11   -1    0    0    0    0  0.00000000000E+00  0.00000000000E+00  0.45593999997E+02  0.45594000000E+02  0.51100000000E-03 0.  1.
         11   -1    0    0    0    0 -0.00000000000E+00 -0.00000000000E+00 -0.45593999997E+02  0.45594000000E+02  0.51100000000E-03 0. -1.
    9900012    2    1    2    0    0 -0.25484836098E+02 -0.13058764443E+02  0.14025410564E+02  0.59301947544E+02  0.50000006413E+02 0.  0.
         12    1    1    2    0    0  0.25484836098E+02  0.13058764443E+02 -0.14025410564E+02  0.31886052456E+02  0.00000000000E+00 0. -1.
         11    1    3    3    0    0 -0.24950958653E+02 -0.14418734278E+02  0.49068218510E+00  0.28821710656E+02  0.51100000000E-03 0. -1.
        -11    1    3    3    0    0  0.20879198173E+01 -0.69703645931E+01  0.18885122698E+02  0.20238410296E+02  0.51100000000E-03 0.  1.
        -12    1    3    3    0    0 -0.26217972625E+01  0.83303344279E+01 -0.53503943195E+01  0.10241826592E+02  0.00000000000E+00 0.  1.
</event>
<event>
 7    1  0.7674040E-012  0.5930198E+02  0.7816164E-02  0.1266605E+00
        -11   -1    0    0    0    0  0.00000000000E+00  0.00000000000E+00  0.45593999997E+02  0.45594000000E+02  0.51100000000E-03 0. -1.
         11   -1    0    0    0    0 -0.00000000000E+00 -0.00000000000E+00 -0.45593999997E+02  0.45594000000E+02  0.51100000000E-03 0.  1.
    9900012    2    1    2    0    0 -0.24661724699E+02  0.20210982480E+02  0.18367508728E+00  0.59301980893E+02  0.50000067234E+02 0.  0.
         12    1    1    2    0    0  0.24661724699E+02 -0.20210982480E+02 -0.18367508728E+00  0.31886019107E+02  0.00000000000E+00 0. -1.
         11    1    3    3    0    0 -0.73222525044E+01 -0.10643186757E+02  0.66580235129E+01  0.14533481463E+02  0.51100000000E-03 0. -1.
        -11    1    3    3    0    0 -0.12460053898E+01  0.17625235639E+02 -0.14077627581E+02  0.22591614802E+02  0.51100000000E-03 0.  1.
        -12    1    3    3    0    0 -0.16093466805E+02  0.13228933597E+02  0.76032791555E+01  0.22176884629E+02  0.00000000000E+00 0.  1.
</event>
<event>
 7    1  0.7674040E-012  0.5930188E+02  0.7816164E-02  0.1266605E+00
        -11   -1    0    0    0    0  0.00000000000E+00  0.00000000000E+00  0.45593999997E+02  0.45594000000E+02  0.51100000000E-03 0. -1.
         11   -1    0    0    0    0 -0.00000000000E+00 -0.00000000000E+00 -0.45593999997E+02  0.45594000000E+02  0.51100000000E-03 0.  1.
    9900012    2    1    2    0    0  0.31626336100E+02 -0.28761230483E+01  0.28683104399E+01  0.59301883528E+02  0.49999889662E+02 0.  0.
         12    1    1    2    0    0 -0.31626336100E+02  0.28761230483E+01 -0.28683104399E+01  0.31886116472E+02  0.00000000000E+00 0. -1.
         11    1    3    3    0    0  0.24174424687E+02  0.17710467895E+02  0.11084907027E+02  0.31952130540E+02  0.51100000000E-03 0. -1.
        -11    1    3    3    0    0 -0.77067524057E+00 -0.15690153562E+02 -0.83258912726E+01  0.17779069854E+02  0.51100000000E-03 0.  1.
         12    1    3    3    0    0  0.82225866539E+01 -0.48964373808E+01  0.10929468555E+00  0.95706831331E+01  0.00000000000E+00 0. -1.
</event>
<event>
 7    1  0.7674040E-012  0.5930194E+02  0.7816164E-02  0.1266605E+00
        -11   -1    0    0    0    0  0.00000000000E+00  0.00000000000E+00  0.45593999997E+02  0.45594000000E+02  0.51100000000E-03 0.  1.
         11   -1    0    0    0    0 -0.00000000000E+00 -0.00000000000E+00 -0.45593999997E+02  0.45594000000E+02  0.51100000000E-03 0. -1.
    9900012    2    1    2    0    0  0.28888387002E+02  0.92782231252E+01  0.98028778638E+01  0.59301941254E+02  0.49999994941E+02 0.  0.
         12    1    1    2    0    0 -0.28888387002E+02 -0.92782231252E+01 -0.98028778638E+01  0.31886058746E+02  0.00000000000E+00 0. -1.
         11    1    3    3    0    0  0.18349912547E+02  0.22282987209E+02 -0.32508422144E+00  0.28867914532E+02  0.51100000000E-03 0. -1.
        -11    1    3    3    0    0  0.15790903950E+02 -0.80618537996E+01 -0.32671601034E+00  0.17732819230E+02  0.51100000000E-03 0.  1.
         12    1    3    3    0    0 -0.52524294938E+01 -0.49429102840E+01  0.10454678096E+02  0.12701207492E+02  0.00000000000E+00 0. -1.
</event>
<event>
 7    1  0.7674040E-012  0.5930193E+02  0.7816164E-02  0.1266605E+00
        -11   -1    0    0    0    0  0.00000000000E+00  0.00000000000E+00  0.45593999997E+02  0.45594000000E+02  0.51100000000E-03 0. -1.
         11   -1    0    0    0    0 -0.00000000000E+00 -0.00000000000E+00 -0.45593999997E+02  0.45594000000E+02  0.51100000000E-03 0.  1.
    9900012    2    1    2    0    0  0.12016064640E+02 -0.16382628109E+02 -0.24575293230E+02  0.59301931717E+02  0.49999977549E+02 0.  0.
         12    1    1    2    0    0 -0.12016064640E+02  0.16382628109E+02  0.24575293230E+02  0.31886068283E+02  0.00000000000E+00 0. -1.
         11    1    3    3    0    0 -0.11072370180E+01 -0.21616603369E+02  0.71370633172E+01  0.22791252447E+02  0.51100000000E-03 0. -1.
        -11    1    3    3    0    0  0.14897758372E+02  0.34936721484E+01 -0.24540070209E+02  0.28919958432E+02  0.51100000000E-03 0.  1.
         12    1    3    3    0    0 -0.17744567132E+01  0.17403031115E+01 -0.71722863376E+01  0.75907208390E+01  0.00000000000E+00 0. -1.
</event>
<event>
 7    1  0.7674040E-012  0.5930195E+02  0.7816164E-02  0.1266605E+00
        -11   -1    0    0    0    0  0.00000000000E+00  0.00000000000E+00  0.45593999997E+02  0.45594000000E+02  0.51100000000E-03 0. -1.
         11   -1    0    0    0    0 -0.00000000000E+00 -0.00000000000E+00 -0.45593999997E+02  0.45594000000E+02  0.51100000000E-03 0.  1.
    9900012    2    1    2    0    0 -0.22959408136E+02  0.17206266418E+02 -0.13911522292E+02  0.59301945391E+02  0.50000002487E+02 0.  0.
         12    1    1    2    0    0  0.22959408136E+02 -0.17206266418E+02  0.13911522292E+02  0.31886054609E+02  0.00000000000E+00 0. -1.
         11    1    3    3    0    0  0.13782256639E+02  0.86168598269E+01 -0.95130137717E+01  0.18833435762E+02  0.51100000000E-03 0. -1.
        -11    1    3    3    0    0 -0.30125597434E+02  0.38515286939E+01 -0.82414857395E+01  0.31469159211E+02  0.51100000000E-03 0.  1.
        -12    1    3    3    0    0 -0.66160673416E+01  0.47378778971E+01  0.38429772189E+01  0.89993504177E+01  0.00000000000E+00 0.  1.
</event>
<event>
 7    1  0.7674040E-012  0.5930195E+02  0.7816164E-02  0.1266605E+00
        -11   -1    0    0    0    0  0.00000000000E+00  0.00000000000E+00  0.45593999997E+02  0.45594000000E+02  0.51100000000E-03 0.  1.
         11   -1    0    0    0    0 -0.00000000000E+00 -0.00000000000E+00 -0.45593999997E+02  0.45594000000E+02  0.51100000000E-03 0. -1.
    9900012    2    1    2    0    0 -0.15084291390E+02 -0.17929266228E+02  0.21626962341E+02  0.59301953925E+02  0.50000018050E+02 0.  0.
         12    1    1    2    0    0  0.15084291390E+02  0.17929266228E+02 -0.21626962341E+02  0.31886046075E+02  0.00000000000E+00 0. -1.
         11    1    3    3    0    0  0.48761484251E+01 -0.27398303157E+01 -0.30498929980E+01  0.63706625388E+01  0.51100000000E-03 0. -1.
        -11    1    3    3    0    0 -0.16257814612E+02  0.11387405088E+02  0.12557224206E+02  0.23487728937E+02  0.51100000000E-03 0.  1.
        -12    1    3    3    0    0 -0.37026252036E+01 -0.26576841000E+02  0.12119631132E+02  0.29443562449E+02  0.00000000000E+00 0.  1.
</event>
<event>
 7    1  0.7674040E-012  0.5930198E+02  0.7816164E-02  0.1266605E+00
        -11   -1    0    0    0    0  0.00000000000E+00  0.00000000000E+00  0.45593999997E+02  0.45594000000E+02  0.51100000000E-03 0.  1.
         11   -1    0    0    0    0 -0.00000000000E+00 -0.00000000000E+00 -0.45593999997E+02  0.45594000000E+02  0.51100000000E-03 0. -1.
    9900012    2    1    2    0    0 -0.75140630689E+01  0.22975647329E+01  0.30902727187E+02  0.59301976493E+02  0.50000059209E+02 0.  0.
         12    1    1    2    0    0  0.75140630689E+01 -0.22975647329E+01 -0.30902727187E+02  0.31886023507E+02  0.00000000000E+00 0. -1.
         11    1    3    3    0    0 -0.14825187149E+02  0.17902885562E+02  0.61712602593E+01  0.24049614112E+02  0.51100000000E-03 0. -1.
        -11    1    3    3    0    0  0.19916006294E+01 -0.16829262988E+02  0.10319777685E+02  0.19841582031E+02  0.51100000000E-03 0.  1.
         12    1    3    3    0    0  0.53195234511E+01  0.12239421585E+01  0.14411689243E+02  0.15410780350E+02  0.00000000000E+00 0. -1.
</event>
<event>
 7    1  0.7674040E-012  0.5930196E+02  0.7816164E-02  0.1266605E+00
        -11   -1    0    0    0    0  0.00000000000E+00  0.00000000000E+00  0.45593999997E+02  0.45594000000E+02  0.51100000000E-03 0.  1.
         11   -1    0    0    0    0 -0.00000000000E+00 -0.00000000000E+00 -0.45593999997E+02  0.45594000000E+02  0.51100000000E-03 0. -1.
    9900012    2    1    2    0    0 -0.12667301025E+02  0.28593273382E+02  0.62196303109E+01  0.59301959181E+02  0.50000027635E+02 0.  0.
         12    1    1    2    0    0  0.12667301025E+02 -0.28593273382E+02 -0.62196303109E+01  0.31886040819E+02  0.00000000000E+00 0. -1.
         11    1    3    3    0    0  0.57306788227E+00  0.95915603074E+01 -0.82091237977E+01  0.12637885492E+02  0.51100000000E-03 0. -1.
        -11    1    3    3    0    0 -0.10979080483E+02  0.29898853543E+02  0.15613313126E+02  0.35471921268E+02  0.51100000000E-03 0.  1.
        -12    1    3    3    0    0 -0.22612884239E+01 -0.10897140469E+02 -0.11845590173E+01  0.11192152420E+02  0.00000000000E+00 0.  1.
</event>
<event>
 7    1  0.7674040E-012  0.5930194E+02  0.7816164E-02  0.1266605E+00
        -11   -1    0    0    0    0  0.00000000000E+00  0.00000000000E+00  0.45593999997E+02  0.45594000000E+02  0.51100000000E-03 0. -1.
         11   -1    0    0    0    0 -0.00000000000E+00 -0.00000000000E+00 -0.45593999997E+02  0.45594000000E+02  0.51100000000E-03 0.  1.
    9900012    2    1    2    0    0  0.22310728127E+02 -0.42164560723E+00 -0.22776624665E+02  0.59301937124E+02  0.49999987410E+02 0.  0.
         12    1    1    2    0    0 -0.22310728127E+02  0.42164560723E+00  0.22776624665E+02  0.31886062876E+02  0.00000000000E+00 0. -1.
         11    1    3    3    0    0  0.19870816400E+02 -0.14202280411E+02  0.47235450160E+01  0.24877017326E+02  0.51100000000E-03 0. -1.
        -11    1    3    3    0    0 -0.60878055351E+01  0.57721191383E+01 -0.74917365262E+01  0.11247437576E+02  0.51100000000E-03 0.  1.
         12    1    3    3    0    0  0.85277172627E+01  0.80085156655E+01 -0.20008433154E+02  0.23177482222E+02  0.00000000000E+00 0. -1.
</event>
<event>
 7    1  0.7674040E-012  0.5930198E+02  0.7816164E-02  0.1266605E+00
        -11   -1    0    0    0    0  0.00000000000E+00  0.00000000000E+00  0.45593999997E+02  0.45594000000E+02  0.51100000000E-03 0.  1.
         11   -1    0    0    0    0 -0.00000000000E+00 -0.00000000000E+00 -0.45593999997E+02  0.45594000000E+02  0.51100000000E-03 0. -1.
    9900012    2    1    2    0    0 -0.20703150281E+02 -0.22487943665E+02 -0.90769174948E+01  0.59301976839E+02  0.50000059839E+02 0.  0.
         12    1    1    2    0    0  0.20703150281E+02  0.22487943665E+02  0.90769174948E+01  0.31886023161E+02  0.00000000000E+00 0. -1.
         11    1    3    3    0    0 -0.53262876316E+01 -0.16769011132E+02 -0.84566888471E+01  0.19521389827E+02  0.51100000000E-03 0. -1.
        -11    1    3    3    0    0 -0.17490102474E+02  0.80297286226E+01 -0.11233536409E+02  0.22283908248E+02  0.51100000000E-03 0.  1.
        -12    1    3    3    0    0  0.21132398241E+01 -0.13748661155E+02  0.10613307761E+02  0.17496678763E+02  0.00000000000E+00 0.  1.
</event>
<event>
 7    1  0.7674040E-012  0.5930199E+02  0.7816164E-02  0.1266605E+00
        -11   -1    0    0    0    0  0.00000000000E+00  0.00000000000E+00  0.45593999997E+02  0.45594000000E+02  0.51100000000E-03 0. -1.
         11   -1    0    0    0    0 -0.00000000000E+00 -0.00000000000E+00 -0.45593999997E+02  0.45594000000E+02  0.51100000000E-03 0.  1.
    9900012    2    1    2    0    0  0.16842786130E+02  0.29116235681E+01 -0.26917658931E+02  0.59301994312E+02  0.50000091706E+02 0.  0.
         12    1    1    2    0    0 -0.16842786130E+02 -0.29116235681E+01  0.26917658931E+02  0.31886005688E+02  0.00000000000E+00 0. -1.
         11    1    3    3    0    0 -0.52952739782E+01  0.14971431080E+02 -0.10909719435E+01  0.15917722674E+02  0.51100000000E-03 0. -1.
        -11    1    3    3    0    0  0.23398587505E+02 -0.11950562612E+01 -0.20868069482E+02  0.31375123599E+02  0.51100000000E-03 0.  1.
         12    1    3    3    0    0 -0.12605273963E+01 -0.10864751251E+02 -0.49586175052E+01  0.12009148039E+02  0.00000000000E+00 0. -1.
</event>
<event>
 7    1  0.7674040E-012  0.5930195E+02  0.7816164E-02  0.1266605E+00
        -11   -1    0    0    0    0  0.00000000000E+00  0.00000000000E+00  0.45593999997E+02  0.45594000000E+02  0.51100000000E-03 0. -1.
         11   -1    0    0    0    0 -0.00000000000E+00 -0.00000000000E+00 -0.45593999997E+02  0.45594000000E+02  0.51100000000E-03 0.  1.
    9900012    2    1    2    0    0 -0.27188881701E+02  0.15688653551E+02 -0.55992166436E+01  0.59301947165E+02  0.50000005721E+02 0.  0.
         12    1    1    2    0    0  0.27188881701E+02 -0.15688653551E+02  0.55992166436E+01  0.31886052835E+02  0.00000000000E+00 0. -1.
         11    1    3    3    0    0 -0.14195452120E+02  0.98922120797E+01  0.12690610715E+02  0.21457360539E+02  0.51100000000E-03 0. -1.
        -11    1    3    3    0    0 -0.73841117517E+01 -0.11766843376E+02 -0.12020596702E+02  0.18370586673E+02  0.51100000000E-03 0.  1.
         12    1    3    3    0    0 -0.56093178295E+01  0.17563284847E+02 -0.62692306564E+01  0.19473999952E+02  0.00000000000E+00 0. -1.
</event>
<event>
 7    1  0.7674040E-012  0.5930190E+02  0.7816164E-02  0.1266605E+00
        -11   -1    0    0    0    0  0.00000000000E+00  0.00000000000E+00  0.45593999997E+02  0.45594000000E+02  0.51100000000E-03 0.  1.
         11   -1    0    0    0    0 -0.00000000000E+00 -0.00000000000E+00 -0.45593999997E+02  0.45594000000E+02  0.51100000000E-03 0. -1.
    9900012    2    1    2    0    0  0.26783135115E+02 -0.83087062400E+01  0.15177366688E+02  0.59301899806E+02  0.49999919351E+02 0.  0.
         12    1    1    2    0    0 -0.26783135115E+02  0.83087062400E+01 -0.15177366688E+02  0.31886100194E+02  0.00000000000E+00 0. -1.
         11    1    3    3    0    0  0.21276532040E+01 -0.20999711442E+01  0.63743153960E+00  0.30566495042E+01  0.51100000000E-03 0. -1.
        -11    1    3    3    0    0  0.19920736233E+02 -0.57422066337E+01 -0.15465575180E+02  0.25864892906E+02  0.51100000000E-03 0.  1.
        -12    1    3    3    0    0  0.47347456780E+01 -0.46652846204E+00  0.30005510329E+02  0.30380357396E+02  0.00000000000E+00 0.  1.
</event>
<event>
 7    1  0.7674040E-012  0.5930196E+02  0.7816164E-02  0.1266605E+00
        -11   -1    0    0    0    0  0.00000000000E+00  0.00000000000E+00  0.45593999997E+02  0.45594000000E+02  0.51100000000E-03 0.  1.
         11   -1    0    0    0    0 -0.00000000000E+00 -0.00000000000E+00 -0.45593999997E+02  0.45594000000E+02  0.51100000000E-03 0. -1.
    9900012    2    1    2    0    0  0.17544557294E+02  0.18473812057E+02  0.19173592004E+02  0.59301955202E+02  0.50000020379E+02 0.  0.
         12    1    1    2    0    0 -0.17544557294E+02 -0.18473812057E+02 -0.19173592004E+02  0.31886044798E+02  0.00000000000E+00 0. -1.
         11    1    3    3    0    0 -0.17385284900E+01 -0.89023793863E+01  0.10017532097E+02  0.13513910967E+02  0.51100000000E-03 0. -1.
        -11    1    3    3    0    0  0.14188726065E+02  0.25274615895E+02 -0.60540115657E+01  0.29610424047E+02  0.51100000000E-03 0.  1.
        -12    1    3    3    0    0  0.50943597193E+01  0.21015755483E+01  0.15210071472E+02  0.16177620187E+02  0.00000000000E+00 0.  1.
</event>
<event>
 7    1  0.7674040E-012  0.5930195E+02  0.7816164E-02  0.1266605E+00
        -11   -1    0    0    0    0  0.00000000000E+00  0.00000000000E+00  0.45593999997E+02  0.45594000000E+02  0.51100000000E-03 0. -1.
         11   -1    0    0    0    0 -0.00000000000E+00 -0.00000000000E+00 -0.45593999997E+02  0.45594000000E+02  0.51100000000E-03 0.  1.
    9900012    2    1    2    0    0 -0.30785464867E+02 -0.34594853780E+01 -0.75503386952E+01  0.59301945046E+02  0.50000001857E+02 0.  0.
         12    1    1    2    0    0  0.30785464867E+02  0.34594853780E+01  0.75503386952E+01  0.31886054954E+02  0.00000000000E+00 0. -1.
         11    1    3    3    0    0  0.26794968556E+01 -0.79580727792E+01  0.10079981604E+02  0.13119323731E+02  0.51100000000E-03 0. -1.
        -11    1    3    3    0    0 -0.16324205530E+02  0.15301855968E+02 -0.10356833264E+02  0.24655435056E+02  0.51100000000E-03 0.  1.
        -12    1    3    3    0    0 -0.17140756192E+02 -0.10803268567E+02 -0.72734870354E+01  0.21527186259E+02  0.00000000000E+00 0.  1.
</event>
<event>
 7    1  0.7674040E-012  0.5930194E+02  0.7816164E-02  0.1266605E+00
        -11   -1    0    0    0    0  0.00000000000E+00  0.00000000000E+00  0.45593999997E+02  0.45594000000E+02  0.51100000000E-03 0.  1.
         11   -1    0    0    0    0 -0.00000000000E+00 -0.00000000000E+00 -0.45593999997E+02  0.45594000000E+02  0.51100000000E-03 0. -1.
    9900012    2    1    2    0    0 -0.25825211679E+02  0.84477861885E+01  0.16685738983E+02  0.59301944503E+02  0.50000000867E+02 0.  0.
         12    1    1    2    0    0  0.25825211679E+02 -0.84477861885E+01 -0.16685738983E+02  0.31886055497E+02  0.00000000000E+00 0. -1.
         11    1    3    3    0    0 -0.65823628712E+01  0.13322144856E+02 -0.42497100152E+01  0.15455325296E+02  0.51100000000E-03 0. -1.
        -11    1    3    3    0    0 -0.71207035132E+01 -0.18063300889E+02  0.16279505171E+02  0.25337907301E+02  0.51100000000E-03 0.  1.
        -12    1    3    3    0    0 -0.12122145295E+02  0.13188942222E+02  0.46559438275E+01  0.18508711906E+02  0.00000000000E+00 0.  1.
</event>
<event>
 7    1  0.7674040E-012  0.5930196E+02  0.7816164E-02  0.1266605E+00
        -11   -1    0    0    0    0  0.00000000000E+00  0.00000000000E+00  0.45593999997E+02  0.45594000000E+02  0.51100000000E-03 0.  1.
         11   -1    0    0    0    0 -0.00000000000E+00 -0.00000000000E+00 -0.45593999997E+02  0.45594000000E+02  0.51100000000E-03 0. -1.
    9900012    2    1    2    0    0  0.16034432615E+02  0.83702328215E+01  0.26259396420E+02  0.59301957174E+02  0.50000023975E+02 0.  0.
         12    1    1    2    0    0 -0.16034432615E+02 -0.83702328215E+01 -0.26259396420E+02  0.31886042826E+02  0.00000000000E+00 0. -1.
         11    1    3    3    0    0 -0.53739254099E+01 -0.14644532294E+02 -0.14458383344E+01  0.15666264685E+02  0.51100000000E-03 0. -1.
        -11    1    3    3    0    0  0.42529679400E+01  0.12783957251E+02  0.13879413806E+02  0.19343097662E+02  0.51100000000E-03 0.  1.
         12    1    3    3    0    0  0.17155390085E+02  0.10230807864E+02  0.13825820948E+02  0.24292594827E+02  0.00000000000E+00 0. -1.
</event>
<event>
 7    1  0.7674040E-012  0.5930193E+02  0.7816164E-02  0.1266605E+00
        -11   -1    0    0    0    0  0.00000000000E+00  0.00000000000E+00  0.45593999997E+02  0.45594000000E+02  0.51100000000E-03 0.  1.
         11   -1    0    0    0    0 -0.00000000000E+00 -0.00000000000E+00 -0.45593999997E+02  0.45594000000E+02  0.51100000000E-03 0. -1.
    9900012    2    1    2    0    0 -0.19563989011E+02  0.20656704573E+01  0.25093913294E+02  0.59301934942E+02  0.49999983430E+02 0.  0.
         12    1    1    2    0    0  0.19563989011E+02 -0.20656704573E+01 -0.25093913294E+02  0.31886065058E+02  0.00000000000E+00 0. -1.
         11    1    3    3    0    0 -0.25285543333E+02  0.25026240869E+01  0.47171557034E+01  0.25843246452E+02  0.51100000000E-03 0. -1.
        -11    1    3    3    0    0  0.14460563411E+02  0.41971243740E+01  0.64597802978E+01  0.16384520406E+02  0.51100000000E-03 0.  1.
        -12    1    3    3    0    0 -0.87390090884E+01 -0.46340780035E+01  0.13916977293E+02  0.17074168084E+02  0.00000000000E+00 0.  1.
</event>
<event>
 7    1  0.7674040E-012  0.5930195E+02  0.7816164E-02  0.1266605E+00
        -11   -1    0    0    0    0  0.00000000000E+00  0.00000000000E+00  0.45593999997E+02  0.45594000000E+02  0.51100000000E-03 0.  1.
         11   -1    0    0    0    0 -0.00000000000E+00 -0.00000000000E+00 -0.45593999997E+02  0.45594000000E+02  0.51100000000E-03 0. -1.
    9900012    2    1    2    0    0 -0.29927355260E+02 -0.10082023390E+02  0.44075653669E+01  0.59301946294E+02  0.50000004133E+02 0.  0.
         12    1    1    2    0    0  0.29927355260E+02  0.10082023390E+02 -0.44075653669E+01  0.31886053706E+02  0.00000000000E+00 0. -1.
         11    1    3    3    0    0 -0.78366065315E+01  0.10392023633E+02  0.16137114883E+02  0.20731932716E+02  0.51100000000E-03 0. -1.
        -11    1    3    3    0    0 -0.96035843664E+01 -0.17622636277E+02  0.15382128852E+01  0.20128393904E+02  0.51100000000E-03 0.  1.
         12    1    3    3    0    0 -0.12487164362E+02 -0.28514107464E+01 -0.13267762402E+02  0.18441619674E+02  0.00000000000E+00 0. -1.
</event>
<event>
 7    1  0.7674040E-012  0.5930194E+02  0.7816164E-02  0.1266605E+00
        -11   -1    0    0    0    0  0.00000000000E+00  0.00000000000E+00  0.45593999997E+02  0.45594000000E+02  0.51100000000E-03 0. -1.
         11   -1    0    0    0    0 -0.00000000000E+00 -0.00000000000E+00 -0.45593999997E+02  0.45594000000E+02  0.51100000000E-03 0.  1.
    9900012    2    1    2    0    0  0.17258511787E+02 -0.17180609239E+02  0.20583764458E+02  0.59301938434E+02  0.49999989799E+02 0.  0.
         12    1    1    2    0    0 -0.17258511787E+02  0.17180609239E+02 -0.20583764458E+02  0.31886061566E+02  0.00000000000E+00 0. -1.
         11    1    3    3    0    0  0.14888857613E+02 -0.19416578511E+02  0.35506939446E+01  0.24724259945E+02  0.51100000000E-03 0. -1.
        -11    1    3    3    0    0 -0.49422901635E+01  0.44221851987E+01 -0.68323403454E+01  0.95217030435E+01  0.51100000000E-03 0.  1.
         12    1    3    3    0    0  0.73119443369E+01 -0.21862159264E+01  0.23865410859E+02  0.25055975445E+02  0.00000000000E+00 0. -1.
</event>
<event>
 7    1  0.7674040E-012  0.5930193E+02  0.7816164E-02  0.1266605E+00
        -11   -1    0    0    0    0  0.00000000000E+00  0.00000000000E+00  0.45593999997E+02  0.45594000000E+02  0.51100000000E-03 0.  1.
         11   -1    0    0    0    0 -0.00000000000E+00 -0.00000000000E+00 -0.45593999997E+02  0.45594000000E+02  0.51100000000E-03 0. -1.
    9900012    2    1    2    0    0  0.26046452253E+02 -0.18269854675E+02 -0.21251417856E+01  0.59301929493E+02  0.49999973491E+02 0.  0.
         12    1    1    2    0    0 -0.26046452253E+02  0.18269854675E+02  0.21251417856E+01  0.31886070507E+02  0.00000000000E+00 0. -1.
         11    1    3    3    0    0  0.16117365767E+01  0.63449976245E+01  0.55563814639E+01  0.85866212728E+01  0.51100000000E-03 0. -1.
        -11    1    3    3    0    0  0.25850468460E+02 -0.30509072486E+01 -0.12024204024E+02  0.28672918186E+02  0.51100000000E-03 0.  1.
        -12    1    3    3    0    0 -0.14157527837E+01 -0.21563945051E+02  0.43426807741E+01  0.22042390034E+02  0.00000000000E+00 0.  1.
</event>
<event>
 7    1  0.7674040E-012  0.5930196E+02  0.7816164E-02  0.1266605E+00
        -11   -1    0    0    0    0  0.00000000000E+00  0.00000000000E+00  0.45593999997E+02  0.45594000000E+02  0.51100000000E-03 0. -1.
         11   -1    0    0    0    0 -0.00000000000E+00 -0.00000000000E+00 -0.45593999997E+02  0.45594000000E+02  0.51100000000E-03 0.  1.
    9900012    2    1    2    0    0  0.13047532776E+02 -0.27444987689E+02 -0.96568254043E+01  0.59301957008E+02  0.50000023673E+02 0.  0.
         12    1    1    2    0    0 -0.13047532776E+02  0.27444987689E+02  0.96568254043E+01  0.31886042992E+02  0.00000000000E+00 0. -1.
         11    1    3    3    0    0 -0.14616610067E+02 -0.62862892764E+01  0.13445687962E+01  0.15967798477E+02  0.51100000000E-03 0. -1.
        -11    1    3    3    0    0  0.54817545427E+01 -0.22948167473E+01 -0.12849090053E+02  0.14156798092E+02  0.51100000000E-03 0.  1.
         12    1    3    3    0    0  0.22182388300E+02 -0.18863881665E+02  0.18476958523E+01  0.29177360438E+02  0.00000000000E+00 0. -1.
</event>
<event>
 7    1  0.7674040E-012  0.5930195E+02  0.7816164E-02  0.1266605E+00
        -11   -1    0    0    0    0  0.00000000000E+00  0.00000000000E+00  0.45593999997E+02  0.45594000000E+02  0.51100000000E-03 0.  1.
         11   -1    0    0    0    0 -0.00000000000E+00 -0.00000000000E+00 -0.45593999997E+02  0.45594000000E+02  0.51100000000E-03 0. -1.
    9900012    2    1    2    0    0  0.25403625338E+02 -0.83544025100E+01  0.17366061222E+02  0.59301948129E+02  0.50000007479E+02 0.  0.
         12    1    1    2    0    0 -0.25403625338E+02  0.83544025100E+01 -0.17366061222E+02  0.31886051871E+02  0.00000000000E+00 0. -1.
         11    1    3    3    0    0  0.15052721565E+02  0.75093055673E+01 -0.37024937930E+01  0.17224475527E+02  0.51100000000E-03 0. -1.
        -11    1    3    3    0    0 -0.11042203845E+02 -0.38691269730E+01  0.48033146965E+01  0.12648013347E+02  0.51100000000E-03 0.  1.
         12    1    3    3    0    0  0.21393107618E+02 -0.11994581104E+02  0.16265240318E+02  0.29429459255E+02  0.00000000000E+00 0. -1.
</event>
<event>
 7    1  0.7674040E-012  0.5930194E+02  0.7816164E-02  0.1266605E+00
        -11   -1    0    0    0    0  0.00000000000E+00  0.00000000000E+00  0.45593999997E+02  0.45594000000E+02  0.51100000000E-03 0.  1.
         11   -1    0    0    0    0 -0.00000000000E+00 -0.00000000000E+00 -0.45593999997E+02  0.45594000000E+02  0.51100000000E-03 0. -1.
    9900012    2    1    2    0    0 -0.54590208403E+01 -0.19431241535E+02  0.24684943953E+02  0.59301944834E+02  0.50000001470E+02 0.  0.
         12    1    1    2    0    0  0.54590208403E+01  0.19431241535E+02 -0.24684943953E+02  0.31886055166E+02  0.00000000000E+00 0. -1.
         11    1    3    3    0    0  0.11981562878E+02 -0.26734555035E+02  0.20593680396E+02  0.35810528541E+02  0.51100000000E-03 0. -1.
        -11    1    3    3    0    0 -0.11428550763E+02 -0.11990023939E+01  0.59078452941E+01  0.12920991277E+02  0.51100000000E-03 0.  1.
         12    1    3    3    0    0 -0.60120329548E+01  0.85023158935E+01 -0.18165817374E+01  0.10570425016E+02  0.00000000000E+00 0. -1.
</event>
<event>
 7    1  0.7674040E-012  0.5930194E+02  0.7816164E-02  0.1266605E+00
        -11   -1    0    0    0    0  0.00000000000E+00  0.00000000000E+00  0.45593999997E+02  0.45594000000E+02  0.51100000000E-03 0.  1.
         11   -1    0    0    0    0 -0.00000000000E+00 -0.00000000000E+00 -0.45593999997E+02  0.45594000000E+02  0.51100000000E-03 0. -1.
    9900012    2    1    2    0    0 -0.27003208767E+02  0.11857462518E+02  0.12122218612E+02  0.59301939015E+02  0.49999990857E+02 0.  0.
         12    1    1    2    0    0  0.27003208767E+02 -0.11857462518E+02 -0.12122218612E+02  0.31886060985E+02  0.00000000000E+00 0. -1.
         11    1    3    3    0    0 -0.12349181607E+02  0.21867401574E+02  0.48077303090E+01  0.25569509361E+02  0.51100000000E-03 0. -1.
        -11    1    3    3    0    0 -0.21554292672E+02 -0.11754668450E+02  0.15971836767E+01  0.24603064015E+02  0.51100000000E-03 0.  1.
        -12    1    3    3    0    0  0.69002655112E+01  0.17447293939E+01  0.57173046262E+01  0.91293656391E+01  0.00000000000E+00 0.  1.
</event>
<event>
 7    1  0.7674040E-012  0.5930193E+02  0.7816164E-02  0.1266605E+00
        -11   -1    0    0    0    0  0.00000000000E+00  0.00000000000E+00  0.45593999997E+02  0.45594000000E+02  0.51100000000E-03 0.  1.
         11   -1    0    0    0    0 -0.00000000000E+00 -0.00000000000E+00 -0.45593999997E+02  0.45594000000E+02  0.51100000000E-03 0. -1.
    9900012    2    1    2    0    0  0.30005505867E+01 -0.26188876732E+02  0.17940489841E+02  0.59301925547E+02  0.49999966296E+02 0.  0.
         12    1    1    2    0    0 -0.30005505867E+01  0.26188876732E+02 -0.17940489841E+02  0.31886074453E+02  0.00000000000E+00 0. -1.
         11    1    3    3    0    0  0.64325479993E+01  0.42984952981E+01  0.24222073022E+01  0.81068997815E+01  0.51100000000E-03 0. -1.
        -11    1    3    3    0    0 -0.94674588440E+01 -0.20013303193E+02 -0.89682273764E+01  0.23887113350E+02  0.51100000000E-03 0.  1.
        -12    1    3    3    0    0  0.60354614315E+01 -0.10474068837E+02  0.24486509915E+02  0.27307912416E+02  0.00000000000E+00 0.  1.
</event>
<event>
 7    1  0.7674040E-012  0.5930195E+02  0.7816164E-02  0.1266605E+00
        -11   -1    0    0    0    0  0.00000000000E+00  0.00000000000E+00  0.45593999997E+02  0.45594000000E+02  0.51100000000E-03 0. -1.
         11   -1    0    0    0    0 -0.00000000000E+00 -0.00000000000E+00 -0.45593999997E+02  0.45594000000E+02  0.51100000000E-03 0.  1.
    9900012    2    1    2    0    0  0.22333044233E+02 -0.13225124761E+02 -0.18521648341E+02  0.59301949023E+02  0.50000009109E+02 0.  0.
         12    1    1    2    0    0 -0.22333044233E+02  0.13225124761E+02  0.18521648341E+02  0.31886050977E+02  0.00000000000E+00 0. -1.
         11    1    3    3    0    0 -0.23195897755E+01 -0.67083509236E+01 -0.12769778533E+01  0.72120136952E+01  0.51100000000E-03 0. -1.
        -11    1    3    3    0    0 -0.72751642247E+01 -0.24160662854E+01 -0.18343755158E+02  0.19881115269E+02  0.51100000000E-03 0.  1.
        -12    1    3    3    0    0  0.31927798233E+02 -0.41007075525E+01  0.10990846697E+01  0.32208820058E+02  0.00000000000E+00 0.  1.
</event>
<event>
 7    1  0.7674040E-012  0.5930195E+02  0.7816164E-02  0.1266605E+00
        -11   -1    0    0    0    0  0.00000000000E+00  0.00000000000E+00  0.45593999997E+02  0.45594000000E+02  0.51100000000E-03 0.  1.
         11   -1    0    0    0    0 -0.00000000000E+00 -0.00000000000E+00 -0.45593999997E+02  0.45594000000E+02  0.51100000000E-03 0. -1.
    9900012    2    1    2    0    0 -0.96098690347E+01  0.13825297064E+02 -0.27078250704E+02  0.59301951594E+02  0.50000013799E+02 0.  0.
         12    1    1    2    0    0  0.96098690347E+01 -0.13825297064E+02  0.27078250704E+02  0.31886048406E+02  0.00000000000E+00 0. -1.
         11    1    3    3    0    0  0.14330765666E+01 -0.25075462037E+01 -0.25109546224E+01  0.38270602016E+01  0.51100000000E-03 0. -1.
        -11    1    3    3    0    0  0.16748330416E+01  0.23759524846E+02  0.32110275002E+01  0.24033950664E+02  0.51100000000E-03 0.  1.
        -12    1    3    3    0    0 -0.12717778643E+02 -0.74266815789E+01 -0.27778323582E+02  0.31440940729E+02  0.00000000000E+00 0.  1.
</event>
<event>
 7    1  0.7674040E-012  0.5930192E+02  0.7816164E-02  0.1266605E+00
        -11   -1    0    0    0    0  0.00000000000E+00  0.00000000000E+00  0.45593999997E+02  0.45594000000E+02  0.51100000000E-03 0. -1.
         11   -1    0    0    0    0 -0.00000000000E+00 -0.00000000000E+00 -0.45593999997E+02  0.45594000000E+02  0.51100000000E-03 0.  1.
    9900012    2    1    2    0    0  0.50673721478E+01  0.29580278161E+02 -0.10772703663E+02  0.59301917443E+02  0.49999951516E+02 0.  0.
         12    1    1    2    0    0 -0.50673721478E+01 -0.29580278161E+02  0.10772703663E+02  0.31886082557E+02  0.00000000000E+00 0. -1.
         11    1    3    3    0    0  0.24395134326E+02  0.25772854697E+02  0.17659607707E+01  0.35531411958E+02  0.51100000000E-03 0.  1.
        -11    1    3    3    0    0 -0.90572515675E+01  0.13891954850E+00 -0.39203715078E+01  0.98702795106E+01  0.51100000000E-03 0. -1.
        -12    1    3    3    0    0 -0.10270510611E+02  0.36685039160E+01 -0.86182929262E+01  0.13900225975E+02  0.00000000000E+00 0.  1.
</event>
<event>
 7    1  0.7674040E-012  0.5930214E+02  0.7816164E-02  0.1266604E+00
        -11   -1    0    0    0    0  0.00000000000E+00  0.00000000000E+00  0.45593999997E+02  0.45594000000E+02  0.51100000000E-03 0. -1.
         11   -1    0    0    0    0 -0.00000000000E+00 -0.00000000000E+00 -0.45593999997E+02  0.45594000000E+02  0.51100000000E-03 0.  1.
    9900012    2    1    2    0    0  0.87793643603E+01 -0.22736987873E+02 -0.20558708102E+02  0.59302135814E+02  0.50000349770E+02 0.  0.
         12    1    1    2    0    0 -0.87793643603E+01  0.22736987873E+02  0.20558708102E+02  0.31885864186E+02  0.00000000000E+00 0. -1.
         11    1    3    3    0    0 -0.10943691030E+02  0.31786736232E+01  0.22577523701E+01  0.11617477583E+02  0.51100000000E-03 0.  1.
        -11    1    3    3    0    0  0.25720318293E+02 -0.23972272212E+02 -0.16788531553E+02  0.38962281761E+02  0.51100000000E-03 0. -1.
         12    1    3    3    0    0 -0.59972629026E+01 -0.19433892842E+01 -0.60279289186E+01  0.87223764698E+01  0.00000000000E+00 0. -1.
</event>
<event>
 7    1  0.7674040E-012  0.5930183E+02  0.7816164E-02  0.1266605E+00
        -11   -1    0    0    0    0  0.00000000000E+00  0.00000000000E+00  0.45593999997E+02  0.45594000000E+02  0.51100000000E-03 0.  1.
         11   -1    0    0    0    0 -0.00000000000E+00 -0.00000000000E+00 -0.45593999997E+02  0.45594000000E+02  0.51100000000E-03 0. -1.
    9900012    2    1    2    0    0  0.31660630827E+02  0.30207378595E+01  0.22820420153E+01  0.59301825609E+02  0.49999784031E+02 0.  0.
         12    1    1    2    0    0 -0.31660630827E+02 -0.30207378595E+01 -0.22820420153E+01  0.31886174391E+02  0.00000000000E+00 0. -1.
         11    1    3    3    0    0 -0.31903412423E+01  0.88192643685E+01 -0.86751175147E+01  0.12775576911E+02  0.51100000000E-03 0. -1.
        -11    1    3    3    0    0  0.17927785610E+02 -0.11746796069E+02  0.17253692212E+02  0.27515134199E+02  0.51100000000E-03 0.  1.
        -12    1    3    3    0    0  0.16923186459E+02  0.59482695603E+01 -0.62965326818E+01  0.19011114499E+02  0.00000000000E+00 0.  1.
</event>
<event>
 7    1  0.7674040E-012  0.5930195E+02  0.7816164E-02  0.1266605E+00
        -11   -1    0    0    0    0  0.00000000000E+00  0.00000000000E+00  0.45593999997E+02  0.45594000000E+02  0.51100000000E-03 0.  1.
         11   -1    0    0    0    0 -0.00000000000E+00 -0.00000000000E+00 -0.45593999997E+02  0.45594000000E+02  0.51100000000E-03 0. -1.
    9900012    2    1    2    0    0 -0.19228232780E+02  0.10761381913E+02  0.23047518616E+02  0.59301946765E+02  0.50000004993E+02 0.  0.
         12    1    1    2    0    0  0.19228232780E+02 -0.10761381913E+02 -0.23047518616E+02  0.31886053235E+02  0.00000000000E+00 0. -1.
         11    1    3    3    0    0  0.22245231002E+01  0.51481386039E+01 -0.14483237360E+02  0.15531129991E+02  0.51100000000E-03 0. -1.
        -11    1    3    3    0    0 -0.46608096845E+01  0.51238089769E+00  0.53352034258E+01  0.71028217601E+01  0.51100000000E-03 0.  1.
         12    1    3    3    0    0 -0.16791946196E+02  0.51008624118E+01  0.32195552550E+02  0.36667995015E+02  0.00000000000E+00 0. -1.
</event>
<event>
 7    1  0.7674040E-012  0.5930194E+02  0.7816164E-02  0.1266605E+00
        -11   -1    0    0    0    0  0.00000000000E+00  0.00000000000E+00  0.45593999997E+02  0.45594000000E+02  0.51100000000E-03 0. -1.
         11   -1    0    0    0    0 -0.00000000000E+00 -0.00000000000E+00 -0.45593999997E+02  0.45594000000E+02  0.51100000000E-03 0.  1.
    9900012    2    1    2    0    0 -0.69096549821E+01 -0.30576064531E+02 -0.58379609276E+01  0.59301939692E+02  0.49999992093E+02 0.  0.
         12    1    1    2    0    0  0.69096549821E+01  0.30576064531E+02  0.58379609276E+01  0.31886060308E+02  0.00000000000E+00 0. -1.
         11    1    3    3    0    0 -0.10048332438E+02  0.77151069479E+01 -0.39769365314E+01  0.13278097922E+02  0.51100000000E-03 0. -1.
        -11    1    3    3    0    0  0.12047867454E+02 -0.15189791673E+02 -0.72242001696E+01  0.20689851368E+02  0.51100000000E-03 0.  1.
         12    1    3    3    0    0 -0.89091899988E+01 -0.23101379805E+02  0.53631757734E+01  0.25333990402E+02  0.00000000000E+00 0. -1.
</event>
<event>
 7    1  0.7674040E-012  0.5930193E+02  0.7816164E-02  0.1266605E+00
        -11   -1    0    0    0    0  0.00000000000E+00  0.00000000000E+00  0.45593999997E+02  0.45594000000E+02  0.51100000000E-03 0. -1.
         11   -1    0    0    0    0 -0.00000000000E+00 -0.00000000000E+00 -0.45593999997E+02  0.45594000000E+02  0.51100000000E-03 0.  1.
    9900012    2    1    2    0    0  0.35567493443E+01  0.45940978647E+01 -0.31352279005E+02  0.59301927807E+02  0.49999970417E+02 0.  0.
         12    1    1    2    0    0 -0.35567493443E+01 -0.45940978647E+01  0.31352279005E+02  0.31886072193E+02  0.00000000000E+00 0. -1.
         11    1    3    3    0    0 -0.11981719406E+02 -0.12210238270E+02 -0.17015746275E+00  0.17107906720E+02  0.51100000000E-03 0. -1.
        -11    1    3    3    0    0  0.14794479367E+02  0.89709298958E+01 -0.10925196837E+02  0.20462505446E+02  0.51100000000E-03 0.  1.
         12    1    3    3    0    0  0.74398938283E+00  0.78334062386E+01 -0.20256924706E+02  0.21731515641E+02  0.00000000000E+00 0. -1.
</event>
<event>
 7    1  0.7674040E-012  0.5930195E+02  0.7816164E-02  0.1266605E+00
        -11   -1    0    0    0    0  0.00000000000E+00  0.00000000000E+00  0.45593999997E+02  0.45594000000E+02  0.51100000000E-03 0. -1.
         11   -1    0    0    0    0 -0.00000000000E+00 -0.00000000000E+00 -0.45593999997E+02  0.45594000000E+02  0.51100000000E-03 0.  1.
    9900012    2    1    2    0    0  0.56818093551E+01  0.18242084209E+02 -0.25527707244E+02  0.59301946136E+02  0.50000003845E+02 0.  0.
         12    1    1    2    0    0 -0.56818093551E+01 -0.18242084209E+02  0.25527707244E+02  0.31886053864E+02  0.00000000000E+00 0. -1.
         11    1    3    3    0    0 -0.94634144718E+00  0.21886763915E+02 -0.29952038640E+01  0.22111020855E+02  0.51100000000E-03 0. -1.
        -11    1    3    3    0    0  0.19750742442E+01 -0.16106942568E+02 -0.13534306986E+02  0.21130830155E+02  0.51100000000E-03 0.  1.
        -12    1    3    3    0    0  0.46530765580E+01  0.12462262863E+02 -0.89981963942E+01  0.16060095127E+02  0.00000000000E+00 0.  1.
</event>
<event>
 7    1  0.7674040E-012  0.5930194E+02  0.7816164E-02  0.1266605E+00
        -11   -1    0    0    0    0  0.00000000000E+00  0.00000000000E+00  0.45593999997E+02  0.45594000000E+02  0.51100000000E-03 0. -1.
         11   -1    0    0    0    0 -0.00000000000E+00 -0.00000000000E+00 -0.45593999997E+02  0.45594000000E+02  0.51100000000E-03 0.  1.
    9900012    2    1    2    0    0  0.26364831193E+01 -0.26184644938E+02 -0.18003720294E+02  0.59301943201E+02  0.49999998492E+02 0.  0.
         12    1    1    2    0    0 -0.26364831193E+01  0.26184644938E+02  0.18003720294E+02  0.31886056799E+02  0.00000000000E+00 0. -1.
         11    1    3    3    0    0 -0.23245614871E+00  0.74378515992E+01 -0.56597916812E+01  0.93492734695E+01  0.51100000000E-03 0.  1.
        -11    1    3    3    0    0  0.77187968503E+01 -0.15838292477E+02  0.10568411385E+02  0.20545623691E+02  0.51100000000E-03 0. -1.
        -12    1    3    3    0    0 -0.48498575823E+01 -0.17784204061E+02 -0.22912339998E+02  0.29407046040E+02  0.00000000000E+00 0.  1.
</event>
<event>
 7    1  0.7674040E-012  0.5930194E+02  0.7816164E-02  0.1266605E+00
        -11   -1    0    0    0    0  0.00000000000E+00  0.00000000000E+00  0.45593999997E+02  0.45594000000E+02  0.51100000000E-03 0.  1.
         11   -1    0    0    0    0 -0.00000000000E+00 -0.00000000000E+00 -0.45593999997E+02  0.45594000000E+02  0.51100000000E-03 0. -1.
    9900012    2    1    2    0    0  0.24868165997E+02 -0.19202575962E+02 -0.54365546590E+01  0.59301941444E+02  0.49999995289E+02 0.  0.
         12    1    1    2    0    0 -0.24868165997E+02  0.19202575962E+02  0.54365546590E+01  0.31886058556E+02  0.00000000000E+00 0. -1.
         11    1    3    3    0    0 -0.14202278187E+02 -0.42814560613E+01  0.29076815703E+01  0.15115891773E+02  0.51100000000E-03 0. -1.
        -11    1    3    3    0    0  0.45598774323E+01  0.12866378524E+01 -0.31910840021E+01  0.57123494755E+01  0.51100000000E-03 0.  1.
         12    1    3    3    0    0  0.34510566752E+02 -0.16207757753E+02 -0.51531522272E+01  0.38473700196E+02  0.00000000000E+00 0. -1.
</event>
<event>
 7    1  0.7674040E-012  0.5930194E+02  0.7816164E-02  0.1266605E+00
        -11   -1    0    0    0    0  0.00000000000E+00  0.00000000000E+00  0.45593999997E+02  0.45594000000E+02  0.51100000000E-03 0.  1.
         11   -1    0    0    0    0 -0.00000000000E+00 -0.00000000000E+00 -0.45593999997E+02  0.45594000000E+02  0.51100000000E-03 0. -1.
    9900012    2    1    2    0    0 -0.27735730442E+02  0.13937097787E+02  0.72943280787E+01  0.59301942545E+02  0.49999997296E+02 0.  0.
         12    1    1    2    0    0  0.27735730442E+02 -0.13937097787E+02 -0.72943280787E+01  0.31886057455E+02  0.00000000000E+00 0. -1.
         11    1    3    3    0    0 -0.22788049354E+02  0.77587954286E+01  0.14956022535E+01  0.24119098786E+02  0.51100000000E-03 0. -1.
        -11    1    3    3    0    0  0.13499012787E+02 -0.27364499186E+01 -0.39489534939E+00  0.13779239710E+02  0.51100000000E-03 0.  1.
        -12    1    3    3    0    0 -0.18446693875E+02  0.89147522772E+01  0.61936211746E+01  0.21403604050E+02  0.00000000000E+00 0.  1.
</event>
<event>
 7    1  0.7674040E-012  0.5930191E+02  0.7816164E-02  0.1266605E+00
        -11   -1    0    0    0    0  0.00000000000E+00  0.00000000000E+00  0.45593999997E+02  0.45594000000E+02  0.51100000000E-03 0.  1.
         11   -1    0    0    0    0 -0.00000000000E+00 -0.00000000000E+00 -0.45593999997E+02  0.45594000000E+02  0.51100000000E-03 0. -1.
    9900012    2    1    2    0    0  0.16291180879E+01  0.22795582619E+02  0.22235791779E+02  0.59301905088E+02  0.49999928983E+02 0.  0.
         12    1    1    2    0    0 -0.16291180879E+01 -0.22795582619E+02 -0.22235791779E+02  0.31886094912E+02  0.00000000000E+00 0. -1.
         11    1    3    3    0    0 -0.30606391928E+01 -0.10840418926E+02  0.48665870338E+01  0.12270528284E+02  0.51100000000E-03 0. -1.
        -11    1    3    3    0    0  0.20312633324E+01  0.21154663263E+02  0.24483877089E+02  0.32420765661E+02  0.51100000000E-03 0.  1.
         12    1    3    3    0    0  0.26584939483E+01  0.12481338283E+02 -0.71146723439E+01  0.14610611142E+02  0.00000000000E+00 0. -1.
</event>
<event>
 7    1  0.7674040E-012  0.5930202E+02  0.7816164E-02  0.1266604E+00
        -11   -1    0    0    0    0  0.00000000000E+00  0.00000000000E+00  0.45593999997E+02  0.45594000000E+02  0.51100000000E-03 0. -1.
         11   -1    0    0    0    0 -0.00000000000E+00 -0.00000000000E+00 -0.45593999997E+02  0.45594000000E+02  0.51100000000E-03 0.  1.
    9900012    2    1    2    0    0  0.20671765161E+02 -0.13245583391E+02 -0.20345719400E+02  0.59302021073E+02  0.50000140512E+02 0.  0.
         12    1    1    2    0    0 -0.20671765161E+02  0.13245583391E+02  0.20345719400E+02  0.31885978927E+02  0.00000000000E+00 0. -1.
         11    1    3    3    0    0  0.81114749333E+01  0.10583369970E+02  0.82450883443E+01  0.15677538952E+02  0.51100000000E-03 0. -1.
        -11    1    3    3    0    0 -0.16710393024E+00 -0.44089406113E+01 -0.17209477186E+02  0.17766057140E+02  0.51100000000E-03 0.  1.
         12    1    3    3    0    0  0.12727394158E+02 -0.19420012749E+02 -0.11381330558E+02  0.25858424981E+02  0.00000000000E+00 0. -1.
</event>
<event>
 7    1  0.7674040E-012  0.5930197E+02  0.7816164E-02  0.1266605E+00
        -11   -1    0    0    0    0  0.00000000000E+00  0.00000000000E+00  0.45593999997E+02  0.45594000000E+02  0.51100000000E-03 0.  1.
         11   -1    0    0    0    0 -0.00000000000E+00 -0.00000000000E+00 -0.45593999997E+02  0.45594000000E+02  0.51100000000E-03 0. -1.
    9900012    2    1    2    0    0 -0.27255049467E+02 -0.16520503004E+02 -0.97695395817E+00  0.59301965753E+02  0.50000039622E+02 0.  0.
         12    1    1    2    0    0  0.27255049467E+02  0.16520503004E+02  0.97695395817E+00  0.31886034247E+02  0.00000000000E+00 0. -1.
         11    1    3    3    0    0 -0.94980584060E+01  0.13335786831E+01  0.13710064619E+01  0.96887153208E+01  0.51100000000E-03 0. -1.
        -11    1    3    3    0    0 -0.18115398218E+00  0.43474114387E+01 -0.17127723046E+02  0.17671776933E+02  0.51100000000E-03 0.  1.
        -12    1    3    3    0    0 -0.17575837079E+02 -0.22201493126E+02  0.14779762626E+02  0.31941473499E+02  0.00000000000E+00 0.  1.
</event>
<event>
 7    1  0.7674040E-012  0.5930196E+02  0.7816164E-02  0.1266605E+00
        -11   -1    0    0    0    0  0.00000000000E+00  0.00000000000E+00  0.45593999997E+02  0.45594000000E+02  0.51100000000E-03 0. -1.
         11   -1    0    0    0    0 -0.00000000000E+00 -0.00000000000E+00 -0.45593999997E+02  0.45594000000E+02  0.51100000000E-03 0.  1.
    9900012    2    1    2    0    0 -0.19163472819E+02 -0.25355938693E+02 -0.25606468280E+01  0.59301964974E+02  0.50000038201E+02 0.  0.
         12    1    1    2    0    0  0.19163472819E+02  0.25355938693E+02  0.25606468280E+01  0.31886035026E+02  0.00000000000E+00 0. -1.
         11    1    3    3    0    0 -0.10144819287E+02 -0.84400420765E+01  0.54367690601E+01  0.14272705655E+02  0.51100000000E-03 0. -1.
        -11    1    3    3    0    0  0.78360398634E-01 -0.28903633763E+02 -0.79629837405E+01  0.29980581972E+02  0.51100000000E-03 0.  1.
        -12    1    3    3    0    0 -0.90970139304E+01  0.11987737146E+02 -0.34432147614E-01  0.15048677348E+02  0.00000000000E+00 0.  1.
</event>
<event>
 7    1  0.7674040E-012  0.5930194E+02  0.7816164E-02  0.1266605E+00
        -11   -1    0    0    0    0  0.00000000000E+00  0.00000000000E+00  0.45593999997E+02  0.45594000000E+02  0.51100000000E-03 0. -1.
         11   -1    0    0    0    0 -0.00000000000E+00 -0.00000000000E+00 -0.45593999997E+02  0.45594000000E+02  0.51100000000E-03 0.  1.
    9900012    2    1    2    0    0 -0.23785742408E+02  0.40553189819E-01 -0.21235762107E+02  0.59301940684E+02  0.49999993902E+02 0.  0.
         12    1    1    2    0    0  0.23785742408E+02 -0.40553189819E-01  0.21235762107E+02  0.31886059316E+02  0.00000000000E+00 0. -1.
         11    1    3    3    0    0 -0.77594076437E+01 -0.22027667406E+02 -0.38773683315E+01  0.23674047473E+02  0.51100000000E-03 0. -1.
        -11    1    3    3    0    0 -0.13960609457E+02  0.20567672600E+02 -0.82855400052E+01  0.26202632426E+02  0.51100000000E-03 0.  1.
        -12    1    3    3    0    0 -0.20657253068E+01  0.15005479955E+01 -0.90728537703E+01  0.94252607851E+01  0.00000000000E+00 0.  1.
</event>
<event>
 7    1  0.7674040E-012  0.5930194E+02  0.7816164E-02  0.1266605E+00
        -11   -1    0    0    0    0  0.00000000000E+00  0.00000000000E+00  0.45593999997E+02  0.45594000000E+02  0.51100000000E-03 0.  1.
         11   -1    0    0    0    0 -0.00000000000E+00 -0.00000000000E+00 -0.45593999997E+02  0.45594000000E+02  0.51100000000E-03 0. -1.
    9900012    2    1    2    0    0  0.89436620969E+00  0.68932779325E+01  0.31119185623E+02  0.59301939011E+02  0.49999990851E+02 0.  0.
         12    1    1    2    0    0 -0.89436620969E+00 -0.68932779325E+01 -0.31119185623E+02  0.31886060989E+02  0.00000000000E+00 0. -1.
         11    1    3    3    0    0 -0.13060957198E+02  0.17299698192E+02  0.16223333280E+02  0.27075167653E+02  0.51100000000E-03 0.  1.
        -11    1    3    3    0    0  0.38943421524E+01 -0.10495066191E+02 -0.30944275240E+01  0.11614120592E+02  0.51100000000E-03 0. -1.
         12    1    3    3    0    0  0.10060981255E+02  0.88645931622E-01  0.17990279867E+02  0.20612650766E+02  0.00000000000E+00 0. -1.
</event>
<event>
 7    1  0.7674040E-012  0.5930193E+02  0.7816164E-02  0.1266605E+00
        -11   -1    0    0    0    0  0.00000000000E+00  0.00000000000E+00  0.45593999997E+02  0.45594000000E+02  0.51100000000E-03 0. -1.
         11   -1    0    0    0    0 -0.00000000000E+00 -0.00000000000E+00 -0.45593999997E+02  0.45594000000E+02  0.51100000000E-03 0.  1.
    9900012    2    1    2    0    0 -0.10865196167E+01  0.27244120940E+02 -0.16531744285E+02  0.59301933768E+02  0.49999981289E+02 0.  0.
         12    1    1    2    0    0  0.10865196167E+01 -0.27244120940E+02  0.16531744285E+02  0.31886066232E+02  0.00000000000E+00 0. -1.
         11    1    3    3    0    0  0.76134359986E+01 -0.10495825127E+02  0.74870697315E+00  0.12987968094E+02  0.51100000000E-03 0. -1.
        -11    1    3    3    0    0  0.45553086039E+01  0.14108528603E+02 -0.13604653769E+01  0.14887991205E+02  0.51100000000E-03 0.  1.
         12    1    3    3    0    0 -0.13255264219E+02  0.23631417464E+02 -0.15919985881E+02  0.31425974469E+02  0.00000000000E+00 0. -1.
</event>
<event>
 7    1  0.7674040E-012  0.5930194E+02  0.7816164E-02  0.1266605E+00
        -11   -1    0    0    0    0  0.00000000000E+00  0.00000000000E+00  0.45593999997E+02  0.45594000000E+02  0.51100000000E-03 0.  1.
         11   -1    0    0    0    0 -0.00000000000E+00 -0.00000000000E+00 -0.45593999997E+02  0.45594000000E+02  0.51100000000E-03 0. -1.
    9900012    2    1    2    0    0  0.13460544652E+02  0.18956655380E+02  0.21821544937E+02  0.59301939269E+02  0.49999991321E+02 0.  0.
         12    1    1    2    0    0 -0.13460544652E+02 -0.18956655380E+02 -0.21821544937E+02  0.31886060731E+02  0.00000000000E+00 0. -1.
         11    1    3    3    0    0 -0.33537697392E+01  0.16063299380E+02  0.10225185531E+02  0.19334729836E+02  0.51100000000E-03 0. -1.
        -11    1    3    3    0    0 -0.58289226644E+00  0.27306167908E+01 -0.11056878700E+02  0.11403972917E+02  0.51100000000E-03 0.  1.
        -12    1    3    3    0    0  0.17397206658E+02  0.16273920908E+00  0.22653238106E+02  0.28563236515E+02  0.00000000000E+00 0.  1.
</event>
<event>
 7    1  0.7674040E-012  0.5930220E+02  0.7816164E-02  0.1266604E+00
        -11   -1    0    0    0    0  0.00000000000E+00  0.00000000000E+00  0.45593999997E+02  0.45594000000E+02  0.51100000000E-03 0.  1.
         11   -1    0    0    0    0 -0.00000000000E+00 -0.00000000000E+00 -0.45593999997E+02  0.45594000000E+02  0.51100000000E-03 0. -1.
    9900012    2    1    2    0    0 -0.22199110230E+02 -0.21686454386E+02  0.73213191127E+01  0.59302195754E+02  0.50000459087E+02 0.  0.
         12    1    1    2    0    0  0.22199110230E+02  0.21686454386E+02 -0.73213191127E+01  0.31885804246E+02  0.00000000000E+00 0. -1.
         11    1    3    3    0    0  0.81348989938E-01  0.21251047686E+01 -0.12900608720E+02  0.13074723460E+02  0.51100000000E-03 0. -1.
        -11    1    3    3    0    0 -0.35901285377E+01 -0.22136889592E+02  0.78932855524E+01  0.23774668469E+02  0.51100000000E-03 0.  1.
        -12    1    3    3    0    0 -0.18690330682E+02 -0.16746695626E+01  0.12328642281E+02  0.22452803826E+02  0.00000000000E+00 0.  1.
</event>
<event>
 7    1  0.7674040E-012  0.5930195E+02  0.7816164E-02  0.1266605E+00
        -11   -1    0    0    0    0  0.00000000000E+00  0.00000000000E+00  0.45593999997E+02  0.45594000000E+02  0.51100000000E-03 0.  1.
         11   -1    0    0    0    0 -0.00000000000E+00 -0.00000000000E+00 -0.45593999997E+02  0.45594000000E+02  0.51100000000E-03 0. -1.
    9900012    2    1    2    0    0  0.14603301439E+02  0.28156658988E+02  0.32658965158E+01  0.59301953861E+02  0.50000017934E+02 0.  0.
         12    1    1    2    0    0 -0.14603301439E+02 -0.28156658988E+02 -0.32658965158E+01  0.31886046139E+02  0.00000000000E+00 0. -1.
         11    1    3    3    0    0  0.15254878151E+02  0.83212166804E+01 -0.12727174055E+02  0.21539148407E+02  0.51100000000E-03 0. -1.
        -11    1    3    3    0    0  0.12157464494E+02  0.17195514240E+02  0.11044560797E+02  0.23779654672E+02  0.51100000000E-03 0.  1.
         12    1    3    3    0    0 -0.12809041205E+02  0.26399280684E+01  0.49485097739E+01  0.13983150782E+02  0.00000000000E+00 0. -1.
</event>
<event>
 7    1  0.7674040E-012  0.5930192E+02  0.7816164E-02  0.1266605E+00
        -11   -1    0    0    0    0  0.00000000000E+00  0.00000000000E+00  0.45593999997E+02  0.45594000000E+02  0.51100000000E-03 0.  1.
         11   -1    0    0    0    0 -0.00000000000E+00 -0.00000000000E+00 -0.45593999997E+02  0.45594000000E+02  0.51100000000E-03 0. -1.
    9900012    2    1    2    0    0  0.56416848260E+01 -0.18041572933E+02  0.25678690226E+02  0.59301920070E+02  0.49999956307E+02 0.  0.
         12    1    1    2    0    0 -0.56416848260E+01  0.18041572933E+02 -0.25678690226E+02  0.31886079930E+02  0.00000000000E+00 0. -1.
         11    1    3    3    0    0  0.11029563363E+02 -0.19825294660E+02  0.43300531181E+01  0.23096383626E+02  0.51100000000E-03 0. -1.
        -11    1    3    3    0    0 -0.37418515602E+01  0.11368173853E+02  0.23385171510E+02  0.26269813031E+02  0.51100000000E-03 0.  1.
         12    1    3    3    0    0 -0.16460269771E+01 -0.95844521264E+01 -0.20365344018E+01  0.99357234131E+01  0.00000000000E+00 0. -1.
</event>
<event>
 7    1  0.7674040E-012  0.5930198E+02  0.7816164E-02  0.1266605E+00
        -11   -1    0    0    0    0  0.00000000000E+00  0.00000000000E+00  0.45593999997E+02  0.45594000000E+02  0.51100000000E-03 0.  1.
         11   -1    0    0    0    0 -0.00000000000E+00 -0.00000000000E+00 -0.45593999997E+02  0.45594000000E+02  0.51100000000E-03 0. -1.
    9900012    2    1    2    0    0 -0.15673699736E+02 -0.17957506656E+02  0.21179741240E+02  0.59301978804E+02  0.50000063424E+02 0.  0.
         12    1    1    2    0    0  0.15673699736E+02  0.17957506656E+02 -0.21179741240E+02  0.31886021196E+02  0.00000000000E+00 0. -1.
         11    1    3    3    0    0  0.11636135753E+02 -0.53841577944E+01  0.87891124246E+01  0.15544687449E+02  0.51100000000E-03 0.  1.
        -11    1    3    3    0    0 -0.21970625160E+02 -0.13613262519E+02 -0.43010135090E+01  0.26201679408E+02  0.51100000000E-03 0. -1.
        -12    1    3    3    0    0 -0.53392103284E+01  0.10399136575E+01  0.16691642324E+02  0.17555611947E+02  0.00000000000E+00 0.  1.
</event>
<event>
 7    1  0.7674040E-012  0.5930194E+02  0.7816164E-02  0.1266605E+00
        -11   -1    0    0    0    0  0.00000000000E+00  0.00000000000E+00  0.45593999997E+02  0.45594000000E+02  0.51100000000E-03 0. -1.
         11   -1    0    0    0    0 -0.00000000000E+00 -0.00000000000E+00 -0.45593999997E+02  0.45594000000E+02  0.51100000000E-03 0.  1.
    9900012    2    1    2    0    0  0.14082010258E+02 -0.19303458568E+01 -0.28542802754E+02  0.59301939769E+02  0.49999992233E+02 0.  0.
         12    1    1    2    0    0 -0.14082010258E+02  0.19303458568E+01  0.28542802754E+02  0.31886060231E+02  0.00000000000E+00 0. -1.
         11    1    3    3    0    0  0.25482137302E+01 -0.33690909864E+01  0.38086242932E+01  0.56876872767E+01  0.51100000000E-03 0. -1.
        -11    1    3    3    0    0  0.85960880578E+01  0.19757043282E+02 -0.26515077656E+02  0.34165521108E+02  0.51100000000E-03 0.  1.
        -12    1    3    3    0    0  0.29377084697E+01 -0.18318298153E+02 -0.58363493904E+01  0.19448731385E+02  0.00000000000E+00 0.  1.
</event>
<event>
 7    1  0.7674040E-012  0.5930196E+02  0.7816164E-02  0.1266605E+00
        -11   -1    0    0    0    0  0.00000000000E+00  0.00000000000E+00  0.45593999997E+02  0.45594000000E+02  0.51100000000E-03 0. -1.
         11   -1    0    0    0    0 -0.00000000000E+00 -0.00000000000E+00 -0.45593999997E+02  0.45594000000E+02  0.51100000000E-03 0.  1.
    9900012    2    1    2    0    0  0.15289472567E+02  0.11164777715E+02 -0.25657349938E+02  0.59301955425E+02  0.50000020786E+02 0.  0.
         12    1    1    2    0    0 -0.15289472567E+02 -0.11164777715E+02  0.25657349938E+02  0.31886044575E+02  0.00000000000E+00 0. -1.
         11    1    3    3    0    0 -0.32384675323E+01  0.12201010513E+02 -0.19879513055E+01  0.12779056309E+02  0.51100000000E-03 0. -1.
        -11    1    3    3    0    0  0.23158658359E+02 -0.34771329162E+01 -0.11969221736E+01  0.23448806649E+02  0.51100000000E-03 0.  1.
        -12    1    3    3    0    0 -0.46307182599E+01  0.24409001186E+01 -0.22472476459E+02  0.23074092467E+02  0.00000000000E+00 0.  1.
</event>
<event>
 7    1  0.7674040E-012  0.5930193E+02  0.7816164E-02  0.1266605E+00
        -11   -1    0    0    0    0  0.00000000000E+00  0.00000000000E+00  0.45593999997E+02  0.45594000000E+02  0.51100000000E-03 0.  1.
         11   -1    0    0    0    0 -0.00000000000E+00 -0.00000000000E+00 -0.45593999997E+02  0.45594000000E+02  0.51100000000E-03 0. -1.
    9900012    2    1    2    0    0  0.21881614672E+02  0.20827011228E+02 -0.10205497943E+02  0.59301927091E+02  0.49999969111E+02 0.  0.
         12    1    1    2    0    0 -0.21881614672E+02 -0.20827011228E+02  0.10205497943E+02  0.31886072909E+02  0.00000000000E+00 0. -1.
         11    1    3    3    0    0  0.35148299065E+01 -0.88161317038E+01  0.12468344457E+02  0.15669646494E+02  0.51100000000E-03 0. -1.
        -11    1    3    3    0    0  0.18144449072E+02  0.24124973927E+02 -0.13825971214E+02  0.33202302320E+02  0.51100000000E-03 0.  1.
        -12    1    3    3    0    0  0.22233569349E+00  0.55181690046E+01 -0.88478711854E+01  0.10429978276E+02  0.00000000000E+00 0.  1.
</event>
<event>
 7    1  0.7674040E-012  0.5930204E+02  0.7816164E-02  0.1266604E+00
        -11   -1    0    0    0    0  0.00000000000E+00  0.00000000000E+00  0.45593999997E+02  0.45594000000E+02  0.51100000000E-03 0. -1.
         11   -1    0    0    0    0 -0.00000000000E+00 -0.00000000000E+00 -0.45593999997E+02  0.45594000000E+02  0.51100000000E-03 0.  1.
    9900012    2    1    2    0    0  0.15968402117E+02 -0.27293900496E+02  0.40948286036E+01  0.59302039269E+02  0.50000173698E+02 0.  0.
         12    1    1    2    0    0 -0.15968402117E+02  0.27293900496E+02 -0.40948286036E+01  0.31885960731E+02  0.00000000000E+00 0. -1.
         11    1    3    3    0    0 -0.36996735228E+01 -0.80637857701E+01  0.14742262376E+02  0.17206002596E+02  0.51100000000E-03 0. -1.
        -11    1    3    3    0    0  0.70897499524E+01  0.28790298984E+01 -0.14474806709E+02  0.16372947110E+02  0.51100000000E-03 0.  1.
        -12    1    3    3    0    0  0.12578325687E+02 -0.22109144624E+02  0.38273729367E+01  0.25723089563E+02  0.00000000000E+00 0.  1.
</event>
<event>
 7    1  0.7674040E-012  0.5930179E+02  0.7816164E-02  0.1266605E+00
        -11   -1    0    0    0    0  0.00000000000E+00  0.00000000000E+00  0.45593999997E+02  0.45594000000E+02  0.51100000000E-03 0.  1.
         11   -1    0    0    0    0 -0.00000000000E+00 -0.00000000000E+00 -0.45593999997E+02  0.45594000000E+02  0.51100000000E-03 0. -1.
    9900012    2    1    2    0    0  0.80590255905E+01 -0.20711042837E+02  0.22865595014E+02  0.59301786299E+02  0.49999712340E+02 0.  0.
         12    1    1    2    0    0 -0.80590255905E+01  0.20711042837E+02 -0.22865595014E+02  0.31886213701E+02  0.00000000000E+00 0. -1.
         11    1    3    3    0    0  0.80521740223E+01  0.50907250216E+01 -0.73208056878E+01  0.12014457287E+02  0.51100000000E-03 0. -1.
        -11    1    3    3    0    0 -0.10877999454E+02 -0.14930849552E+02  0.76356554709E+01  0.19989106413E+02  0.51100000000E-03 0.  1.
        -12    1    3    3    0    0  0.10884851022E+02 -0.10870918307E+02  0.22550745231E+02  0.27298222599E+02  0.00000000000E+00 0.  1.
</event>
<event>
 7    1  0.7674040E-012  0.5930193E+02  0.7816164E-02  0.1266605E+00
        -11   -1    0    0    0    0  0.00000000000E+00  0.00000000000E+00  0.45593999997E+02  0.45594000000E+02  0.51100000000E-03 0. -1.
         11   -1    0    0    0    0 -0.00000000000E+00 -0.00000000000E+00 -0.45593999997E+02  0.45594000000E+02  0.51100000000E-03 0.  1.
    9900012    2    1    2    0    0  0.22125254293E+02  0.20823522094E+02 -0.96734414044E+01  0.59301930651E+02  0.49999975605E+02 0.  0.
         12    1    1    2    0    0 -0.22125254293E+02 -0.20823522094E+02  0.96734414044E+01  0.31886069349E+02  0.00000000000E+00 0. -1.
         11    1    3    3    0    0  0.42723916471E+01  0.28318642654E+01 -0.16310673703E+02  0.17097100998E+02  0.51100000000E-03 0.  1.
        -11    1    3    3    0    0  0.27644358958E+01  0.92957762001E+00  0.16952268546E+02  0.17201326387E+02  0.51100000000E-03 0. -1.
        -12    1    3    3    0    0  0.15088426750E+02  0.17062080208E+02 -0.10315036247E+02  0.25003503266E+02  0.00000000000E+00 0.  1.
</event>
<event>
 7    1  0.7674040E-012  0.5930192E+02  0.7816164E-02  0.1266605E+00
        -11   -1    0    0    0    0  0.00000000000E+00  0.00000000000E+00  0.45593999997E+02  0.45594000000E+02  0.51100000000E-03 0. -1.
         11   -1    0    0    0    0 -0.00000000000E+00 -0.00000000000E+00 -0.45593999997E+02  0.45594000000E+02  0.51100000000E-03 0.  1.
    9900012    2    1    2    0    0 -0.86789366749E+01 -0.28267292659E+02  0.11931392071E+02  0.59301923213E+02  0.49999962039E+02 0.  0.
         12    1    1    2    0    0  0.86789366749E+01  0.28267292659E+02 -0.11931392071E+02  0.31886076787E+02  0.00000000000E+00 0. -1.
         11    1    3    3    0    0 -0.23311015857E+02 -0.22209018159E+02  0.95902304472E+01  0.33594887530E+02  0.51100000000E-03 0. -1.
        -11    1    3    3    0    0  0.27977965619E+01 -0.77383978819E+01 -0.67875846111E+01  0.10666853917E+02  0.51100000000E-03 0.  1.
         12    1    3    3    0    0  0.11834282620E+02  0.16801233818E+01  0.91287462353E+01  0.15040181766E+02  0.00000000000E+00 0. -1.
</event>
<event>
 7    1  0.7674040E-012  0.5930195E+02  0.7816164E-02  0.1266605E+00
        -11   -1    0    0    0    0  0.00000000000E+00  0.00000000000E+00  0.45593999997E+02  0.45594000000E+02  0.51100000000E-03 0. -1.
         11   -1    0    0    0    0 -0.00000000000E+00 -0.00000000000E+00 -0.45593999997E+02  0.45594000000E+02  0.51100000000E-03 0.  1.
    9900012    2    1    2    0    0 -0.22176456527E+02  0.17200868830E+02 -0.15134562947E+02  0.59301951198E+02  0.50000013076E+02 0.  0.
         12    1    1    2    0    0  0.22176456527E+02 -0.17200868830E+02  0.15134562947E+02  0.31886048802E+02  0.00000000000E+00 0. -1.
         11    1    3    3    0    0 -0.21381529199E+02  0.11481559142E+01 -0.27895663786E+02  0.35166121640E+02  0.51100000000E-03 0. -1.
        -11    1    3    3    0    0  0.49451838908E+01  0.75961354874E+01  0.19755344227E+01  0.92767911787E+01  0.51100000000E-03 0.  1.
         12    1    3    3    0    0 -0.57401112192E+01  0.84565774289E+01  0.10785566417E+02  0.14859038379E+02  0.00000000000E+00 0. -1.
</event>
<event>
 7    1  0.7674040E-012  0.5930194E+02  0.7816164E-02  0.1266605E+00
        -11   -1    0    0    0    0  0.00000000000E+00  0.00000000000E+00  0.45593999997E+02  0.45594000000E+02  0.51100000000E-03 0. -1.
         11   -1    0    0    0    0 -0.00000000000E+00 -0.00000000000E+00 -0.45593999997E+02  0.45594000000E+02  0.51100000000E-03 0.  1.
    9900012    2    1    2    0    0 -0.25497798047E+02 -0.13582761208E+02 -0.13494126573E+02  0.59301944125E+02  0.50000000178E+02 0.  0.
         12    1    1    2    0    0  0.25497798047E+02  0.13582761208E+02  0.13494126573E+02  0.31886055875E+02  0.00000000000E+00 0. -1.
         11    1    3    3    0    0 -0.10327844228E+02 -0.56260669088E+01  0.17576040346E+02  0.21147912185E+02  0.51100000000E-03 0. -1.
        -11    1    3    3    0    0 -0.36843434140E+01 -0.84130606918E+01 -0.20808550642E+02  0.22745323842E+02  0.51100000000E-03 0.  1.
         12    1    3    3    0    0 -0.11485610405E+02  0.45636639237E+00 -0.10261616277E+02  0.15408708099E+02  0.00000000000E+00 0. -1.
</event>
<event>
 7    1  0.7674040E-012  0.5930195E+02  0.7816164E-02  0.1266605E+00
        -11   -1    0    0    0    0  0.00000000000E+00  0.00000000000E+00  0.45593999997E+02  0.45594000000E+02  0.51100000000E-03 0.  1.
         11   -1    0    0    0    0 -0.00000000000E+00 -0.00000000000E+00 -0.45593999997E+02  0.45594000000E+02  0.51100000000E-03 0. -1.
    9900012    2    1    2    0    0 -0.85932027967E+01  0.17437572900E+02  0.25274654933E+02  0.59301948741E+02  0.50000008595E+02 0.  0.
         12    1    1    2    0    0  0.85932027967E+01 -0.17437572900E+02 -0.25274654933E+02  0.31886051259E+02  0.00000000000E+00 0. -1.
         11    1    3    3    0    0 -0.87226211484E+01 -0.88777201001E+01 -0.57936366143E-01  0.12445938726E+02  0.51100000000E-03 0. -1.
        -11    1    3    3    0    0 -0.12838185186E+02  0.14417900525E+02  0.49549859016E+01  0.19931049645E+02  0.51100000000E-03 0.  1.
         12    1    3    3    0    0  0.12967603537E+02  0.11897392475E+02  0.20377605397E+02  0.26924960370E+02  0.00000000000E+00 0. -1.
</event>
<event>
 7    1  0.7674040E-012  0.5930196E+02  0.7816164E-02  0.1266605E+00
        -11   -1    0    0    0    0  0.00000000000E+00  0.00000000000E+00  0.45593999997E+02  0.45594000000E+02  0.51100000000E-03 0.  1.
         11   -1    0    0    0    0 -0.00000000000E+00 -0.00000000000E+00 -0.45593999997E+02  0.45594000000E+02  0.51100000000E-03 0. -1.
    9900012    2    1    2    0    0  0.27161592324E+01 -0.15948452043E+02  0.27477062608E+02  0.59301958961E+02  0.50000027235E+02 0.  0.
         12    1    1    2    0    0 -0.27161592324E+01  0.15948452043E+02 -0.27477062608E+02  0.31886041039E+02  0.00000000000E+00 0. -1.
         11    1    3    3    0    0 -0.19956114526E+01  0.12742812611E+02  0.17728003200E+02  0.21923590856E+02  0.51100000000E-03 0. -1.
        -11    1    3    3    0    0  0.13060065909E+02 -0.15101961008E+02  0.72153316468E+01  0.21229591585E+02  0.51100000000E-03 0.  1.
        -12    1    3    3    0    0 -0.83482952238E+01 -0.13589303646E+02  0.25337277613E+01  0.16148776520E+02  0.00000000000E+00 0.  1.
</event>
<event>
 7    1  0.7674040E-012  0.5930194E+02  0.7816164E-02  0.1266605E+00
        -11   -1    0    0    0    0  0.00000000000E+00  0.00000000000E+00  0.45593999997E+02  0.45594000000E+02  0.51100000000E-03 0.  1.
         11   -1    0    0    0    0 -0.00000000000E+00 -0.00000000000E+00 -0.45593999997E+02  0.45594000000E+02  0.51100000000E-03 0. -1.
    9900012    2    1    2    0    0 -0.22884210135E+02  0.98096171483E+01  0.19919968149E+02  0.59301940457E+02  0.49999993489E+02 0.  0.
         12    1    1    2    0    0  0.22884210135E+02 -0.98096171483E+01 -0.19919968149E+02  0.31886059543E+02  0.00000000000E+00 0. -1.
         11    1    3    3    0    0 -0.15549512209E+02  0.52261253726E+01 -0.24082299786E+01  0.16580087100E+02  0.51100000000E-03 0. -1.
        -11    1    3    3    0    0 -0.12994378637E+02 -0.75460539763E+01  0.24908872839E+02  0.29090354985E+02  0.51100000000E-03 0.  1.
        -12    1    3    3    0    0  0.56596807113E+01  0.12129545752E+02 -0.25806747116E+01  0.13631498372E+02  0.00000000000E+00 0.  1.
</event>
<event>
 7    1  0.7674040E-012  0.5930194E+02  0.7816164E-02  0.1266605E+00
        -11   -1    0    0    0    0  0.00000000000E+00  0.00000000000E+00  0.45593999997E+02  0.45594000000E+02  0.51100000000E-03 0. -1.
         11   -1    0    0    0    0 -0.00000000000E+00 -0.00000000000E+00 -0.45593999997E+02  0.45594000000E+02  0.51100000000E-03 0.  1.
    9900012    2    1    2    0    0  0.17896965566E+02  0.18887049202E+02 -0.18430914820E+02  0.59301943092E+02  0.49999998293E+02 0.  0.
         12    1    1    2    0    0 -0.17896965566E+02 -0.18887049202E+02  0.18430914820E+02  0.31886056908E+02  0.00000000000E+00 0. -1.
         11    1    3    3    0    0 -0.33040096576E+00  0.20272750911E+02 -0.15564630202E+02  0.25560737624E+02  0.51100000000E-03 0.  1.
        -11    1    3    3    0    0  0.24504877897E+02  0.13085058828E+01  0.30185091583E+01  0.24724737131E+02  0.51100000000E-03 0. -1.
        -12    1    3    3    0    0 -0.62775113649E+01 -0.26942075915E+01 -0.58847937762E+01  0.90164683369E+01  0.00000000000E+00 0.  1.
</event>
<event>
 7    1  0.7674040E-012  0.5930195E+02  0.7816164E-02  0.1266605E+00
        -11   -1    0    0    0    0  0.00000000000E+00  0.00000000000E+00  0.45593999997E+02  0.45594000000E+02  0.51100000000E-03 0. -1.
         11   -1    0    0    0    0 -0.00000000000E+00 -0.00000000000E+00 -0.45593999997E+02  0.45594000000E+02  0.51100000000E-03 0.  1.
    9900012    2    1    2    0    0  0.58110975257E+01  0.12186315066E+02 -0.28886761705E+02  0.59301950838E+02  0.50000012420E+02 0.  0.
         12    1    1    2    0    0 -0.58110975257E+01 -0.12186315066E+02  0.28886761705E+02  0.31886049162E+02  0.00000000000E+00 0. -1.
         11    1    3    3    0    0 -0.13638112753E+02 -0.10541666879E+02 -0.64733644750E+01  0.18412748517E+02  0.51100000000E-03 0. -1.
        -11    1    3    3    0    0  0.16643544021E+02  0.74747429578E+01 -0.15367724393E+02  0.23854691219E+02  0.51100000000E-03 0.  1.
        -12    1    3    3    0    0  0.28056662578E+01  0.15253238988E+02 -0.70456728376E+01  0.17034511102E+02  0.00000000000E+00 0.  1.
</event>
<event>
 7    1  0.7674040E-012  0.5930195E+02  0.7816164E-02  0.1266605E+00
        -11   -1    0    0    0    0  0.00000000000E+00  0.00000000000E+00  0.45593999997E+02  0.45594000000E+02  0.51100000000E-03 0. -1.
         11   -1    0    0    0    0 -0.00000000000E+00 -0.00000000000E+00 -0.45593999997E+02  0.45594000000E+02  0.51100000000E-03 0.  1.
    9900012    2    1    2    0    0 -0.19694556448E+02 -0.43138001151E+01 -0.24702951260E+02  0.59301949350E+02  0.50000009706E+02 0.  0.
         12    1    1    2    0    0  0.19694556448E+02  0.43138001151E+01  0.24702951260E+02  0.31886050650E+02  0.00000000000E+00 0. -1.
         11    1    3    3    0    0 -0.31288026599E+00  0.38056505415E+01  0.24009909641E+01  0.45106128159E+01  0.51100000000E-03 0. -1.
        -11    1    3    3    0    0  0.37952399691E+00  0.81112292902E+01 -0.28049903730E+02  0.29201595480E+02  0.51100000000E-03 0.  1.
        -12    1    3    3    0    0 -0.19761200178E+02 -0.16230679947E+02  0.94596150568E+00  0.25589741054E+02  0.00000000000E+00 0.  1.
</event>
<event>
 7    1  0.7674040E-012  0.5930196E+02  0.7816164E-02  0.1266605E+00
        -11   -1    0    0    0    0  0.00000000000E+00  0.00000000000E+00  0.45593999997E+02  0.45594000000E+02  0.51100000000E-03 0.  1.
         11   -1    0    0    0    0 -0.00000000000E+00 -0.00000000000E+00 -0.45593999997E+02  0.45594000000E+02  0.51100000000E-03 0. -1.
    9900012    2    1    2    0    0 -0.68608085767E+01 -0.30217306023E+02  0.75208701817E+01  0.59301956566E+02  0.50000022866E+02 0.  0.
         12    1    1    2    0    0  0.68608085767E+01  0.30217306023E+02 -0.75208701817E+01  0.31886043434E+02  0.00000000000E+00 0. -1.
         11    1    3    3    0    0 -0.18610204064E+01  0.21132562702E+01  0.13238821476E+02  0.13534978513E+02  0.51100000000E-03 0. -1.
        -11    1    3    3    0    0  0.26663048067E+01 -0.36367290896E+02 -0.25940903135E+01  0.36557055861E+02  0.51100000000E-03 0.  1.
        -12    1    3    3    0    0 -0.76660929770E+01  0.40367286028E+01 -0.31238609807E+01  0.92099221913E+01  0.00000000000E+00 0.  1.
</event>
<event>
 7    1  0.7674040E-012  0.5930195E+02  0.7816164E-02  0.1266605E+00
        -11   -1    0    0    0    0  0.00000000000E+00  0.00000000000E+00  0.45593999997E+02  0.45594000000E+02  0.51100000000E-03 0.  1.
         11   -1    0    0    0    0 -0.00000000000E+00 -0.00000000000E+00 -0.45593999997E+02  0.45594000000E+02  0.51100000000E-03 0. -1.
    9900012    2    1    2    0    0 -0.15101642244E+02  0.30232887819E+01  0.27919887573E+02  0.59301952963E+02  0.50000016296E+02 0.  0.
         12    1    1    2    0    0  0.15101642244E+02 -0.30232887819E+01 -0.27919887573E+02  0.31886047037E+02  0.00000000000E+00 0. -1.
         11    1    3    3    0    0 -0.12338904110E+02 -0.17693208659E+02  0.21916855607E+02  0.30751369843E+02  0.51100000000E-03 0.  1.
        -11    1    3    3    0    0 -0.36068232925E+01  0.11097257519E+02 -0.60199140234E+01  0.13130029087E+02  0.51100000000E-03 0. -1.
        -12    1    3    3    0    0  0.84408515853E+00  0.96192399219E+01  0.12022945989E+02  0.15420554033E+02  0.00000000000E+00 0.  1.
</event>
<event>
 7    1  0.7674040E-012  0.5930195E+02  0.7816164E-02  0.1266605E+00
        -11   -1    0    0    0    0  0.00000000000E+00  0.00000000000E+00  0.45593999997E+02  0.45594000000E+02  0.51100000000E-03 0.  1.
         11   -1    0    0    0    0 -0.00000000000E+00 -0.00000000000E+00 -0.45593999997E+02  0.45594000000E+02  0.51100000000E-03 0. -1.
    9900012    2    1    2    0    0 -0.74319560773E+01 -0.43145221506E+01  0.30706211552E+02  0.59301945048E+02  0.50000001861E+02 0.  0.
         12    1    1    2    0    0  0.74319560773E+01  0.43145221506E+01 -0.30706211552E+02  0.31886054952E+02  0.00000000000E+00 0. -1.
         11    1    3    3    0    0 -0.11751562878E+02 -0.38125772217E+00 -0.62347647043E+01  0.13308526541E+02  0.51100000000E-03 0. -1.
        -11    1    3    3    0    0 -0.76319879896E+01 -0.32550999321E+01  0.31974057541E+02  0.33033063317E+02  0.51100000000E-03 0.  1.
         12    1    3    3    0    0  0.11951594790E+02 -0.67816449640E+00  0.49669187155E+01  0.12960355189E+02  0.00000000000E+00 0. -1.
</event>
<event>
 7    1  0.7674040E-012  0.5930196E+02  0.7816164E-02  0.1266605E+00
        -11   -1    0    0    0    0  0.00000000000E+00  0.00000000000E+00  0.45593999997E+02  0.45594000000E+02  0.51100000000E-03 0.  1.
         11   -1    0    0    0    0 -0.00000000000E+00 -0.00000000000E+00 -0.45593999997E+02  0.45594000000E+02  0.51100000000E-03 0. -1.
    9900012    2    1    2    0    0 -0.14089963229E+02  0.26992097607E+02 -0.94667237424E+01  0.59301964571E+02  0.50000037465E+02 0.  0.
         12    1    1    2    0    0  0.14089963229E+02 -0.26992097607E+02  0.94667237424E+01  0.31886035429E+02  0.00000000000E+00 0. -1.
         11    1    3    3    0    0  0.17169577429E+01  0.14674876712E+01 -0.13108301506E+02  0.13301467309E+02  0.51100000000E-03 0. -1.
        -11    1    3    3    0    0 -0.83378459283E+01 -0.63139270435E+01  0.77823422259E+01  0.13036494936E+02  0.51100000000E-03 0.  1.
        -12    1    3    3    0    0 -0.74690750433E+01  0.31838536979E+02 -0.41407644626E+01  0.32964002325E+02  0.00000000000E+00 0.  1.
</event>
<event>
 7    1  0.7674040E-012  0.5930193E+02  0.7816164E-02  0.1266605E+00
        -11   -1    0    0    0    0  0.00000000000E+00  0.00000000000E+00  0.45593999997E+02  0.45594000000E+02  0.51100000000E-03 0. -1.
         11   -1    0    0    0    0 -0.00000000000E+00 -0.00000000000E+00 -0.45593999997E+02  0.45594000000E+02  0.51100000000E-03 0.  1.
    9900012    2    1    2    0    0  0.18792981876E+01  0.31138844087E+02 -0.66001379513E+01  0.59301934177E+02  0.49999982034E+02 0.  0.
         12    1    1    2    0    0 -0.18792981876E+01 -0.31138844087E+02  0.66001379513E+01  0.31886065823E+02  0.00000000000E+00 0. -1.
         11    1    3    3    0    0 -0.20873983765E+01 -0.20452451185E+01 -0.61602976271E+01  0.68183228651E+01  0.51100000000E-03 0. -1.
        -11    1    3    3    0    0  0.11915532063E+02  0.36533255857E+02 -0.98993396222E+01  0.39681930562E+02  0.51100000000E-03 0.  1.
        -12    1    3    3    0    0 -0.79488354986E+01 -0.33491666524E+01  0.94594992981E+01  0.12801680750E+02  0.00000000000E+00 0.  1.
</event>
<event>
 7    1  0.7674040E-012  0.5930190E+02  0.7816164E-02  0.1266605E+00
        -11   -1    0    0    0    0  0.00000000000E+00  0.00000000000E+00  0.45593999997E+02  0.45594000000E+02  0.51100000000E-03 0.  1.
         11   -1    0    0    0    0 -0.00000000000E+00 -0.00000000000E+00 -0.45593999997E+02  0.45594000000E+02  0.51100000000E-03 0. -1.
    9900012    2    1    2    0    0 -0.47858180300E+01 -0.29759922221E+02  0.10400290016E+02  0.59301904955E+02  0.49999928740E+02 0.  0.
         12    1    1    2    0    0  0.47858180300E+01  0.29759922221E+02 -0.10400290016E+02  0.31886095045E+02  0.00000000000E+00 0. -1.
         11    1    3    3    0    0  0.52809221855E+01 -0.46066836483E+01 -0.12040237577E+02  0.13931151946E+02  0.51100000000E-03 0. -1.
        -11    1    3    3    0    0 -0.18924940888E+02 -0.23898716400E+02  0.17515600329E+02  0.35158189491E+02  0.51100000000E-03 0.  1.
         12    1    3    3    0    0  0.88582006728E+01 -0.12545221731E+01  0.49249272640E+01  0.10212563517E+02  0.00000000000E+00 0. -1.
</event>
<event>
 7    1  0.7674040E-012  0.5930193E+02  0.7816164E-02  0.1266605E+00
        -11   -1    0    0    0    0  0.00000000000E+00  0.00000000000E+00  0.45593999997E+02  0.45594000000E+02  0.51100000000E-03 0.  1.
         11   -1    0    0    0    0 -0.00000000000E+00 -0.00000000000E+00 -0.45593999997E+02  0.45594000000E+02  0.51100000000E-03 0. -1.
    9900012    2    1    2    0    0 -0.30608086183E+02  0.74875870213E+01  0.48787803665E+01  0.59301930987E+02  0.49999976218E+02 0.  0.
         12    1    1    2    0    0  0.30608086183E+02 -0.74875870213E+01 -0.48787803665E+01  0.31886069013E+02  0.00000000000E+00 0. -1.
         11    1    3    3    0    0 -0.12685528805E+02 -0.85358778879E+01 -0.81284610217E+01  0.17316342894E+02  0.51100000000E-03 0. -1.
        -11    1    3    3    0    0 -0.56537044161E+01  0.64448231391E+01  0.22276620324E+02  0.23869393211E+02  0.51100000000E-03 0.  1.
        -12    1    3    3    0    0 -0.12268852963E+02  0.95786417701E+01 -0.92693789361E+01  0.18116194883E+02  0.00000000000E+00 0.  1.
</event>
<event>
 7    1  0.7674040E-012  0.5930194E+02  0.7816164E-02  0.1266605E+00
        -11   -1    0    0    0    0  0.00000000000E+00  0.00000000000E+00  0.45593999997E+02  0.45594000000E+02  0.51100000000E-03 0.  1.
         11   -1    0    0    0    0 -0.00000000000E+00 -0.00000000000E+00 -0.45593999997E+02  0.45594000000E+02  0.51100000000E-03 0. -1.
    9900012    2    1    2    0    0 -0.32142674621E+01 -0.31651686764E+02  0.21353925953E+01  0.59301942045E+02  0.49999996385E+02 0.  0.
         12    1    1    2    0    0  0.32142674621E+01  0.31651686764E+02 -0.21353925953E+01  0.31886057955E+02  0.00000000000E+00 0. -1.
         11    1    3    3    0    0 -0.32098844812E+01  0.18333931908E+01 -0.28358090807E+01  0.46590237580E+01  0.51100000000E-03 0. -1.
        -11    1    3    3    0    0 -0.56031127512E+01 -0.20754276787E+02  0.23256157276E+02  0.31669918361E+02  0.51100000000E-03 0.  1.
        -12    1    3    3    0    0  0.55987297703E+01 -0.12730803168E+02 -0.18284955600E+02  0.22972999927E+02  0.00000000000E+00 0.  1.
</event>
<event>
 7    1  0.7674040E-012  0.5930199E+02  0.7816164E-02  0.1266605E+00
        -11   -1    0    0    0    0  0.00000000000E+00  0.00000000000E+00  0.45593999997E+02  0.45594000000E+02  0.51100000000E-03 0. -1.
         11   -1    0    0    0    0 -0.00000000000E+00 -0.00000000000E+00 -0.45593999997E+02  0.45594000000E+02  0.51100000000E-03 0.  1.
    9900012    2    1    2    0    0 -0.14901550982E+02 -0.23473029762E+02  0.15610194327E+02  0.59301991865E+02  0.50000087243E+02 0.  0.
         12    1    1    2    0    0  0.14901550982E+02  0.23473029762E+02 -0.15610194327E+02  0.31886008135E+02  0.00000000000E+00 0. -1.
         11    1    3    3    0    0 -0.29122106824E+02 -0.94680263413E+01  0.15454233530E+02  0.34301223928E+02  0.51100000000E-03 0. -1.
        -11    1    3    3    0    0  0.16517413133E+02 -0.11004159449E+02 -0.30056940168E+01  0.20073630926E+02  0.51100000000E-03 0.  1.
         12    1    3    3    0    0 -0.22968572906E+01 -0.30008439719E+01  0.31616548145E+01  0.49271370108E+01  0.00000000000E+00 0. -1.
</event>
<event>
 7    1  0.7674040E-012  0.5930195E+02  0.7816164E-02  0.1266605E+00
        -11   -1    0    0    0    0  0.00000000000E+00  0.00000000000E+00  0.45593999997E+02  0.45594000000E+02  0.51100000000E-03 0. -1.
         11   -1    0    0    0    0 -0.00000000000E+00 -0.00000000000E+00 -0.45593999997E+02  0.45594000000E+02  0.51100000000E-03 0.  1.
    9900012    2    1    2    0    0 -0.11308208628E+02 -0.12815772188E+02 -0.26918402736E+02  0.59301952816E+02  0.50000016027E+02 0.  0.
         12    1    1    2    0    0  0.11308208628E+02  0.12815772188E+02  0.26918402736E+02  0.31886047184E+02  0.00000000000E+00 0. -1.
         11    1    3    3    0    0 -0.13278749521E+02 -0.15587529150E+02  0.82472238775E+01  0.22075166043E+02  0.51100000000E-03 0. -1.
        -11    1    3    3    0    0  0.40616397630E+01  0.66214410843E+01 -0.20569576990E+02  0.21987448634E+02  0.51100000000E-03 0.  1.
         12    1    3    3    0    0 -0.20910988699E+01 -0.38496841216E+01 -0.14596049624E+02  0.15239338140E+02  0.00000000000E+00 0. -1.
</event>
<event>
 7    1  0.7674040E-012  0.5930194E+02  0.7816164E-02  0.1266605E+00
        -11   -1    0    0    0    0  0.00000000000E+00  0.00000000000E+00  0.45593999997E+02  0.45594000000E+02  0.51100000000E-03 0.  1.
         11   -1    0    0    0    0 -0.00000000000E+00 -0.00000000000E+00 -0.45593999997E+02  0.45594000000E+02  0.51100000000E-03 0. -1.
    9900012    2    1    2    0    0 -0.13084853935E+02  0.11713870451E+01  0.29054007932E+02  0.59301938359E+02  0.49999989661E+02 0.  0.
         12    1    1    2    0    0  0.13084853935E+02 -0.11713870451E+01 -0.29054007932E+02  0.31886061641E+02  0.00000000000E+00 0. -1.
         11    1    3    3    0    0 -0.14429408026E+02  0.10218988952E+02  0.23678245209E+02  0.29551562524E+02  0.51100000000E-03 0.  1.
        -11    1    3    3    0    0  0.12226375683E+01 -0.24700817373E+00 -0.11047327884E+02  0.11117522624E+02  0.51100000000E-03 0. -1.
         12    1    3    3    0    0  0.12191652262E+00 -0.88005937335E+01  0.16423090607E+02  0.18632853211E+02  0.00000000000E+00 0. -1.
</event>
<event>
 7    1  0.7674040E-012  0.5930193E+02  0.7816164E-02  0.1266605E+00
        -11   -1    0    0    0    0  0.00000000000E+00  0.00000000000E+00  0.45593999997E+02  0.45594000000E+02  0.51100000000E-03 0.  1.
         11   -1    0    0    0    0 -0.00000000000E+00 -0.00000000000E+00 -0.45593999997E+02  0.45594000000E+02  0.51100000000E-03 0. -1.
    9900012    2    1    2    0    0  0.24683439659E+02 -0.89787094845E+01  0.18078505370E+02  0.59301925080E+02  0.49999965444E+02 0.  0.
         12    1    1    2    0    0 -0.24683439659E+02  0.89787094845E+01 -0.18078505370E+02  0.31886074920E+02  0.00000000000E+00 0. -1.
         11    1    3    3    0    0 -0.76209030935E+01  0.11094458937E+02  0.98605144715E+01  0.16685170930E+02  0.51100000000E-03 0.  1.
        -11    1    3    3    0    0  0.24683416323E+02 -0.19224090808E+02 -0.12303762124E+00  0.31286608115E+02  0.51100000000E-03 0. -1.
        -12    1    3    3    0    0  0.76209264291E+01 -0.84907761277E+00  0.83410285193E+01  0.11330146036E+02  0.00000000000E+00 0.  1.
</event>
<event>
 7    1  0.7674040E-012  0.5930195E+02  0.7816164E-02  0.1266605E+00
        -11   -1    0    0    0    0  0.00000000000E+00  0.00000000000E+00  0.45593999997E+02  0.45594000000E+02  0.51100000000E-03 0. -1.
         11   -1    0    0    0    0 -0.00000000000E+00 -0.00000000000E+00 -0.45593999997E+02  0.45594000000E+02  0.51100000000E-03 0.  1.
    9900012    2    1    2    0    0 -0.34446232034E+01  0.19069166921E+02 -0.25322359513E+02  0.59301945879E+02  0.50000003377E+02 0.  0.
         12    1    1    2    0    0  0.34446232034E+01 -0.19069166921E+02  0.25322359513E+02  0.31886054121E+02  0.00000000000E+00 0. -1.
         11    1    3    3    0    0  0.28764228863E+01 -0.30755834180E+01  0.92538430583E+01  0.10166938260E+02  0.51100000000E-03 0. -1.
        -11    1    3    3    0    0  0.31954256212E+01  0.19833987612E+02 -0.33789239769E+02  0.39310437977E+02  0.51100000000E-03 0.  1.
         12    1    3    3    0    0 -0.95164717109E+01  0.23107627276E+01 -0.78696280211E+00  0.98245696424E+01  0.00000000000E+00 0. -1.
</event>
<event>
 7    1  0.7674040E-012  0.5930195E+02  0.7816164E-02  0.1266605E+00
        -11   -1    0    0    0    0  0.00000000000E+00  0.00000000000E+00  0.45593999997E+02  0.45594000000E+02  0.51100000000E-03 0. -1.
         11   -1    0    0    0    0 -0.00000000000E+00 -0.00000000000E+00 -0.45593999997E+02  0.45594000000E+02  0.51100000000E-03 0.  1.
    9900012    2    1    2    0    0  0.86574017877E+01  0.10703380952E+02 -0.28761205560E+02  0.59301954231E+02  0.50000018609E+02 0.  0.
         12    1    1    2    0    0 -0.86574017877E+01 -0.10703380952E+02  0.28761205560E+02  0.31886045769E+02  0.00000000000E+00 0. -1.
         11    1    3    3    0    0 -0.14192230382E+01  0.22720363202E+02 -0.16453742547E+02  0.28088338187E+02  0.51100000000E-03 0. -1.
        -11    1    3    3    0    0  0.17858188368E+02 -0.10096889466E+02 -0.10278691718E+02  0.22945883560E+02  0.51100000000E-03 0.  1.
        -12    1    3    3    0    0 -0.77815635416E+01 -0.19200927848E+01 -0.20287712947E+01  0.82677324836E+01  0.00000000000E+00 0.  1.
</event>
<event>
 7    1  0.7674040E-012  0.5930196E+02  0.7816164E-02  0.1266605E+00
        -11   -1    0    0    0    0  0.00000000000E+00  0.00000000000E+00  0.45593999997E+02  0.45594000000E+02  0.51100000000E-03 0.  1.
         11   -1    0    0    0    0 -0.00000000000E+00 -0.00000000000E+00 -0.45593999997E+02  0.45594000000E+02  0.51100000000E-03 0. -1.
    9900012    2    1    2    0    0  0.36375425475E+01  0.27034179875E+02  0.16511851334E+02  0.59301955533E+02  0.50000020982E+02 0.  0.
         12    1    1    2    0    0 -0.36375425475E+01 -0.27034179875E+02 -0.16511851334E+02  0.31886044467E+02  0.00000000000E+00 0. -1.
         11    1    3    3    0    0  0.95244764756E+01  0.15798564408E+00 -0.86732934323E+01  0.12882803686E+02  0.51100000000E-03 0. -1.
        -11    1    3    3    0    0 -0.75804096844E+00  0.28841590446E+02  0.10436814313E+02  0.30681249303E+02  0.51100000000E-03 0.  1.
        -12    1    3    3    0    0 -0.51288929597E+01 -0.19653962148E+01  0.14748330454E+02  0.15737902543E+02  0.00000000000E+00 0.  1.
</event>
<event>
 7    1  0.7674040E-012  0.5930192E+02  0.7816164E-02  0.1266605E+00
        -11   -1    0    0    0    0  0.00000000000E+00  0.00000000000E+00  0.45593999997E+02  0.45594000000E+02  0.51100000000E-03 0.  1.
         11   -1    0    0    0    0 -0.00000000000E+00 -0.00000000000E+00 -0.45593999997E+02  0.45594000000E+02  0.51100000000E-03 0. -1.
    9900012    2    1    2    0    0 -0.10652207366E+02  0.11668743401E+02  0.27696448516E+02  0.59301915971E+02  0.49999948831E+02 0.  0.
         12    1    1    2    0    0  0.10652207366E+02 -0.11668743401E+02 -0.27696448516E+02  0.31886084029E+02  0.00000000000E+00 0. -1.
         11    1    3    3    0    0  0.12886881459E+02 -0.83282138146E+01  0.31135728421E+01  0.15656474545E+02  0.51100000000E-03 0. -1.
        -11    1    3    3    0    0 -0.79833788010E+01  0.17658574672E+02  0.18462989209E+02  0.26766426121E+02  0.51100000000E-03 0.  1.
        -12    1    3    3    0    0 -0.15555710024E+02  0.23383825435E+01  0.61198864651E+01  0.16879015304E+02  0.00000000000E+00 0.  1.
</event>
<event>
 7    1  0.7674040E-012  0.5930170E+02  0.7816164E-02  0.1266606E+00
        -11   -1    0    0    0    0  0.00000000000E+00  0.00000000000E+00  0.45593999997E+02  0.45594000000E+02  0.51100000000E-03 0.  1.
         11   -1    0    0    0    0 -0.00000000000E+00 -0.00000000000E+00 -0.45593999997E+02  0.45594000000E+02  0.51100000000E-03 0. -1.
    9900012    2    1    2    0    0  0.83801187158E+01  0.30592731457E+02  0.32549101093E+01  0.59301701257E+02  0.49999557243E+02 0.  0.
         12    1    1    2    0    0 -0.83801187158E+01 -0.30592731457E+02 -0.32549101093E+01  0.31886298743E+02  0.00000000000E+00 0. -1.
         11    1    3    3    0    0  0.64662230492E+00  0.62070130149E+01 -0.17370625177E+02  0.18457620385E+02  0.51100000000E-03 0. -1.
        -11    1    3    3    0    0 -0.30941721674E+01  0.69773685360E+01  0.18766159515E+02  0.20258981127E+02  0.51100000000E-03 0.  1.
        -12    1    3    3    0    0  0.10827668578E+02  0.17408349906E+02  0.18593757713E+01  0.20585099746E+02  0.00000000000E+00 0.  1.
</event>
<event>
 7    1  0.7674040E-012  0.5930192E+02  0.7816164E-02  0.1266605E+00
        -11   -1    0    0    0    0  0.00000000000E+00  0.00000000000E+00  0.45593999997E+02  0.45594000000E+02  0.51100000000E-03 0.  1.
         11   -1    0    0    0    0 -0.00000000000E+00 -0.00000000000E+00 -0.45593999997E+02  0.45594000000E+02  0.51100000000E-03 0. -1.
    9900012    2    1    2    0    0  0.30332163657E+01  0.39607499227E+01  0.31493398301E+02  0.59301920310E+02  0.49999956745E+02 0.  0.
         12    1    1    2    0    0 -0.30332163657E+01 -0.39607499227E+01 -0.31493398301E+02  0.31886079690E+02  0.00000000000E+00 0. -1.
         11    1    3    3    0    0  0.12767342924E+02 -0.63580656563E+01 -0.13020885686E+01  0.14322202314E+02  0.51100000000E-03 0. -1.
        -11    1    3    3    0    0 -0.61751558676E-01  0.18222335001E+02  0.20937019619E+02  0.27756370385E+02  0.51100000000E-03 0.  1.
        -12    1    3    3    0    0 -0.96723749997E+01 -0.79035194223E+01  0.11858467250E+02  0.17223347611E+02  0.00000000000E+00 0.  1.
</event>
<event>
 7    1  0.7674040E-012  0.5930195E+02  0.7816164E-02  0.1266605E+00
        -11   -1    0    0    0    0  0.00000000000E+00  0.00000000000E+00  0.45593999997E+02  0.45594000000E+02  0.51100000000E-03 0.  1.
         11   -1    0    0    0    0 -0.00000000000E+00 -0.00000000000E+00 -0.45593999997E+02  0.45594000000E+02  0.51100000000E-03 0. -1.
    9900012    2    1    2    0    0 -0.17347188879E+02 -0.73079826782E+01  0.25736915455E+02  0.59301946780E+02  0.50000005019E+02 0.  0.
         12    1    1    2    0    0  0.17347188879E+02  0.73079826782E+01 -0.25736915455E+02  0.31886053220E+02  0.00000000000E+00 0. -1.
         11    1    3    3    0    0 -0.11347914598E+02 -0.22656705343E+02 -0.30019353926E+01  0.25516917507E+02  0.51100000000E-03 0. -1.
        -11    1    3    3    0    0  0.24258586308E+00  0.84532952477E+01  0.14078039909E+02  0.16422796851E+02  0.51100000000E-03 0.  1.
         12    1    3    3    0    0 -0.62418601439E+01  0.68954274167E+01  0.14660810938E+02  0.17362232422E+02  0.00000000000E+00 0. -1.
</event>
<event>
 7    1  0.7674040E-012  0.5930194E+02  0.7816164E-02  0.1266605E+00
        -11   -1    0    0    0    0  0.00000000000E+00  0.00000000000E+00  0.45593999997E+02  0.45594000000E+02  0.51100000000E-03 0.  1.
         11   -1    0    0    0    0 -0.00000000000E+00 -0.00000000000E+00 -0.45593999997E+02  0.45594000000E+02  0.51100000000E-03 0. -1.
    9900012    2    1    2    0    0 -0.30385972850E+02  0.95794298996E+01  0.12836205915E+01  0.59301944975E+02  0.50000001728E+02 0.  0.
         12    1    1    2    0    0  0.30385972850E+02 -0.95794298996E+01 -0.12836205915E+01  0.31886055025E+02  0.00000000000E+00 0. -1.
         11    1    3    3    0    0 -0.17862518927E+02  0.12692222861E+02 -0.13820770681E+02  0.25907060930E+02  0.51100000000E-03 0. -1.
        -11    1    3    3    0    0 -0.11768701250E+02  0.13273063630E+01  0.22100867329E+02  0.25074138236E+02  0.51100000000E-03 0.  1.
        -12    1    3    3    0    0 -0.75475267299E+00 -0.44400993247E+01 -0.69964760570E+01  0.83207458095E+01  0.00000000000E+00 0.  1.
</event>
<event>
 7    1  0.7674040E-012  0.5930195E+02  0.7816164E-02  0.1266605E+00
        -11   -1    0    0    0    0  0.00000000000E+00  0.00000000000E+00  0.45593999997E+02  0.45594000000E+02  0.51100000000E-03 0. -1.
         11   -1    0    0    0    0 -0.00000000000E+00 -0.00000000000E+00 -0.45593999997E+02  0.45594000000E+02  0.51100000000E-03 0.  1.
    9900012    2    1    2    0    0  0.90261457320E+01  0.21507898686E+02 -0.21740723861E+02  0.59301951536E+02  0.50000013693E+02 0.  0.
         12    1    1    2    0    0 -0.90261457320E+01 -0.21507898686E+02  0.21740723861E+02  0.31886048464E+02  0.00000000000E+00 0. -1.
         11    1    3    3    0    0  0.92531379573E+01  0.15984806141E+02  0.58441163179E+01  0.19372358793E+02  0.51100000000E-03 0. -1.
        -11    1    3    3    0    0  0.20186591257E+01 -0.89735016541E+01 -0.22659867589E+02  0.24455435306E+02  0.51100000000E-03 0.  1.
        -12    1    3    3    0    0 -0.22456513510E+01  0.14496594199E+02 -0.49249725899E+01  0.15474157437E+02  0.00000000000E+00 0.  1.
</event>
<event>
 7    1  0.7674040E-012  0.5930193E+02  0.7816164E-02  0.1266605E+00
        -11   -1    0    0    0    0  0.00000000000E+00  0.00000000000E+00  0.45593999997E+02  0.45594000000E+02  0.51100000000E-03 0. -1.
         11   -1    0    0    0    0 -0.00000000000E+00 -0.00000000000E+00 -0.45593999997E+02  0.45594000000E+02  0.51100000000E-03 0.  1.
    9900012    2    1    2    0    0  0.16398482236E+02  0.16823077614E+01 -0.27294342448E+02  0.59301929237E+02  0.49999973025E+02 0.  0.
         12    1    1    2    0    0 -0.16398482236E+02 -0.16823077614E+01  0.27294342448E+02  0.31886070763E+02  0.00000000000E+00 0. -1.
         11    1    3    3    0    0  0.12410946955E+02 -0.17451401126E+02 -0.21639842310E+02  0.30444470451E+02  0.51100000000E-03 0. -1.
        -11    1    3    3    0    0  0.11031562890E+02  0.54563564635E+01  0.42647564272E+00  0.12314588397E+02  0.51100000000E-03 0.  1.
         12    1    3    3    0    0 -0.70440276079E+01  0.13677352424E+02 -0.60809757804E+01  0.16542870389E+02  0.00000000000E+00 0. -1.
</event>
<event>
 7    1  0.7674040E-012  0.5930196E+02  0.7816164E-02  0.1266605E+00
        -11   -1    0    0    0    0  0.00000000000E+00  0.00000000000E+00  0.45593999997E+02  0.45594000000E+02  0.51100000000E-03 0. -1.
         11   -1    0    0    0    0 -0.00000000000E+00 -0.00000000000E+00 -0.45593999997E+02  0.45594000000E+02  0.51100000000E-03 0.  1.
    9900012    2    1    2    0    0  0.21788791217E+02 -0.74631502894E+01 -0.22051513075E+02  0.59301964438E+02  0.50000037224E+02 0.  0.
         12    1    1    2    0    0 -0.21788791217E+02  0.74631502894E+01  0.22051513075E+02  0.31886035562E+02  0.00000000000E+00 0. -1.
         11    1    3    3    0    0  0.18048292878E+02 -0.87076278175E+01  0.37819648284E+00  0.20042621855E+02  0.51100000000E-03 0. -1.
        -11    1    3    3    0    0 -0.43050580681E+01 -0.13518655244E+02 -0.15669247203E+02  0.21137948641E+02  0.51100000000E-03 0.  1.
        -12    1    3    3    0    0  0.80455564076E+01  0.14763132772E+02 -0.67604623548E+01  0.18121393942E+02  0.00000000000E+00 0.  1.
</event>
<event>
 7    1  0.7674040E-012  0.5930191E+02  0.7816164E-02  0.1266605E+00
        -11   -1    0    0    0    0  0.00000000000E+00  0.00000000000E+00  0.45593999997E+02  0.45594000000E+02  0.51100000000E-03 0. -1.
         11   -1    0    0    0    0 -0.00000000000E+00 -0.00000000000E+00 -0.45593999997E+02  0.45594000000E+02  0.51100000000E-03 0.  1.
    9900012    2    1    2    0    0  0.28609091847E+02  0.11325881886E+02 -0.83646314903E+01  0.59301909039E+02  0.49999936189E+02 0.  0.
         12    1    1    2    0    0 -0.28609091847E+02 -0.11325881886E+02  0.83646314903E+01  0.31886090961E+02  0.00000000000E+00 0. -1.
         11    1    3    3    0    0  0.30038166684E+02  0.12846164148E+02 -0.79520800119E+01  0.33623666781E+02  0.51100000000E-03 0. -1.
        -11    1    3    3    0    0 -0.51953869355E+01 -0.77260028986E+01 -0.99930863436E+01  0.13658145596E+02  0.51100000000E-03 0.  1.
        -12    1    3    3    0    0  0.37663120994E+01  0.62057206363E+01  0.95805348652E+01  0.12020096661E+02  0.00000000000E+00 0.  1.
</event>
<event>
 7    1  0.7674040E-012  0.5930193E+02  0.7816164E-02  0.1266605E+00
        -11   -1    0    0    0    0  0.00000000000E+00  0.00000000000E+00  0.45593999997E+02  0.45594000000E+02  0.51100000000E-03 0.  1.
         11   -1    0    0    0    0 -0.00000000000E+00 -0.00000000000E+00 -0.45593999997E+02  0.45594000000E+02  0.51100000000E-03 0. -1.
    9900012    2    1    2    0    0  0.27983861880E+02  0.88071131977E+01  0.12492394967E+02  0.59301926227E+02  0.49999967537E+02 0.  0.
         12    1    1    2    0    0 -0.27983861880E+02 -0.88071131977E+01 -0.12492394967E+02  0.31886073773E+02  0.00000000000E+00 0. -1.
         11    1    3    3    0    0  0.27747109360E+02 -0.78959639325E+01  0.12073732887E+02  0.31273364871E+02  0.51100000000E-03 0. -1.
        -11    1    3    3    0    0  0.40723820826E+01  0.17691275770E+02 -0.71299447630E+01  0.19503887991E+02  0.51100000000E-03 0.  1.
         12    1    3    3    0    0 -0.38356295628E+01 -0.98819863992E+00  0.75486068438E+01  0.85246733649E+01  0.00000000000E+00 0. -1.
</event>
<event>
 7    1  0.7674040E-012  0.5930193E+02  0.7816164E-02  0.1266605E+00
        -11   -1    0    0    0    0  0.00000000000E+00  0.00000000000E+00  0.45593999997E+02  0.45594000000E+02  0.51100000000E-03 0.  1.
         11   -1    0    0    0    0 -0.00000000000E+00 -0.00000000000E+00 -0.45593999997E+02  0.45594000000E+02  0.51100000000E-03 0. -1.
    9900012    2    1    2    0    0 -0.78168890954E+01  0.22069325816E+02  0.21646307062E+02  0.59301929271E+02  0.49999973087E+02 0.  0.
         12    1    1    2    0    0  0.78168890954E+01 -0.22069325816E+02 -0.21646307062E+02  0.31886070729E+02  0.00000000000E+00 0. -1.
         11    1    3    3    0    0 -0.69222520759E+01  0.49077146121E+01  0.91913245664E+01  0.12509343870E+02  0.51100000000E-03 0.  1.
        -11    1    3    3    0    0  0.18916230283E+02  0.49812949283E+01  0.13075012048E+02  0.23528557278E+02  0.51100000000E-03 0. -1.
        -12    1    3    3    0    0 -0.19810867302E+02  0.12180316276E+02 -0.62002955245E+00  0.23264028123E+02  0.00000000000E+00 0.  1.
</event>
<event>
 7    1  0.7674040E-012  0.5930195E+02  0.7816164E-02  0.1266605E+00
        -11   -1    0    0    0    0  0.00000000000E+00  0.00000000000E+00  0.45593999997E+02  0.45594000000E+02  0.51100000000E-03 0.  1.
         11   -1    0    0    0    0 -0.00000000000E+00 -0.00000000000E+00 -0.45593999997E+02  0.45594000000E+02  0.51100000000E-03 0. -1.
    9900012    2    1    2    0    0 -0.22681645839E+01  0.22483103658E+02  0.22496354033E+02  0.59301945596E+02  0.50000002861E+02 0.  0.
         12    1    1    2    0    0  0.22681645839E+01 -0.22483103658E+02 -0.22496354033E+02  0.31886054404E+02  0.00000000000E+00 0. -1.
         11    1    3    3    0    0  0.15459479040E+02  0.21782239641E+02  0.14178723381E+01  0.26748304959E+02  0.51100000000E-03 0. -1.
        -11    1    3    3    0    0 -0.12306643028E+02  0.87516129189E+01  0.12680859868E+02  0.19719239300E+02  0.51100000000E-03 0.  1.
         12    1    3    3    0    0 -0.54210005957E+01 -0.80507489018E+01  0.83976218268E+01  0.12834401337E+02  0.00000000000E+00 0. -1.
</event>
<event>
 7    1  0.7674040E-012  0.5930195E+02  0.7816164E-02  0.1266605E+00
        -11   -1    0    0    0    0  0.00000000000E+00  0.00000000000E+00  0.45593999997E+02  0.45594000000E+02  0.51100000000E-03 0.  1.
         11   -1    0    0    0    0 -0.00000000000E+00 -0.00000000000E+00 -0.45593999997E+02  0.45594000000E+02  0.51100000000E-03 0. -1.
    9900012    2    1    2    0    0 -0.66934804986E+01  0.26538787461E+02  0.16358802976E+02  0.59301947314E+02  0.50000005994E+02 0.  0.
         12    1    1    2    0    0  0.66934804986E+01 -0.26538787461E+02 -0.16358802976E+02  0.31886052686E+02  0.00000000000E+00 0. -1.
         11    1    3    3    0    0 -0.83552554453E+01 -0.10089934632E+02  0.14598275796E+02  0.19614452093E+02  0.51100000000E-03 0. -1.
        -11    1    3    3    0    0 -0.23332900770E+01  0.21997435612E+02  0.76659055443E+01  0.23411482741E+02  0.51100000000E-03 0.  1.
         12    1    3    3    0    0  0.39950650237E+01  0.14631286481E+02 -0.59053783641E+01  0.16276012480E+02  0.00000000000E+00 0. -1.
</event>
<event>
 7    1  0.7674040E-012  0.5930194E+02  0.7816164E-02  0.1266605E+00
        -11   -1    0    0    0    0  0.00000000000E+00  0.00000000000E+00  0.45593999997E+02  0.45594000000E+02  0.51100000000E-03 0.  1.
         11   -1    0    0    0    0 -0.00000000000E+00 -0.00000000000E+00 -0.45593999997E+02  0.45594000000E+02  0.51100000000E-03 0. -1.
    9900012    2    1    2    0    0  0.17951606615E+02  0.22695711722E+02  0.13392736279E+02  0.59301938850E+02  0.49999990557E+02 0.  0.
         12    1    1    2    0    0 -0.17951606615E+02 -0.22695711722E+02 -0.13392736279E+02  0.31886061150E+02  0.00000000000E+00 0. -1.
         11    1    3    3    0    0  0.58730609165E+01 -0.12212306016E+01  0.34898120495E+01  0.69399594461E+01  0.51100000000E-03 0. -1.
        -11    1    3    3    0    0 -0.83056514531E+01  0.29157530397E+02  0.70070128936E+01  0.31116613808E+02  0.51100000000E-03 0.  1.
        -12    1    3    3    0    0  0.20384197151E+02 -0.52405880734E+01  0.28959113358E+01  0.21245365596E+02  0.00000000000E+00 0.  1.
</event>
<event>
 7    1  0.7674040E-012  0.5930197E+02  0.7816164E-02  0.1266605E+00
        -11   -1    0    0    0    0  0.00000000000E+00  0.00000000000E+00  0.45593999997E+02  0.45594000000E+02  0.51100000000E-03 0.  1.
         11   -1    0    0    0    0 -0.00000000000E+00 -0.00000000000E+00 -0.45593999997E+02  0.45594000000E+02  0.51100000000E-03 0. -1.
    9900012    2    1    2    0    0  0.31645030355E+02 -0.38515459014E+01 -0.69015769394E+00  0.59301973756E+02  0.50000054216E+02 0.  0.
         12    1    1    2    0    0 -0.31645030355E+02  0.38515459014E+01  0.69015769394E+00  0.31886026244E+02  0.00000000000E+00 0. -1.
         11    1    3    3    0    0  0.22493002365E+02  0.95129068431E+01 -0.20088421343E+02  0.31622384861E+02  0.51100000000E-03 0. -1.
        -11    1    3    3    0    0 -0.91897879058E+00 -0.60187661845E+01  0.11236335385E+02  0.12779878776E+02  0.51100000000E-03 0.  1.
         12    1    3    3    0    0  0.10071006781E+02 -0.73456865600E+01  0.81619282640E+01  0.14899710118E+02  0.00000000000E+00 0. -1.
</event>
<event>
 7    1  0.7674040E-012  0.5930194E+02  0.7816164E-02  0.1266605E+00
        -11   -1    0    0    0    0  0.00000000000E+00  0.00000000000E+00  0.45593999997E+02  0.45594000000E+02  0.51100000000E-03 0.  1.
         11   -1    0    0    0    0 -0.00000000000E+00 -0.00000000000E+00 -0.45593999997E+02  0.45594000000E+02  0.51100000000E-03 0. -1.
    9900012    2    1    2    0    0  0.19249382546E+02  0.24194682700E+02  0.77974073600E+01  0.59301937827E+02  0.49999988691E+02 0.  0.
         12    1    1    2    0    0 -0.19249382546E+02 -0.24194682700E+02 -0.77974073600E+01  0.31886062173E+02  0.00000000000E+00 0. -1.
         11    1    3    3    0    0 -0.11058288949E+02  0.10353931427E+02 -0.63019933482E+01  0.16407460830E+02  0.51100000000E-03 0. -1.
        -11    1    3    3    0    0  0.21220328842E+02 -0.28767494071E+01  0.62165720362E+01  0.22298515903E+02  0.51100000000E-03 0.  1.
        -12    1    3    3    0    0  0.90873426532E+01  0.16717500680E+02  0.78828286720E+01  0.20595961094E+02  0.00000000000E+00 0.  1.
</event>
<event>
 7    1  0.7674040E-012  0.5930194E+02  0.7816164E-02  0.1266605E+00
        -11   -1    0    0    0    0  0.00000000000E+00  0.00000000000E+00  0.45593999997E+02  0.45594000000E+02  0.51100000000E-03 0.  1.
         11   -1    0    0    0    0 -0.00000000000E+00 -0.00000000000E+00 -0.45593999997E+02  0.45594000000E+02  0.51100000000E-03 0. -1.
    9900012    2    1    2    0    0  0.14989166590E+02  0.21805681002E+01  0.28058703116E+02  0.59301940148E+02  0.49999992925E+02 0.  0.
         12    1    1    2    0    0 -0.14989166590E+02 -0.21805681002E+01 -0.28058703116E+02  0.31886059852E+02  0.00000000000E+00 0. -1.
         11    1    3    3    0    0  0.12508726287E+02  0.19489142624E+02 -0.54464181089E+00  0.23164445785E+02  0.51100000000E-03 0. -1.
        -11    1    3    3    0    0  0.46863984763E+01 -0.33878675579E+01  0.16754116197E+02  0.17724005954E+02  0.51100000000E-03 0.  1.
         12    1    3    3    0    0 -0.22059581725E+01 -0.13920706966E+02  0.11849228730E+02  0.18413488409E+02  0.00000000000E+00 0. -1.
</event>
<event>
 7    1  0.7674040E-012  0.5930197E+02  0.7816164E-02  0.1266605E+00
        -11   -1    0    0    0    0  0.00000000000E+00  0.00000000000E+00  0.45593999997E+02  0.45594000000E+02  0.51100000000E-03 0. -1.
         11   -1    0    0    0    0 -0.00000000000E+00 -0.00000000000E+00 -0.45593999997E+02  0.45594000000E+02  0.51100000000E-03 0.  1.
    9900012    2    1    2    0    0  0.27012323672E+02  0.54530209394E+01 -0.16041138100E+02  0.59301965768E+02  0.50000039649E+02 0.  0.
         12    1    1    2    0    0 -0.27012323672E+02 -0.54530209394E+01  0.16041138100E+02  0.31886034232E+02  0.00000000000E+00 0. -1.
         11    1    3    3    0    0  0.13193783232E+02 -0.85897551252E+01 -0.34587177737E+01  0.16119011694E+02  0.51100000000E-03 0. -1.
        -11    1    3    3    0    0 -0.11157757247E+02  0.10997843635E+02 -0.80601199708E+01  0.17618559691E+02  0.51100000000E-03 0.  1.
        -12    1    3    3    0    0  0.24976297687E+02  0.30449324300E+01 -0.45223003552E+01  0.25564394383E+02  0.00000000000E+00 0.  1.
</event>
<event>
 7    1  0.7674040E-012  0.5930194E+02  0.7816164E-02  0.1266605E+00
        -11   -1    0    0    0    0  0.00000000000E+00  0.00000000000E+00  0.45593999997E+02  0.45594000000E+02  0.51100000000E-03 0.  1.
         11   -1    0    0    0    0 -0.00000000000E+00 -0.00000000000E+00 -0.45593999997E+02  0.45594000000E+02  0.51100000000E-03 0. -1.
    9900012    2    1    2    0    0 -0.23207824129E+02 -0.17653752389E+02  0.12902046506E+02  0.59301939123E+02  0.49999991055E+02 0.  0.
         12    1    1    2    0    0  0.23207824129E+02  0.17653752389E+02 -0.12902046506E+02  0.31886060877E+02  0.00000000000E+00 0. -1.
         11    1    3    3    0    0 -0.23641417626E+02 -0.46458314116E+01 -0.40184286677E+01  0.24426382174E+02  0.51100000000E-03 0. -1.
        -11    1    3    3    0    0 -0.19821535828E+00 -0.96564769327E+01  0.24624198281E+02  0.26450670640E+02  0.51100000000E-03 0.  1.
        -12    1    3    3    0    0  0.63180885591E+00 -0.33514440447E+01 -0.77037231068E+01  0.84248863091E+01  0.00000000000E+00 0.  1.
</event>
<event>
 7    1  0.7674040E-012  0.5930198E+02  0.7816164E-02  0.1266605E+00
        -11   -1    0    0    0    0  0.00000000000E+00  0.00000000000E+00  0.45593999997E+02  0.45594000000E+02  0.51100000000E-03 0.  1.
         11   -1    0    0    0    0 -0.00000000000E+00 -0.00000000000E+00 -0.45593999997E+02  0.45594000000E+02  0.51100000000E-03 0. -1.
    9900012    2    1    2    0    0  0.94859362878E+01  0.15928533317E+02  0.25942576546E+02  0.59301977376E+02  0.50000060820E+02 0.  0.
         12    1    1    2    0    0 -0.94859362878E+01 -0.15928533317E+02 -0.25942576546E+02  0.31886022624E+02  0.00000000000E+00 0. -1.
         11    1    3    3    0    0 -0.10668450451E+02 -0.59800407837E+01  0.84335594001E+01  0.14856030668E+02  0.51100000000E-03 0. -1.
        -11    1    3    3    0    0  0.18368787663E+02  0.29638603055E+01  0.27817253422E-01  0.18606386059E+02  0.51100000000E-03 0.  1.
        -12    1    3    3    0    0  0.17855990757E+01  0.18944713796E+02  0.17481199893E+02  0.25839560649E+02  0.00000000000E+00 0.  1.
</event>
<event>
 7    1  0.7674040E-012  0.5930190E+02  0.7816164E-02  0.1266605E+00
        -11   -1    0    0    0    0  0.00000000000E+00  0.00000000000E+00  0.45593999997E+02  0.45594000000E+02  0.51100000000E-03 0.  1.
         11   -1    0    0    0    0 -0.00000000000E+00 -0.00000000000E+00 -0.45593999997E+02  0.45594000000E+02  0.51100000000E-03 0. -1.
    9900012    2    1    2    0    0  0.72895320949E+01  0.51663964313E+00  0.31037386081E+02  0.59301897551E+02  0.49999915237E+02 0.  0.
         12    1    1    2    0    0 -0.72895320949E+01 -0.51663964313E+00 -0.31037386081E+02  0.31886102449E+02  0.00000000000E+00 0. -1.
         11    1    3    3    0    0  0.14717328394E+02 -0.90180006448E+01  0.29250419163E+02  0.33963378986E+02  0.51100000000E-03 0. -1.
        -11    1    3    3    0    0  0.54887702319E+01  0.32494818761E+01 -0.62063758853E+01  0.88997097151E+01  0.51100000000E-03 0.  1.
         12    1    3    3    0    0 -0.12916566531E+02  0.62851584118E+01  0.79933428028E+01  0.16438808849E+02  0.00000000000E+00 0. -1.
</event>
<event>
 7    1  0.7674040E-012  0.5930193E+02  0.7816164E-02  0.1266605E+00
        -11   -1    0    0    0    0  0.00000000000E+00  0.00000000000E+00  0.45593999997E+02  0.45594000000E+02  0.51100000000E-03 0.  1.
         11   -1    0    0    0    0 -0.00000000000E+00 -0.00000000000E+00 -0.45593999997E+02  0.45594000000E+02  0.51100000000E-03 0. -1.
    9900012    2    1    2    0    0  0.17519936141E+02 -0.10552457156E+02  0.24462602186E+02  0.59301930626E+02  0.49999975558E+02 0.  0.
         12    1    1    2    0    0 -0.17519936141E+02  0.10552457156E+02 -0.24462602186E+02  0.31886069374E+02  0.00000000000E+00 0. -1.
         11    1    3    3    0    0 -0.65217505986E+01  0.10824668087E+01 -0.11036067047E+02  0.12864670279E+02  0.51100000000E-03 0. -1.
        -11    1    3    3    0    0  0.86727687280E+01 -0.37883537623E+00  0.38475838630E+01  0.94954902715E+01  0.51100000000E-03 0.  1.
         12    1    3    3    0    0  0.15368918011E+02 -0.11256088588E+02  0.31651085371E+02  0.36941770075E+02  0.00000000000E+00 0. -1.
</event>
<event>
 7    1  0.7674040E-012  0.5930196E+02  0.7816164E-02  0.1266605E+00
        -11   -1    0    0    0    0  0.00000000000E+00  0.00000000000E+00  0.45593999997E+02  0.45594000000E+02  0.51100000000E-03 0. -1.
         11   -1    0    0    0    0 -0.00000000000E+00 -0.00000000000E+00 -0.45593999997E+02  0.45594000000E+02  0.51100000000E-03 0.  1.
    9900012    2    1    2    0    0  0.47448916817E+01 -0.30828129467E+02  0.66205903769E+01  0.59301956338E+02  0.50000022451E+02 0.  0.
         12    1    1    2    0    0 -0.47448916817E+01  0.30828129467E+02 -0.66205903769E+01  0.31886043662E+02  0.00000000000E+00 0. -1.
         11    1    3    3    0    0  0.24290646155E+02 -0.24718325241E+02  0.10258745554E+02  0.36142398287E+02  0.51100000000E-03 0.  1.
        -11    1    3    3    0    0 -0.13228515812E+02  0.36219988718E+00 -0.47222746781E+01  0.14050789933E+02  0.51100000000E-03 0. -1.
        -12    1    3    3    0    0 -0.63172386613E+01 -0.64720041128E+01  0.10841195012E+01  0.91087681183E+01  0.00000000000E+00 0.  1.
</event>
<event>
 7    1  0.7674040E-012  0.5930195E+02  0.7816164E-02  0.1266605E+00
        -11   -1    0    0    0    0  0.00000000000E+00  0.00000000000E+00  0.45593999997E+02  0.45594000000E+02  0.51100000000E-03 0.  1.
         11   -1    0    0    0    0 -0.00000000000E+00 -0.00000000000E+00 -0.45593999997E+02  0.45594000000E+02  0.51100000000E-03 0. -1.
    9900012    2    1    2    0    0 -0.19331210507E+02 -0.24854996953E+02  0.50253210467E+01  0.59301946233E+02  0.50000004023E+02 0.  0.
         12    1    1    2    0    0  0.19331210507E+02  0.24854996953E+02 -0.50253210467E+01  0.31886053767E+02  0.00000000000E+00 0. -1.
         11    1    3    3    0    0 -0.11725334458E+02  0.46687276885E+01  0.15199684125E+02  0.19756287205E+02  0.51100000000E-03 0.  1.
        -11    1    3    3    0    0  0.72639904333E+01 -0.17275532564E+02 -0.29525266226E+01  0.18971742042E+02  0.51100000000E-03 0. -1.
         12    1    3    3    0    0 -0.14869866483E+02 -0.12248192077E+02 -0.72218364556E+01  0.20573916986E+02  0.00000000000E+00 0. -1.
</event>
<event>
 7    1  0.7674040E-012  0.5930194E+02  0.7816164E-02  0.1266605E+00
        -11   -1    0    0    0    0  0.00000000000E+00  0.00000000000E+00  0.45593999997E+02  0.45594000000E+02  0.51100000000E-03 0.  1.
         11   -1    0    0    0    0 -0.00000000000E+00 -0.00000000000E+00 -0.45593999997E+02  0.45594000000E+02  0.51100000000E-03 0. -1.
    9900012    2    1    2    0    0 -0.23153688911E+02 -0.19414072934E+02  0.10184365485E+02  0.59301939748E+02  0.49999992194E+02 0.  0.
         12    1    1    2    0    0  0.23153688911E+02  0.19414072934E+02 -0.10184365485E+02  0.31886060252E+02  0.00000000000E+00 0. -1.
         11    1    3    3    0    0 -0.23491506923E+01 -0.12741426666E+02 -0.18532871323E+02  0.22612602287E+02  0.51100000000E-03 0. -1.
        -11    1    3    3    0    0 -0.12589501711E+02 -0.11046118460E+01  0.18851303730E+02  0.22695536417E+02  0.51100000000E-03 0.  1.
        -12    1    3    3    0    0 -0.82150365077E+01 -0.55680344212E+01  0.98659330781E+01  0.13993801043E+02  0.00000000000E+00 0.  1.
</event>
<event>
 7    1  0.7674040E-012  0.5930197E+02  0.7816164E-02  0.1266605E+00
        -11   -1    0    0    0    0  0.00000000000E+00  0.00000000000E+00  0.45593999997E+02  0.45594000000E+02  0.51100000000E-03 0.  1.
         11   -1    0    0    0    0 -0.00000000000E+00 -0.00000000000E+00 -0.45593999997E+02  0.45594000000E+02  0.51100000000E-03 0. -1.
    9900012    2    1    2    0    0  0.11517269938E+02 -0.25052914415E+02  0.16013216100E+02  0.59301966735E+02  0.50000041413E+02 0.  0.
         12    1    1    2    0    0 -0.11517269938E+02  0.25052914415E+02 -0.16013216100E+02  0.31886033265E+02  0.00000000000E+00 0. -1.
         11    1    3    3    0    0  0.58110889965E+01 -0.22112625070E+02  0.23416487460E+01  0.22983042921E+02  0.51100000000E-03 0. -1.
        -11    1    3    3    0    0 -0.39967284988E+01  0.12448063638E+02  0.12501914217E+02  0.18089388779E+02  0.51100000000E-03 0.  1.
        -12    1    3    3    0    0  0.97029094407E+01 -0.15388352983E+02  0.11696531364E+01  0.18229535035E+02  0.00000000000E+00 0.  1.
</event>
<event>
 7    1  0.7674040E-012  0.5930207E+02  0.7816164E-02  0.1266604E+00
        -11   -1    0    0    0    0  0.00000000000E+00  0.00000000000E+00  0.45593999997E+02  0.45594000000E+02  0.51100000000E-03 0. -1.
         11   -1    0    0    0    0 -0.00000000000E+00 -0.00000000000E+00 -0.45593999997E+02  0.45594000000E+02  0.51100000000E-03 0.  1.
    9900012    2    1    2    0    0  0.16457125537E+02  0.13576702027E+02 -0.23697021750E+02  0.59302068013E+02  0.50000226119E+02 0.  0.
         12    1    1    2    0    0 -0.16457125537E+02 -0.13576702027E+02  0.23697021750E+02  0.31885931987E+02  0.00000000000E+00 0. -1.
         11    1    3    3    0    0  0.83978554712E+01 -0.32556908699E+00 -0.78920770855E+00  0.84411385970E+01  0.51100000000E-03 0. -1.
        -11    1    3    3    0    0  0.12478780233E+01  0.85431053073E+01 -0.34963203080E+02  0.36013433851E+02  0.51100000000E-03 0.  1.
        -12    1    3    3    0    0  0.68113920425E+01  0.53591658063E+01  0.12055389038E+02  0.14847495565E+02  0.00000000000E+00 0.  1.
</event>
<event>
 7    1  0.7674040E-012  0.5930195E+02  0.7816164E-02  0.1266605E+00
        -11   -1    0    0    0    0  0.00000000000E+00  0.00000000000E+00  0.45593999997E+02  0.45594000000E+02  0.51100000000E-03 0.  1.
         11   -1    0    0    0    0 -0.00000000000E+00 -0.00000000000E+00 -0.45593999997E+02  0.45594000000E+02  0.51100000000E-03 0. -1.
    9900012    2    1    2    0    0  0.24619721024E+01 -0.30781573305E+01  0.31641484242E+02  0.59301954710E+02  0.50000019482E+02 0.  0.
         12    1    1    2    0    0 -0.24619721024E+01  0.30781573305E+01 -0.31641484242E+02  0.31886045290E+02  0.00000000000E+00 0. -1.
         11    1    3    3    0    0 -0.84344382997E+01  0.14094948849E+02 -0.48977096061E+01  0.17140446089E+02  0.51100000000E-03 0. -1.
        -11    1    3    3    0    0  0.65361967316E+01 -0.56174305659E+01  0.16678440176E+02  0.18773592113E+02  0.51100000000E-03 0.  1.
         12    1    3    3    0    0  0.43602136705E+01 -0.11555675613E+02  0.19860753673E+02  0.23387916508E+02  0.00000000000E+00 0. -1.
</event>
<event>
 7    1  0.7674040E-012  0.5930192E+02  0.7816164E-02  0.1266605E+00
        -11   -1    0    0    0    0  0.00000000000E+00  0.00000000000E+00  0.45593999997E+02  0.45594000000E+02  0.51100000000E-03 0. -1.
         11   -1    0    0    0    0 -0.00000000000E+00 -0.00000000000E+00 -0.45593999997E+02  0.45594000000E+02  0.51100000000E-03 0.  1.
    9900012    2    1    2    0    0  0.95517996277E+01  0.20559391621E+02 -0.22423131606E+02  0.59301916970E+02  0.49999950654E+02 0.  0.
         12    1    1    2    0    0 -0.95517996277E+01 -0.20559391621E+02  0.22423131606E+02  0.31886083030E+02  0.00000000000E+00 0. -1.
         11    1    3    3    0    0 -0.56802068466E+01 -0.10149860271E+02 -0.92732458597E+01  0.14875399234E+02  0.51100000000E-03 0. -1.
        -11    1    3    3    0    0  0.15538176788E+02  0.34420498267E+02 -0.89455590278E+01  0.38810161883E+02  0.51100000000E-03 0.  1.
        -12    1    3    3    0    0 -0.30617031323E+00 -0.37112463746E+01 -0.42043267186E+01  0.56163558533E+01  0.00000000000E+00 0.  1.
</event>
<event>
 7    1  0.7674040E-012  0.5930197E+02  0.7816164E-02  0.1266605E+00
        -11   -1    0    0    0    0  0.00000000000E+00  0.00000000000E+00  0.45593999997E+02  0.45594000000E+02  0.51100000000E-03 0.  1.
         11   -1    0    0    0    0 -0.00000000000E+00 -0.00000000000E+00 -0.45593999997E+02  0.45594000000E+02  0.51100000000E-03 0. -1.
    9900012    2    1    2    0    0  0.22746003652E+02 -0.15539993550E+02 -0.16057616516E+02  0.59301966540E+02  0.50000041056E+02 0.  0.
         12    1    1    2    0    0 -0.22746003652E+02  0.15539993550E+02  0.16057616516E+02  0.31886033460E+02  0.00000000000E+00 0. -1.
         11    1    3    3    0    0  0.28646012533E+02  0.69381025279E+01 -0.13715392319E+01  0.29506142087E+02  0.51100000000E-03 0.  1.
        -11    1    3    3    0    0 -0.29961442739E+01 -0.59579115529E+01 -0.10613967502E+02  0.12535146468E+02  0.51100000000E-03 0. -1.
        -12    1    3    3    0    0 -0.29038646073E+01 -0.16520184526E+02 -0.40721097817E+01  0.17260677985E+02  0.00000000000E+00 0.  1.
</event>
<event>
 7    1  0.7674040E-012  0.5930193E+02  0.7816164E-02  0.1266605E+00
        -11   -1    0    0    0    0  0.00000000000E+00  0.00000000000E+00  0.45593999997E+02  0.45594000000E+02  0.51100000000E-03 0.  1.
         11   -1    0    0    0    0 -0.00000000000E+00 -0.00000000000E+00 -0.45593999997E+02  0.45594000000E+02  0.51100000000E-03 0. -1.
    9900012    2    1    2    0    0 -0.15735720833E+02 -0.92477035491E+01  0.26145522835E+02  0.59301932582E+02  0.49999979126E+02 0.  0.
         12    1    1    2    0    0  0.15735720833E+02  0.92477035491E+01 -0.26145522835E+02  0.31886067418E+02  0.00000000000E+00 0. -1.
         11    1    3    3    0    0  0.37411424438E+01  0.28832850397E+01  0.31782579570E+02  0.32131633071E+02  0.51100000000E-03 0. -1.
        -11    1    3    3    0    0 -0.11575161181E+02 -0.10263734021E+02  0.25050056612E+01  0.15671746745E+02  0.51100000000E-03 0.  1.
         12    1    3    3    0    0 -0.79017020958E+01 -0.18672545675E+01 -0.81420623968E+01  0.11498552766E+02  0.00000000000E+00 0. -1.
</event>
<event>
 7    1  0.7674040E-012  0.5930198E+02  0.7816164E-02  0.1266605E+00
        -11   -1    0    0    0    0  0.00000000000E+00  0.00000000000E+00  0.45593999997E+02  0.45594000000E+02  0.51100000000E-03 0.  1.
         11   -1    0    0    0    0 -0.00000000000E+00 -0.00000000000E+00 -0.45593999997E+02  0.45594000000E+02  0.51100000000E-03 0. -1.
    9900012    2    1    2    0    0  0.94383652016E+01 -0.30141898915E+02  0.43704875568E+01  0.59301984737E+02  0.50000074244E+02 0.  0.
         12    1    1    2    0    0 -0.94383652016E+01  0.30141898915E+02 -0.43704875568E+01  0.31886015263E+02  0.00000000000E+00 0. -1.
         11    1    3    3    0    0  0.16010620420E+02 -0.56796426344E+01  0.19425613944E+02  0.25806060994E+02  0.51100000000E-03 0.  1.
        -11    1    3    3    0    0 -0.10052590845E+02 -0.18032317645E+02 -0.53173469104E+01  0.21318847079E+02  0.51100000000E-03 0. -1.
        -12    1    3    3    0    0  0.34803356267E+01 -0.64299386357E+01 -0.97377794765E+01  0.12177076663E+02  0.00000000000E+00 0.  1.
</event>
<event>
 7    1  0.7674040E-012  0.5930194E+02  0.7816164E-02  0.1266605E+00
        -11   -1    0    0    0    0  0.00000000000E+00  0.00000000000E+00  0.45593999997E+02  0.45594000000E+02  0.51100000000E-03 0.  1.
         11   -1    0    0    0    0 -0.00000000000E+00 -0.00000000000E+00 -0.45593999997E+02  0.45594000000E+02  0.51100000000E-03 0. -1.
    9900012    2    1    2    0    0  0.75503863106E+01 -0.25415954496E+02  0.17712762357E+02  0.59301936795E+02  0.49999986809E+02 0.  0.
         12    1    1    2    0    0 -0.75503863106E+01  0.25415954496E+02 -0.17712762357E+02  0.31886063205E+02  0.00000000000E+00 0. -1.
         11    1    3    3    0    0  0.33558697052E+01  0.11560571774E+02  0.16295970416E+02  0.20259993417E+02  0.51100000000E-03 0. -1.
        -11    1    3    3    0    0  0.42209073007E+01 -0.95674530325E+01  0.46469446651E+01  0.11443177485E+02  0.51100000000E-03 0.  1.
         12    1    3    3    0    0 -0.26390695248E-01 -0.27409073237E+02 -0.32301527236E+01  0.27598765893E+02  0.00000000000E+00 0. -1.
</event>
<event>
 7    1  0.7674040E-012  0.5930197E+02  0.7816164E-02  0.1266605E+00
        -11   -1    0    0    0    0  0.00000000000E+00  0.00000000000E+00  0.45593999997E+02  0.45594000000E+02  0.51100000000E-03 0. -1.
         11   -1    0    0    0    0 -0.00000000000E+00 -0.00000000000E+00 -0.45593999997E+02  0.45594000000E+02  0.51100000000E-03 0.  1.
    9900012    2    1    2    0    0  0.65623209847E+01 -0.31014379069E+02  0.34297827647E+01  0.59301965822E+02  0.50000039748E+02 0.  0.
         12    1    1    2    0    0 -0.65623209847E+01  0.31014379069E+02 -0.34297827647E+01  0.31886034178E+02  0.00000000000E+00 0. -1.
         11    1    3    3    0    0 -0.31052922887E+01  0.88753738283E+01 -0.53004842419E+01  0.10793990655E+02  0.51100000000E-03 0. -1.
        -11    1    3    3    0    0  0.16770982739E+02 -0.23947648501E+02  0.10269030553E+02  0.30987234784E+02  0.51100000000E-03 0.  1.
         12    1    3    3    0    0 -0.71033694660E+01 -0.15942104396E+02 -0.15387635461E+01  0.17520740384E+02  0.00000000000E+00 0. -1.
</event>
<event>
 7    1  0.7674040E-012  0.5930190E+02  0.7816164E-02  0.1266605E+00
        -11   -1    0    0    0    0  0.00000000000E+00  0.00000000000E+00  0.45593999997E+02  0.45594000000E+02  0.51100000000E-03 0.  1.
         11   -1    0    0    0    0 -0.00000000000E+00 -0.00000000000E+00 -0.45593999997E+02  0.45594000000E+02  0.51100000000E-03 0. -1.
    9900012    2    1    2    0    0  0.15818914716E+02  0.18318439670E+01  0.27624800937E+02  0.59301900491E+02  0.49999920599E+02 0.  0.
         12    1    1    2    0    0 -0.15818914716E+02 -0.18318439670E+01 -0.27624800937E+02  0.31886099509E+02  0.00000000000E+00 0. -1.
         11    1    3    3    0    0  0.42778920851E+01  0.61608583440E+01 -0.81229542117E+01  0.11056171200E+02  0.51100000000E-03 0. -1.
        -11    1    3    3    0    0 -0.43491767416E+01 -0.13273096436E+02  0.12895379319E+02  0.19010029863E+02  0.51100000000E-03 0.  1.
        -12    1    3    3    0    0  0.15890199372E+02  0.89440820594E+01  0.22852375829E+02  0.29235699428E+02  0.00000000000E+00 0.  1.
</event>
<event>
 7    1  0.7674040E-012  0.5930194E+02  0.7816164E-02  0.1266605E+00
        -11   -1    0    0    0    0  0.00000000000E+00  0.00000000000E+00  0.45593999997E+02  0.45594000000E+02  0.51100000000E-03 0.  1.
         11   -1    0    0    0    0 -0.00000000000E+00 -0.00000000000E+00 -0.45593999997E+02  0.45594000000E+02  0.51100000000E-03 0. -1.
    9900012    2    1    2    0    0  0.13627015403E+01  0.84041074499E+01  0.30728399873E+02  0.59301944486E+02  0.50000000835E+02 0.  0.
         12    1    1    2    0    0 -0.13627015403E+01 -0.84041074499E+01 -0.30728399873E+02  0.31886055514E+02  0.00000000000E+00 0. -1.
         11    1    3    3    0    0  0.79372906515E+00  0.13096672758E+02 -0.46024852667E+01  0.13904521353E+02  0.51100000000E-03 0. -1.
        -11    1    3    3    0    0  0.48726551784E+01 -0.46555616305E+01  0.39099964854E+02  0.39676495239E+02  0.51100000000E-03 0.  1.
        -12    1    3    3    0    0 -0.43036827032E+01 -0.37003677372E-01 -0.37690797142E+01  0.57209278945E+01  0.00000000000E+00 0.  1.
</event>
<event>
 7    1  0.7674040E-012  0.5930192E+02  0.7816164E-02  0.1266605E+00
        -11   -1    0    0    0    0  0.00000000000E+00  0.00000000000E+00  0.45593999997E+02  0.45594000000E+02  0.51100000000E-03 0.  1.
         11   -1    0    0    0    0 -0.00000000000E+00 -0.00000000000E+00 -0.45593999997E+02  0.45594000000E+02  0.51100000000E-03 0. -1.
    9900012    2    1    2    0    0 -0.10480381248E+01  0.23178450947E+02  0.21871978405E+02  0.59301915079E+02  0.49999947205E+02 0.  0.
         12    1    1    2    0    0  0.10480381248E+01 -0.23178450947E+02 -0.21871978405E+02  0.31886084921E+02  0.00000000000E+00 0. -1.
         11    1    3    3    0    0 -0.89294122979E+00  0.22298306568E+02 -0.66748793151E+01  0.23293042609E+02  0.51100000000E-03 0. -1.
        -11    1    3    3    0    0  0.10338772561E+02 -0.20870199331E+01  0.10242582113E+02  0.14702256932E+02  0.51100000000E-03 0.  1.
         12    1    3    3    0    0 -0.10493869456E+02  0.29671643117E+01  0.18304275607E+02  0.21306615539E+02  0.00000000000E+00 0. -1.
</event>
<event>
 7    1  0.7674040E-012  0.5930192E+02  0.7816164E-02  0.1266605E+00
        -11   -1    0    0    0    0  0.00000000000E+00  0.00000000000E+00  0.45593999997E+02  0.45594000000E+02  0.51100000000E-03 0. -1.
         11   -1    0    0    0    0 -0.00000000000E+00 -0.00000000000E+00 -0.45593999997E+02  0.45594000000E+02  0.51100000000E-03 0.  1.
    9900012    2    1    2    0    0 -0.25539678363E+02  0.10101439305E+02 -0.16199008228E+02  0.59301919738E+02  0.49999955701E+02 0.  0.
         12    1    1    2    0    0  0.25539678363E+02 -0.10101439305E+02  0.16199008228E+02  0.31886080262E+02  0.00000000000E+00 0. -1.
         11    1    3    3    0    0 -0.18678151595E+02  0.70017774760E+01  0.12097795859E+02  0.23329271307E+02  0.51100000000E-03 0. -1.
        -11    1    3    3    0    0  0.45810593513E+01 -0.58662097427E+01 -0.72247843174E+01  0.10372850631E+02  0.51100000000E-03 0.  1.
        -12    1    3    3    0    0 -0.11442586120E+02  0.89658715717E+01 -0.21072019770E+02  0.25599797799E+02  0.00000000000E+00 0.  1.
</event>
<event>
 7    1  0.7674040E-012  0.5930194E+02  0.7816164E-02  0.1266605E+00
        -11   -1    0    0    0    0  0.00000000000E+00  0.00000000000E+00  0.45593999997E+02  0.45594000000E+02  0.51100000000E-03 0.  1.
         11   -1    0    0    0    0 -0.00000000000E+00 -0.00000000000E+00 -0.45593999997E+02  0.45594000000E+02  0.51100000000E-03 0. -1.
    9900012    2    1    2    0    0 -0.27615467463E+02  0.15797046240E+02 -0.21354272310E+01  0.59301940937E+02  0.49999994363E+02 0.  0.
         12    1    1    2    0    0  0.27615467463E+02 -0.15797046240E+02  0.21354272310E+01  0.31886059063E+02  0.00000000000E+00 0. -1.
         11    1    3    3    0    0 -0.18468316511E+02 -0.79746670917E+01 -0.14644254487E+02  0.24882287268E+02  0.51100000000E-03 0. -1.
        -11    1    3    3    0    0 -0.12926773580E+02  0.72644897677E+01  0.82051632164E+01  0.16946946346E+02  0.51100000000E-03 0.  1.
         12    1    3    3    0    0  0.37796226278E+01  0.16507223564E+02  0.43036640398E+01  0.17472707323E+02  0.00000000000E+00 0. -1.
</event>
<event>
 7    1  0.7674040E-012  0.5930199E+02  0.7816164E-02  0.1266605E+00
        -11   -1    0    0    0    0  0.00000000000E+00  0.00000000000E+00  0.45593999997E+02  0.45594000000E+02  0.51100000000E-03 0. -1.
         11   -1    0    0    0    0 -0.00000000000E+00 -0.00000000000E+00 -0.45593999997E+02  0.45594000000E+02  0.51100000000E-03 0.  1.
    9900012    2    1    2    0    0 -0.27147758856E+02  0.13279887398E+02 -0.10166694513E+02  0.59301985863E+02  0.50000076298E+02 0.  0.
         12    1    1    2    0    0  0.27147758856E+02 -0.13279887398E+02  0.10166694513E+02  0.31886014137E+02  0.00000000000E+00 0. -1.
         11    1    3    3    0    0 -0.24975501523E+02  0.13904069469E+02 -0.24018075057E+01  0.28685667217E+02  0.51100000000E-03 0. -1.
        -11    1    3    3    0    0  0.93790477730E+01  0.88812386253E+01 -0.87865812431E+01  0.15622002012E+02  0.51100000000E-03 0.  1.
         12    1    3    3    0    0 -0.11551305106E+02 -0.95054206954E+01  0.10216942360E+01  0.14994316635E+02  0.00000000000E+00 0. -1.
</event>
<event>
 7    1  0.7674040E-012  0.5930194E+02  0.7816164E-02  0.1266605E+00
        -11   -1    0    0    0    0  0.00000000000E+00  0.00000000000E+00  0.45593999997E+02  0.45594000000E+02  0.51100000000E-03 0.  1.
         11   -1    0    0    0    0 -0.00000000000E+00 -0.00000000000E+00 -0.45593999997E+02  0.45594000000E+02  0.51100000000E-03 0. -1.
    9900012    2    1    2    0    0 -0.28937797146E+02  0.43039821465E+01  0.12680716355E+02  0.59301938260E+02  0.49999989482E+02 0.  0.
         12    1    1    2    0    0  0.28937797146E+02 -0.43039821465E+01 -0.12680716355E+02  0.31886061740E+02  0.00000000000E+00 0. -1.
         11    1    3    3    0    0 -0.32722896240E+02  0.32322694013E+01  0.18483126835E+02  0.37720836175E+02  0.51100000000E-03 0. -1.
        -11    1    3    3    0    0  0.69571668461E+01  0.18930807712E+01  0.59701671105E+01  0.93610267022E+01  0.51100000000E-03 0.  1.
         12    1    3    3    0    0 -0.31720677515E+01 -0.82136802597E+00 -0.11772577590E+02  0.12220075383E+02  0.00000000000E+00 0. -1.
</event>
<event>
 7    1  0.7674040E-012  0.5930189E+02  0.7816164E-02  0.1266605E+00
        -11   -1    0    0    0    0  0.00000000000E+00  0.00000000000E+00  0.45593999997E+02  0.45594000000E+02  0.51100000000E-03 0.  1.
         11   -1    0    0    0    0 -0.00000000000E+00 -0.00000000000E+00 -0.45593999997E+02  0.45594000000E+02  0.51100000000E-03 0. -1.
    9900012    2    1    2    0    0 -0.25817889519E+02  0.13440732280E+02  0.13019491425E+02  0.59301892361E+02  0.49999905772E+02 0.  0.
         12    1    1    2    0    0  0.25817889519E+02 -0.13440732280E+02 -0.13019491425E+02  0.31886107639E+02  0.00000000000E+00 0. -1.
         11    1    3    3    0    0 -0.49949119685E+01 -0.12718109249E+02  0.48837439001E+01  0.14510355033E+02  0.51100000000E-03 0. -1.
        -11    1    3    3    0    0 -0.24996522431E+02  0.29215816788E+02  0.50822769801E+01  0.38784270314E+02  0.51100000000E-03 0.  1.
         12    1    3    3    0    0  0.41735448811E+01 -0.30569752592E+01  0.30534705445E+01  0.60072670138E+01  0.00000000000E+00 0. -1.
</event>
<event>
 7    1  0.7674040E-012  0.5930195E+02  0.7816164E-02  0.1266605E+00
        -11   -1    0    0    0    0  0.00000000000E+00  0.00000000000E+00  0.45593999997E+02  0.45594000000E+02  0.51100000000E-03 0. -1.
         11   -1    0    0    0    0 -0.00000000000E+00 -0.00000000000E+00 -0.45593999997E+02  0.45594000000E+02  0.51100000000E-03 0.  1.
    9900012    2    1    2    0    0  0.11039741437E+02  0.28370202845E+02  0.94855499509E+01  0.59301953548E+02  0.50000017364E+02 0.  0.
         12    1    1    2    0    0 -0.11039741437E+02 -0.28370202845E+02 -0.94855499509E+01  0.31886046452E+02  0.00000000000E+00 0. -1.
         11    1    3    3    0    0  0.19754109599E+02 -0.28224452879E+01 -0.47316039754E+01  0.20508025744E+02  0.51100000000E-03 0.  1.
        -11    1    3    3    0    0 -0.54424012872E+01  0.22793869944E+02  0.17450264545E+02  0.29218007663E+02  0.51100000000E-03 0. -1.
        -12    1    3    3    0    0 -0.32719668755E+01  0.83987781883E+01 -0.32331106191E+01  0.95759201420E+01  0.00000000000E+00 0.  1.
</event>
<event>
 7    1  0.7674040E-012  0.5930196E+02  0.7816164E-02  0.1266605E+00
        -11   -1    0    0    0    0  0.00000000000E+00  0.00000000000E+00  0.45593999997E+02  0.45594000000E+02  0.51100000000E-03 0. -1.
         11   -1    0    0    0    0 -0.00000000000E+00 -0.00000000000E+00 -0.45593999997E+02  0.45594000000E+02  0.51100000000E-03 0.  1.
    9900012    2    1    2    0    0 -0.13382091544E+02 -0.13450489519E+02 -0.25626622911E+02  0.59301955337E+02  0.50000020626E+02 0.  0.
         12    1    1    2    0    0  0.13382091544E+02  0.13450489519E+02  0.25626622911E+02  0.31886044663E+02  0.00000000000E+00 0. -1.
         11    1    3    3    0    0  0.63151531076E+01  0.14613965688E+02 -0.32668316393E+01  0.16251810396E+02  0.51100000000E-03 0.  1.
        -11    1    3    3    0    0 -0.20874280179E+02 -0.23235125124E+02 -0.21706851740E+02  0.38036745724E+02  0.51100000000E-03 0. -1.
         12    1    3    3    0    0  0.11770355275E+01 -0.48293300834E+01 -0.65293953207E+00  0.50133992181E+01  0.00000000000E+00 0. -1.
</event>
<event>
 7    1  0.7674040E-012  0.5930199E+02  0.7816164E-02  0.1266605E+00
        -11   -1    0    0    0    0  0.00000000000E+00  0.00000000000E+00  0.45593999997E+02  0.45594000000E+02  0.51100000000E-03 0.  1.
         11   -1    0    0    0    0 -0.00000000000E+00 -0.00000000000E+00 -0.45593999997E+02  0.45594000000E+02  0.51100000000E-03 0. -1.
    9900012    2    1    2    0    0 -0.10105584251E+02  0.58672384875E+01  0.29667663495E+02  0.59301990877E+02  0.50000085442E+02 0.  0.
         12    1    1    2    0    0  0.10105584251E+02 -0.58672384875E+01 -0.29667663495E+02  0.31886009123E+02  0.00000000000E+00 0. -1.
         11    1    3    3    0    0 -0.22966014260E+02  0.10373553408E+02  0.38048827894E+01  0.25485791230E+02  0.51100000000E-03 0. -1.
        -11    1    3    3    0    0 -0.26575168707E+00  0.90260425442E+00  0.17114415104E+02  0.17140260296E+02  0.51100000000E-03 0.  1.
         12    1    3    3    0    0  0.13126181696E+02 -0.54089191752E+01  0.87483656018E+01  0.16675939352E+02  0.00000000000E+00 0. -1.
</event>
<event>
 7    1  0.7674040E-012  0.5930195E+02  0.7816164E-02  0.1266605E+00
        -11   -1    0    0    0    0  0.00000000000E+00  0.00000000000E+00  0.45593999997E+02  0.45594000000E+02  0.51100000000E-03 0.  1.
         11   -1    0    0    0    0 -0.00000000000E+00 -0.00000000000E+00 -0.45593999997E+02  0.45594000000E+02  0.51100000000E-03 0. -1.
    9900012    2    1    2    0    0  0.33060837958E+01  0.28014457338E+02  0.14865406406E+02  0.59301947914E+02  0.50000007088E+02 0.  0.
         12    1    1    2    0    0 -0.33060837958E+01 -0.28014457338E+02 -0.14865406406E+02  0.31886052086E+02  0.00000000000E+00 0. -1.
         11    1    3    3    0    0 -0.18519835065E+01 -0.10945970534E+02  0.53030224344E+01  0.12303095587E+02  0.51100000000E-03 0. -1.
        -11    1    3    3    0    0 -0.96252054668E+01  0.17135837046E+02  0.42775155380E+01  0.20114140076E+02  0.51100000000E-03 0.  1.
         12    1    3    3    0    0  0.14783272769E+02  0.21824590826E+02  0.52848684333E+01  0.26884712251E+02  0.00000000000E+00 0. -1.
</event>
<event>
 7    1  0.7674040E-012  0.5930202E+02  0.7816164E-02  0.1266605E+00
        -11   -1    0    0    0    0  0.00000000000E+00  0.00000000000E+00  0.45593999997E+02  0.45594000000E+02  0.51100000000E-03 0. -1.
         11   -1    0    0    0    0 -0.00000000000E+00 -0.00000000000E+00 -0.45593999997E+02  0.45594000000E+02  0.51100000000E-03 0.  1.
    9900012    2    1    2    0    0 -0.20071074586E+02 -0.63761270776E+01 -0.23941862473E+02  0.59302018594E+02  0.50000135990E+02 0.  0.
         12    1    1    2    0    0  0.20071074586E+02  0.63761270776E+01  0.23941862473E+02  0.31885981406E+02  0.00000000000E+00 0. -1.
         11    1    3    3    0    0 -0.22439601887E+01  0.14778925465E+02 -0.32575078877E-01  0.14948346284E+02  0.51100000000E-03 0. -1.
        -11    1    3    3    0    0 -0.16750539261E+02 -0.18782203608E+02 -0.29144090078E+02  0.38506229686E+02  0.51100000000E-03 0.  1.
         12    1    3    3    0    0 -0.10765751364E+01 -0.23728489347E+01  0.52348026839E+01  0.58474426232E+01  0.00000000000E+00 0. -1.
</event>
<event>
 7    1  0.7674040E-012  0.5930194E+02  0.7816164E-02  0.1266605E+00
        -11   -1    0    0    0    0  0.00000000000E+00  0.00000000000E+00  0.45593999997E+02  0.45594000000E+02  0.51100000000E-03 0. -1.
         11   -1    0    0    0    0 -0.00000000000E+00 -0.00000000000E+00 -0.45593999997E+02  0.45594000000E+02  0.51100000000E-03 0.  1.
    9900012    2    1    2    0    0  0.51572684788E+01  0.25908008170E+02 -0.17857723440E+02  0.59301943612E+02  0.49999999243E+02 0.  0.
         12    1    1    2    0    0 -0.51572684788E+01 -0.25908008170E+02  0.17857723440E+02  0.31886056388E+02  0.00000000000E+00 0. -1.
         11    1    3    3    0    0  0.22676936156E+02  0.14966978086E+02  0.57964588419E+00  0.27177009697E+02  0.51100000000E-03 0. -1.
        -11    1    3    3    0    0 -0.33163702784E+01  0.32997425045E+01 -0.14894665239E+02  0.15612099963E+02  0.51100000000E-03 0.  1.
         12    1    3    3    0    0 -0.14203297399E+02  0.76412875793E+01 -0.35427040853E+01  0.16512833952E+02  0.00000000000E+00 0. -1.
</event>
<event>
 7    1  0.7674040E-012  0.5930194E+02  0.7816164E-02  0.1266605E+00
        -11   -1    0    0    0    0  0.00000000000E+00  0.00000000000E+00  0.45593999997E+02  0.45594000000E+02  0.51100000000E-03 0. -1.
         11   -1    0    0    0    0 -0.00000000000E+00 -0.00000000000E+00 -0.45593999997E+02  0.45594000000E+02  0.51100000000E-03 0.  1.
    9900012    2    1    2    0    0  0.14903262870E+02  0.17899650678E+02  0.21776508569E+02  0.59301936210E+02  0.49999985742E+02 0.  0.
         12    1    1    2    0    0 -0.14903262870E+02 -0.17899650678E+02 -0.21776508569E+02  0.31886063790E+02  0.00000000000E+00 0. -1.
         11    1    3    3    0    0  0.14278267040E+02  0.24703058926E+02  0.80859018787E+01  0.29656227667E+02  0.51100000000E-03 0. -1.
        -11    1    3    3    0    0 -0.38267885221E+01 -0.14221099892E+02  0.14853625852E+02  0.20916839956E+02  0.51100000000E-03 0.  1.
        -12    1    3    3    0    0  0.44517843518E+01  0.74176916444E+01 -0.11630191618E+01  0.87288685875E+01  0.00000000000E+00 0.  1.
</event>
<event>
 7    1  0.7674040E-012  0.5930196E+02  0.7816164E-02  0.1266605E+00
        -11   -1    0    0    0    0  0.00000000000E+00  0.00000000000E+00  0.45593999997E+02  0.45594000000E+02  0.51100000000E-03 0.  1.
         11   -1    0    0    0    0 -0.00000000000E+00 -0.00000000000E+00 -0.45593999997E+02  0.45594000000E+02  0.51100000000E-03 0. -1.
    9900012    2    1    2    0    0  0.77635149134E+01 -0.30217635599E+02  0.65834344124E+01  0.59301964284E+02  0.50000036942E+02 0.  0.
         12    1    1    2    0    0 -0.77635149134E+01  0.30217635599E+02 -0.65834344124E+01  0.31886035716E+02  0.00000000000E+00 0. -1.
         11    1    3    3    0    0 -0.91872472434E+01 -0.24394357872E+02  0.12044037638E+02  0.28714962142E+02  0.51100000000E-03 0. -1.
        -11    1    3    3    0    0  0.26405163403E+01  0.38595609045E+01  0.76029866557E+01  0.89260261745E+01  0.51100000000E-03 0.  1.
         12    1    3    3    0    0  0.14310245816E+02 -0.96828386315E+01 -0.13063589881E+02  0.21660975968E+02  0.00000000000E+00 0. -1.
</event>
<event>
 7    1  0.7674040E-012  0.5930199E+02  0.7816164E-02  0.1266605E+00
        -11   -1    0    0    0    0  0.00000000000E+00  0.00000000000E+00  0.45593999997E+02  0.45594000000E+02  0.51100000000E-03 0. -1.
         11   -1    0    0    0    0 -0.00000000000E+00 -0.00000000000E+00 -0.45593999997E+02  0.45594000000E+02  0.51100000000E-03 0.  1.
    9900012    2    1    2    0    0 -0.85414433839E+01  0.25664565392E+02 -0.16884658321E+02  0.59301986476E+02  0.50000077416E+02 0.  0.
         12    1    1    2    0    0  0.85414433839E+01 -0.25664565392E+02  0.16884658321E+02  0.31886013524E+02  0.00000000000E+00 0. -1.
         11    1    3    3    0    0 -0.39026269931E+01 -0.30341578418E+01  0.63882022523E+01  0.80774834902E+01  0.51100000000E-03 0. -1.
        -11    1    3    3    0    0  0.13573952171E+02  0.18844688603E+02 -0.19170303381E+02  0.30114365310E+02  0.51100000000E-03 0.  1.
        -12    1    3    3    0    0 -0.18212768561E+02  0.98540346309E+01 -0.41025571919E+01  0.21110137676E+02  0.00000000000E+00 0.  1.
</event>
<event>
 7    1  0.7674040E-012  0.5930163E+02  0.7816164E-02  0.1266606E+00
        -11   -1    0    0    0    0  0.00000000000E+00  0.00000000000E+00  0.45593999997E+02  0.45594000000E+02  0.51100000000E-03 0.  1.
         11   -1    0    0    0    0 -0.00000000000E+00 -0.00000000000E+00 -0.45593999997E+02  0.45594000000E+02  0.51100000000E-03 0. -1.
    9900012    2    1    2    0    0 -0.31183060359E+02 -0.58985131986E+01 -0.30927529414E+01  0.59301626233E+02  0.49999420415E+02 0.  0.
         12    1    1    2    0    0  0.31183060359E+02  0.58985131986E+01  0.30927529414E+01  0.31886373767E+02  0.00000000000E+00 0. -1.
         11    1    3    3    0    0 -0.24207389348E+02  0.48245318401E-02  0.14094296201E+02  0.28011549547E+02  0.51100000000E-03 0. -1.
        -11    1    3    3    0    0  0.30271040639E+01  0.15261593181E+01  0.48837223139E+01  0.59450202000E+01  0.51100000000E-03 0.  1.
         12    1    3    3    0    0 -0.10002775074E+02 -0.74294970486E+01 -0.22070771457E+02  0.25345056486E+02  0.00000000000E+00 0. -1.
</event>
<event>
 7    1  0.7674040E-012  0.5930194E+02  0.7816164E-02  0.1266605E+00
        -11   -1    0    0    0    0  0.00000000000E+00  0.00000000000E+00  0.45593999997E+02  0.45594000000E+02  0.51100000000E-03 0. -1.
         11   -1    0    0    0    0 -0.00000000000E+00 -0.00000000000E+00 -0.45593999997E+02  0.45594000000E+02  0.51100000000E-03 0.  1.
    9900012    2    1    2    0    0 -0.28056712149E+02  0.12307251626E+02 -0.88359119467E+01  0.59301939109E+02  0.49999991030E+02 0.  0.
         12    1    1    2    0    0  0.28056712149E+02 -0.12307251626E+02  0.88359119467E+01  0.31886060891E+02  0.00000000000E+00 0. -1.
         11    1    3    3    0    0 -0.10822946239E+02 -0.10290800426E+02  0.96500477466E+01  0.17780893129E+02  0.51100000000E-03 0. -1.
        -11    1    3    3    0    0  0.28867085073E+01  0.13910082553E+02 -0.25740212546E+01  0.14437765351E+02  0.51100000000E-03 0.  1.
        -12    1    3    3    0    0 -0.20120474417E+02  0.86879694989E+01 -0.15911938439E+02  0.27083280630E+02  0.00000000000E+00 0.  1.
</event>
<event>
 7    1  0.7674040E-012  0.5930194E+02  0.7816164E-02  0.1266605E+00
        -11   -1    0    0    0    0  0.00000000000E+00  0.00000000000E+00  0.45593999997E+02  0.45594000000E+02  0.51100000000E-03 0.  1.
         11   -1    0    0    0    0 -0.00000000000E+00 -0.00000000000E+00 -0.45593999997E+02  0.45594000000E+02  0.51100000000E-03 0. -1.
    9900012    2    1    2    0    0 -0.60892434661E+01  0.30687034163E+02  0.61601719523E+01  0.59301942385E+02  0.49999997005E+02 0.  0.
         12    1    1    2    0    0  0.60892434661E+01 -0.30687034163E+02 -0.61601719523E+01  0.31886057615E+02  0.00000000000E+00 0. -1.
         11    1    3    3    0    0 -0.10039326491E+01  0.21019938118E+02  0.75312317729E+01  0.22350953705E+02  0.51100000000E-03 0. -1.
        -11    1    3    3    0    0  0.95331851458E+01 -0.71079912837E+01  0.62465634865E+01  0.13432226724E+02  0.51100000000E-03 0.  1.
        -12    1    3    3    0    0 -0.14618495963E+02  0.16775087329E+02 -0.76176233072E+01  0.23518761956E+02  0.00000000000E+00 0.  1.
</event>
<event>
 7    1  0.7674040E-012  0.5930194E+02  0.7816164E-02  0.1266605E+00
        -11   -1    0    0    0    0  0.00000000000E+00  0.00000000000E+00  0.45593999997E+02  0.45594000000E+02  0.51100000000E-03 0.  1.
         11   -1    0    0    0    0 -0.00000000000E+00 -0.00000000000E+00 -0.45593999997E+02  0.45594000000E+02  0.51100000000E-03 0. -1.
    9900012    2    1    2    0    0 -0.20672847197E+02  0.40539782925E+01  0.23935733818E+02  0.59301941846E+02  0.49999996020E+02 0.  0.
         12    1    1    2    0    0  0.20672847197E+02 -0.40539782925E+01 -0.23935733818E+02  0.31886058154E+02  0.00000000000E+00 0. -1.
         11    1    3    3    0    0 -0.23569079140E+01 -0.90473558005E+01 -0.75496675993E+01  0.12016952318E+02  0.51100000000E-03 0. -1.
        -11    1    3    3    0    0 -0.24511949695E+02  0.51761863544E+01  0.24473990571E+02  0.35022918179E+02  0.51100000000E-03 0.  1.
        -12    1    3    3    0    0  0.61960104121E+01  0.79251477386E+01  0.70114108462E+01  0.12262071349E+02  0.00000000000E+00 0.  1.
</event>
<event>
 7    1  0.7674040E-012  0.5930195E+02  0.7816164E-02  0.1266605E+00
        -11   -1    0    0    0    0  0.00000000000E+00  0.00000000000E+00  0.45593999997E+02  0.45594000000E+02  0.51100000000E-03 0.  1.
         11   -1    0    0    0    0 -0.00000000000E+00 -0.00000000000E+00 -0.45593999997E+02  0.45594000000E+02  0.51100000000E-03 0. -1.
    9900012    2    1    2    0    0  0.25632249712E+02  0.25300085290E+01  0.18796467978E+02  0.59301946984E+02  0.50000005392E+02 0.  0.
         12    1    1    2    0    0 -0.25632249712E+02 -0.25300085290E+01 -0.18796467978E+02  0.31886053016E+02  0.00000000000E+00 0. -1.
         11    1    3    3    0    0  0.41856948560E+01 -0.41971779632E+01 -0.99074138105E+01  0.11545267124E+02  0.51100000000E-03 0. -1.
        -11    1    3    3    0    0  0.27398229571E+02  0.38630778948E+01  0.30226609462E+02  0.40978461102E+02  0.51100000000E-03 0.  1.
        -12    1    3    3    0    0 -0.59516747149E+01  0.28641085974E+01 -0.15227276733E+01  0.67782187583E+01  0.00000000000E+00 0.  1.
</event>
<event>
 7    1  0.7674040E-012  0.5930192E+02  0.7816164E-02  0.1266605E+00
        -11   -1    0    0    0    0  0.00000000000E+00  0.00000000000E+00  0.45593999997E+02  0.45594000000E+02  0.51100000000E-03 0.  1.
         11   -1    0    0    0    0 -0.00000000000E+00 -0.00000000000E+00 -0.45593999997E+02  0.45594000000E+02  0.51100000000E-03 0. -1.
    9900012    2    1    2    0    0  0.24796986424E+02  0.17097136211E+02 -0.10465156346E+02  0.59301919971E+02  0.49999956125E+02 0.  0.
         12    1    1    2    0    0 -0.24796986424E+02 -0.17097136211E+02  0.10465156346E+02  0.31886080029E+02  0.00000000000E+00 0. -1.
         11    1    3    3    0    0  0.21244953642E+01 -0.10073364711E+02 -0.16355721560E+02  0.19326039045E+02  0.51100000000E-03 0. -1.
        -11    1    3    3    0    0  0.12714512278E+02  0.51257766767E+01  0.76920328113E+01  0.15719407688E+02  0.51100000000E-03 0.  1.
         12    1    3    3    0    0  0.99579787813E+01  0.22044724245E+02 -0.18014675967E+01  0.24256473238E+02  0.00000000000E+00 0. -1.
</event>
<event>
 7    1  0.7674040E-012  0.5930190E+02  0.7816164E-02  0.1266605E+00
        -11   -1    0    0    0    0  0.00000000000E+00  0.00000000000E+00  0.45593999997E+02  0.45594000000E+02  0.51100000000E-03 0. -1.
         11   -1    0    0    0    0 -0.00000000000E+00 -0.00000000000E+00 -0.45593999997E+02  0.45594000000E+02  0.51100000000E-03 0.  1.
    9900012    2    1    2    0    0 -0.91584409390E+01 -0.30513562772E+02  0.13299346088E+01  0.59301901469E+02  0.49999922382E+02 0.  0.
         12    1    1    2    0    0  0.91584409390E+01  0.30513562772E+02 -0.13299346088E+01  0.31886098531E+02  0.00000000000E+00 0. -1.
         11    1    3    3    0    0 -0.25352797462E+01 -0.36995347206E+02  0.10281390230E+02  0.38481038754E+02  0.51100000000E-03 0. -1.
        -11    1    3    3    0    0 -0.68879006132E+01 -0.34221822638E+01 -0.34778350622E+00  0.76990557819E+01  0.51100000000E-03 0.  1.
         12    1    3    3    0    0  0.26473942045E+00  0.99039666977E+01 -0.86036721147E+01  0.13121806932E+02  0.00000000000E+00 0. -1.
</event>
<event>
 7    1  0.7674040E-012  0.5930193E+02  0.7816164E-02  0.1266605E+00
        -11   -1    0    0    0    0  0.00000000000E+00  0.00000000000E+00  0.45593999997E+02  0.45594000000E+02  0.51100000000E-03 0.  1.
         11   -1    0    0    0    0 -0.00000000000E+00 -0.00000000000E+00 -0.45593999997E+02  0.45594000000E+02  0.51100000000E-03 0. -1.
    9900012    2    1    2    0    0 -0.18847679431E+02  0.19880189027E+02  0.16317622617E+02  0.59301925555E+02  0.49999966309E+02 0.  0.
         12    1    1    2    0    0  0.18847679431E+02 -0.19880189027E+02 -0.16317622617E+02  0.31886074445E+02  0.00000000000E+00 0. -1.
         11    1    3    3    0    0  0.15320023747E+01  0.64402872912E+01 -0.34847493718E+01  0.74811636872E+01  0.51100000000E-03 0. -1.
        -11    1    3    3    0    0 -0.28846900377E+02  0.21655910330E+02  0.14293083208E+02  0.38799669347E+02  0.51100000000E-03 0.  1.
        -12    1    3    3    0    0  0.84672185718E+01 -0.82160085939E+01  0.55092887803E+01  0.13021092520E+02  0.00000000000E+00 0.  1.
</event>
<event>
 7    1  0.7674040E-012  0.5930195E+02  0.7816164E-02  0.1266605E+00
        -11   -1    0    0    0    0  0.00000000000E+00  0.00000000000E+00  0.45593999997E+02  0.45594000000E+02  0.51100000000E-03 0.  1.
         11   -1    0    0    0    0 -0.00000000000E+00 -0.00000000000E+00 -0.45593999997E+02  0.45594000000E+02  0.51100000000E-03 0. -1.
    9900012    2    1    2    0    0 -0.57096776452E+01 -0.92507637177E+01  0.29975712297E+02  0.59301947001E+02  0.50000005422E+02 0.  0.
         12    1    1    2    0    0  0.57096776452E+01  0.92507637177E+01 -0.29975712297E+02  0.31886052999E+02  0.00000000000E+00 0. -1.
         11    1    3    3    0    0 -0.21090558796E+02 -0.14636558112E+02  0.44050595512E+01  0.26046977821E+02  0.51100000000E-03 0. -1.
        -11    1    3    3    0    0  0.19967481474E+01  0.73595279454E+01  0.76553726756E+01  0.10805294342E+02  0.51100000000E-03 0.  1.
         12    1    3    3    0    0  0.13384133003E+02 -0.19737335506E+01  0.17915280070E+02  0.22449674838E+02  0.00000000000E+00 0. -1.
</event>
<event>
 7    1  0.7674040E-012  0.5930193E+02  0.7816164E-02  0.1266605E+00
        -11   -1    0    0    0    0  0.00000000000E+00  0.00000000000E+00  0.45593999997E+02  0.45594000000E+02  0.51100000000E-03 0. -1.
         11   -1    0    0    0    0 -0.00000000000E+00 -0.00000000000E+00 -0.45593999997E+02  0.45594000000E+02  0.51100000000E-03 0.  1.
    9900012    2    1    2    0    0 -0.44940074351E+01 -0.23121073559E+02 -0.21492813632E+02  0.59301934342E+02  0.49999982335E+02 0.  0.
         12    1    1    2    0    0  0.44940074351E+01  0.23121073559E+02  0.21492813632E+02  0.31886065658E+02  0.00000000000E+00 0. -1.
         11    1    3    3    0    0 -0.56332178721E+00 -0.47665755442E+01  0.17028278937E+01  0.50928574446E+01  0.51100000000E-03 0. -1.
        -11    1    3    3    0    0  0.31541224498E+01  0.10506503622E+02  0.60388216193E+01  0.12522079444E+02  0.51100000000E-03 0.  1.
        -12    1    3    3    0    0 -0.70848080978E+01 -0.28861001637E+02 -0.29234463145E+02  0.41686997453E+02  0.00000000000E+00 0.  1.
</event>
<event>
 7    1  0.7674040E-012  0.5930195E+02  0.7816164E-02  0.1266605E+00
        -11   -1    0    0    0    0  0.00000000000E+00  0.00000000000E+00  0.45593999997E+02  0.45594000000E+02  0.51100000000E-03 0. -1.
         11   -1    0    0    0    0 -0.00000000000E+00 -0.00000000000E+00 -0.45593999997E+02  0.45594000000E+02  0.51100000000E-03 0.  1.
    9900012    2    1    2    0    0 -0.19435900672E+02  0.19158409190E+02 -0.16490039850E+02  0.59301948318E+02  0.50000007824E+02 0.  0.
         12    1    1    2    0    0  0.19435900672E+02 -0.19158409190E+02  0.16490039850E+02  0.31886051682E+02  0.00000000000E+00 0. -1.
         11    1    3    3    0    0  0.57228997617E+01  0.71388457582E+01  0.94144968836E+01  0.13128116859E+02  0.51100000000E-03 0. -1.
        -11    1    3    3    0    0 -0.30394256635E+02  0.10566546080E+02 -0.24807213597E+02  0.40630783639E+02  0.51100000000E-03 0.  1.
        -12    1    3    3    0    0  0.52354562011E+01  0.14530173516E+01 -0.10973231375E+01  0.55430478192E+01  0.00000000000E+00 0.  1.
</event>
<event>
 7    1  0.7674040E-012  0.5930193E+02  0.7816164E-02  0.1266605E+00
        -11   -1    0    0    0    0  0.00000000000E+00  0.00000000000E+00  0.45593999997E+02  0.45594000000E+02  0.51100000000E-03 0. -1.
         11   -1    0    0    0    0 -0.00000000000E+00 -0.00000000000E+00 -0.45593999997E+02  0.45594000000E+02  0.51100000000E-03 0.  1.
    9900012    2    1    2    0    0 -0.86548359220E+00 -0.31580380922E+02 -0.43188128491E+01  0.59301926779E+02  0.49999968542E+02 0.  0.
         12    1    1    2    0    0  0.86548359220E+00  0.31580380922E+02  0.43188128491E+01  0.31886073221E+02  0.00000000000E+00 0. -1.
         11    1    3    3    0    0  0.14821854841E+02  0.59740025415E+00 -0.61340888297E+01  0.16052143596E+02  0.51100000000E-03 0. -1.
        -11    1    3    3    0    0 -0.13573371099E+02 -0.23335324473E+02  0.12047410328E+02  0.29562034218E+02  0.51100000000E-03 0.  1.
         12    1    3    3    0    0 -0.21139673342E+01 -0.88424567031E+01 -0.10232134347E+02  0.13687748965E+02  0.00000000000E+00 0. -1.
</event>
<event>
 7    1  0.7674040E-012  0.5930194E+02  0.7816164E-02  0.1266605E+00
        -11   -1    0    0    0    0  0.00000000000E+00  0.00000000000E+00  0.45593999997E+02  0.45594000000E+02  0.51100000000E-03 0.  1.
         11   -1    0    0    0    0 -0.00000000000E+00 -0.00000000000E+00 -0.45593999997E+02  0.45594000000E+02  0.51100000000E-03 0. -1.
    9900012    2    1    2    0    0 -0.20983026936E+02 -0.14373765899E+02  0.19230920139E+02  0.59301939489E+02  0.49999991723E+02 0.  0.
         12    1    1    2    0    0  0.20983026936E+02  0.14373765899E+02 -0.19230920139E+02  0.31886060511E+02  0.00000000000E+00 0. -1.
         11    1    3    3    0    0  0.26466465471E+01  0.13816397367E+02  0.10117878386E+02  0.17328272777E+02  0.51100000000E-03 0. -1.
        -11    1    3    3    0    0 -0.15328197959E+01 -0.14782720596E+02  0.56351308001E+01  0.15894435006E+02  0.51100000000E-03 0.  1.
         12    1    3    3    0    0 -0.22096853687E+02 -0.13407442669E+02  0.34779109530E+01  0.26079231706E+02  0.00000000000E+00 0. -1.
</event>
<event>
 7    1  0.7674040E-012  0.5930197E+02  0.7816164E-02  0.1266605E+00
        -11   -1    0    0    0    0  0.00000000000E+00  0.00000000000E+00  0.45593999997E+02  0.45594000000E+02  0.51100000000E-03 0.  1.
         11   -1    0    0    0    0 -0.00000000000E+00 -0.00000000000E+00 -0.45593999997E+02  0.45594000000E+02  0.51100000000E-03 0. -1.
    9900012    2    1    2    0    0  0.43275126328E+01 -0.29610532066E+01  0.31451931085E+02  0.59301965900E+02  0.50000039889E+02 0.  0.
         12    1    1    2    0    0 -0.43275126328E+01  0.29610532066E+01 -0.31451931085E+02  0.31886034100E+02  0.00000000000E+00 0. -1.
         11    1    3    3    0    0  0.41248289542E+01  0.48152333133E+01  0.55391036510E+01  0.84191659492E+01  0.51100000000E-03 0. -1.
        -11    1    3    3    0    0  0.17574827860E+02 -0.12817905087E+02  0.34217021741E+01  0.22020020689E+02  0.51100000000E-03 0.  1.
        -12    1    3    3    0    0 -0.17372144182E+02  0.50416185667E+01  0.22491125260E+02  0.28862779261E+02  0.00000000000E+00 0.  1.
</event>
<event>
 7    1  0.7674040E-012  0.5930194E+02  0.7816164E-02  0.1266605E+00
        -11   -1    0    0    0    0  0.00000000000E+00  0.00000000000E+00  0.45593999997E+02  0.45594000000E+02  0.51100000000E-03 0.  1.
         11   -1    0    0    0    0 -0.00000000000E+00 -0.00000000000E+00 -0.45593999997E+02  0.45594000000E+02  0.51100000000E-03 0. -1.
    9900012    2    1    2    0    0 -0.20796369216E+02 -0.12613225879E+02  0.20618884366E+02  0.59301939846E+02  0.49999992373E+02 0.  0.
         12    1    1    2    0    0  0.20796369216E+02  0.12613225879E+02 -0.20618884366E+02  0.31886060154E+02  0.00000000000E+00 0. -1.
         11    1    3    3    0    0 -0.20087929100E+02  0.41039172598E+01 -0.37912079992E+01  0.20850426632E+02  0.51100000000E-03 0. -1.
        -11    1    3    3    0    0 -0.10818825894E+02 -0.16079004504E+02  0.13866767668E+02  0.23829994238E+02  0.51100000000E-03 0.  1.
        -12    1    3    3    0    0  0.10110385777E+02 -0.63813863554E+00  0.10543324697E+02  0.14621518976E+02  0.00000000000E+00 0.  1.
</event>
<event>
 7    1  0.7674040E-012  0.5930178E+02  0.7816164E-02  0.1266605E+00
        -11   -1    0    0    0    0  0.00000000000E+00  0.00000000000E+00  0.45593999997E+02  0.45594000000E+02  0.51100000000E-03 0.  1.
         11   -1    0    0    0    0 -0.00000000000E+00 -0.00000000000E+00 -0.45593999997E+02  0.45594000000E+02  0.51100000000E-03 0. -1.
    9900012    2    1    2    0    0 -0.23551446031E+02  0.13857338173E+02  0.16432734822E+02  0.59301777189E+02  0.49999695726E+02 0.  0.
         12    1    1    2    0    0  0.23551446031E+02 -0.13857338173E+02 -0.16432734822E+02  0.31886222811E+02  0.00000000000E+00 0. -1.
         11    1    3    3    0    0  0.27861246247E+01  0.26431390555E+02  0.69870520580E+01  0.27480898709E+02  0.51100000000E-03 0. -1.
        -11    1    3    3    0    0 -0.53896064269E+01 -0.49490416735E+01  0.55653070880E+01  0.91931231998E+01  0.51100000000E-03 0.  1.
         12    1    3    3    0    0 -0.20947964229E+02 -0.76250107087E+01  0.38803756758E+01  0.22627755281E+02  0.00000000000E+00 0. -1.
</event>
<event>
 7    1  0.7674040E-012  0.5930193E+02  0.7816164E-02  0.1266605E+00
        -11   -1    0    0    0    0  0.00000000000E+00  0.00000000000E+00  0.45593999997E+02  0.45594000000E+02  0.51100000000E-03 0.  1.
         11   -1    0    0    0    0 -0.00000000000E+00 -0.00000000000E+00 -0.45593999997E+02  0.45594000000E+02  0.51100000000E-03 0. -1.
    9900012    2    1    2    0    0 -0.33870746447E+01  0.30849186049E+02  0.73196147902E+01  0.59301932271E+02  0.49999978559E+02 0.  0.
         12    1    1    2    0    0  0.33870746447E+01 -0.30849186049E+02 -0.73196147902E+01  0.31886067729E+02  0.00000000000E+00 0. -1.
         11    1    3    3    0    0 -0.83278667718E+00 -0.27989372569E+01 -0.15047527925E+02  0.15328264100E+02  0.51100000000E-03 0. -1.
        -11    1    3    3    0    0 -0.12059192659E+01  0.23474345304E+02  0.23987023720E+02  0.33583871664E+02  0.51100000000E-03 0.  1.
        -12    1    3    3    0    0 -0.13483687016E+01  0.10173778002E+02 -0.16198810049E+01  0.10389796507E+02  0.00000000000E+00 0.  1.
</event>
<event>
 7    1  0.7674040E-012  0.5930193E+02  0.7816164E-02  0.1266605E+00
        -11   -1    0    0    0    0  0.00000000000E+00  0.00000000000E+00  0.45593999997E+02  0.45594000000E+02  0.51100000000E-03 0. -1.
         11   -1    0    0    0    0 -0.00000000000E+00 -0.00000000000E+00 -0.45593999997E+02  0.45594000000E+02  0.51100000000E-03 0.  1.
    9900012    2    1    2    0    0  0.25937802291E+02  0.16699234778E+02 -0.80676794938E+01  0.59301929652E+02  0.49999973782E+02 0.  0.
         12    1    1    2    0    0 -0.25937802291E+02 -0.16699234778E+02  0.80676794938E+01  0.31886070348E+02  0.00000000000E+00 0. -1.
         11    1    3    3    0    0  0.23686458434E+01  0.34690713510E+01  0.28285307772E+01  0.50641411698E+01  0.51100000000E-03 0. -1.
        -11    1    3    3    0    0  0.26337145173E+02  0.22355245761E+02 -0.20933369633E+02  0.40393170132E+02  0.51100000000E-03 0.  1.
        -12    1    3    3    0    0 -0.27679887254E+01 -0.91250823337E+01  0.10037159363E+02  0.13844618350E+02  0.00000000000E+00 0.  1.
</event>
<event>
 7    1  0.7674040E-012  0.5930190E+02  0.7816164E-02  0.1266605E+00
        -11   -1    0    0    0    0  0.00000000000E+00  0.00000000000E+00  0.45593999997E+02  0.45594000000E+02  0.51100000000E-03 0.  1.
         11   -1    0    0    0    0 -0.00000000000E+00 -0.00000000000E+00 -0.45593999997E+02  0.45594000000E+02  0.51100000000E-03 0. -1.
    9900012    2    1    2    0    0  0.23092078344E+01  0.24005217642E+02  0.20860024942E+02  0.59301897143E+02  0.49999914493E+02 0.  0.
         12    1    1    2    0    0 -0.23092078344E+01 -0.24005217642E+02 -0.20860024942E+02  0.31886102857E+02  0.00000000000E+00 0. -1.
         11    1    3    3    0    0 -0.54988242925E+01  0.13151980530E+02 -0.12424293049E+02  0.18909646176E+02  0.51100000000E-03 0. -1.
        -11    1    3    3    0    0  0.12113899658E+02  0.18489071776E+01  0.13495877707E+02  0.18229200148E+02  0.51100000000E-03 0.  1.
         12    1    3    3    0    0 -0.43058675310E+01  0.90043299343E+01  0.19788440284E+02  0.22163050819E+02  0.00000000000E+00 0. -1.
</event>
<event>
 7    1  0.7674040E-012  0.5930189E+02  0.7816164E-02  0.1266605E+00
        -11   -1    0    0    0    0  0.00000000000E+00  0.00000000000E+00  0.45593999997E+02  0.45594000000E+02  0.51100000000E-03 0.  1.
         11   -1    0    0    0    0 -0.00000000000E+00 -0.00000000000E+00 -0.45593999997E+02  0.45594000000E+02  0.51100000000E-03 0. -1.
    9900012    2    1    2    0    0 -0.50587737247E+01  0.21518497920E+01  0.31408630295E+02  0.59301894779E+02  0.49999910182E+02 0.  0.
         12    1    1    2    0    0  0.50587737247E+01 -0.21518497920E+01 -0.31408630295E+02  0.31886105221E+02  0.00000000000E+00 0. -1.
         11    1    3    3    0    0  0.16839874550E+02  0.10042109553E+02  0.15191536813E+01  0.19665532469E+02  0.51100000000E-03 0. -1.
        -11    1    3    3    0    0 -0.46905595086E+01 -0.63526462310E+01  0.14446148934E+02  0.16463556175E+02  0.51100000000E-03 0.  1.
         12    1    3    3    0    0 -0.17208088766E+02 -0.15376135298E+01  0.15443327680E+02  0.23172806135E+02  0.00000000000E+00 0. -1.
</event>
<event>
 7    1  0.7674040E-012  0.5930194E+02  0.7816164E-02  0.1266605E+00
        -11   -1    0    0    0    0  0.00000000000E+00  0.00000000000E+00  0.45593999997E+02  0.45594000000E+02  0.51100000000E-03 0.  1.
         11   -1    0    0    0    0 -0.00000000000E+00 -0.00000000000E+00 -0.45593999997E+02  0.45594000000E+02  0.51100000000E-03 0. -1.
    9900012    2    1    2    0    0 -0.59789282220E+01 -0.15844872662E+02  0.27016903282E+02  0.59301942933E+02  0.49999998003E+02 0.  0.
         12    1    1    2    0    0  0.59789282220E+01  0.15844872662E+02 -0.27016903282E+02  0.31886057067E+02  0.00000000000E+00 0. -1.
         11    1    3    3    0    0 -0.18852031545E+02 -0.42695407863E+01  0.28197259076E+01  0.19534045315E+02  0.51100000000E-03 0. -1.
        -11    1    3    3    0    0  0.99615731225E+01 -0.11296536585E+02  0.29832420457E+02  0.33418826857E+02  0.51100000000E-03 0.  1.
         12    1    3    3    0    0  0.29115302007E+01 -0.27879529057E+00 -0.56352430828E+01  0.63490707609E+01  0.00000000000E+00 0. -1.
</event>
<event>
 7    1  0.7674040E-012  0.5930197E+02  0.7816164E-02  0.1266605E+00
        -11   -1    0    0    0    0  0.00000000000E+00  0.00000000000E+00  0.45593999997E+02  0.45594000000E+02  0.51100000000E-03 0.  1.
         11   -1    0    0    0    0 -0.00000000000E+00 -0.00000000000E+00 -0.45593999997E+02  0.45594000000E+02  0.51100000000E-03 0. -1.
    9900012    2    1    2    0    0  0.21442978018E+02 -0.20848389881E+02  0.11057227369E+02  0.59301969454E+02  0.50000046371E+02 0.  0.
         12    1    1    2    0    0 -0.21442978018E+02  0.20848389881E+02 -0.11057227369E+02  0.31886030546E+02  0.00000000000E+00 0. -1.
         11    1    3    3    0    0 -0.71353304389E+01 -0.16311907528E+02 -0.51343044250E+01  0.18529769288E+02  0.51100000000E-03 0. -1.
        -11    1    3    3    0    0  0.23363880923E+02 -0.13534012692E+02  0.11099444878E+02  0.29193117479E+02  0.51100000000E-03 0.  1.
         12    1    3    3    0    0  0.52144275343E+01  0.89975303388E+01  0.50920869160E+01  0.11579082687E+02  0.00000000000E+00 0. -1.
</event>
<event>
 7    1  0.7674040E-012  0.5930206E+02  0.7816164E-02  0.1266604E+00
        -11   -1    0    0    0    0  0.00000000000E+00  0.00000000000E+00  0.45593999997E+02  0.45594000000E+02  0.51100000000E-03 0.  1.
         11   -1    0    0    0    0 -0.00000000000E+00 -0.00000000000E+00 -0.45593999997E+02  0.45594000000E+02  0.51100000000E-03 0. -1.
    9900012    2    1    2    0    0  0.11776857134E+02  0.17697828639E+02  0.23765635360E+02  0.59302063812E+02  0.50000218458E+02 0.  0.
         12    1    1    2    0    0 -0.11776857134E+02 -0.17697828639E+02 -0.23765635360E+02  0.31885936188E+02  0.00000000000E+00 0. -1.
         11    1    3    3    0    0 -0.58564214300E+01  0.24140402806E+02  0.18532517638E+02  0.30992110768E+02  0.51100000000E-03 0. -1.
        -11    1    3    3    0    0  0.55658106605E+01 -0.12908564460E+02  0.36833322861E+01  0.14531903582E+02  0.51100000000E-03 0.  1.
        -12    1    3    3    0    0  0.12067467903E+02  0.64659902934E+01  0.15497854361E+01  0.13778049462E+02  0.00000000000E+00 0.  1.
</event>
<event>
 7    1  0.7674040E-012  0.5930185E+02  0.7816164E-02  0.1266605E+00
        -11   -1    0    0    0    0  0.00000000000E+00  0.00000000000E+00  0.45593999997E+02  0.45594000000E+02  0.51100000000E-03 0.  1.
         11   -1    0    0    0    0 -0.00000000000E+00 -0.00000000000E+00 -0.45593999997E+02  0.45594000000E+02  0.51100000000E-03 0. -1.
    9900012    2    1    2    0    0 -0.91694522220E+01 -0.20747234991E+02  0.22409811255E+02  0.59301854822E+02  0.49999837310E+02 0.  0.
         12    1    1    2    0    0  0.91694522220E+01  0.20747234991E+02 -0.22409811255E+02  0.31886145178E+02  0.00000000000E+00 0. -1.
         11    1    3    3    0    0  0.84352892641E+01 -0.85297404728E+01 -0.10678258124E+02  0.16060379022E+02  0.51100000000E-03 0. -1.
        -11    1    3    3    0    0 -0.12566595656E+02 -0.16818479142E+02  0.24232925060E+02  0.32062676499E+02  0.51100000000E-03 0.  1.
         12    1    3    3    0    0 -0.50381458297E+01  0.46009846239E+01  0.88551443192E+01  0.11178799302E+02  0.00000000000E+00 0. -1.
</event>
<event>
 7    1  0.7674040E-012  0.5930193E+02  0.7816164E-02  0.1266605E+00
        -11   -1    0    0    0    0  0.00000000000E+00  0.00000000000E+00  0.45593999997E+02  0.45594000000E+02  0.51100000000E-03 0. -1.
         11   -1    0    0    0    0 -0.00000000000E+00 -0.00000000000E+00 -0.45593999997E+02  0.45594000000E+02  0.51100000000E-03 0.  1.
    9900012    2    1    2    0    0 -0.21453900521E+02 -0.21457737726E+02 -0.97988185326E+01  0.59301934069E+02  0.49999981838E+02 0.  0.
         12    1    1    2    0    0  0.21453900521E+02  0.21457737726E+02  0.97988185326E+01  0.31886065931E+02  0.00000000000E+00 0. -1.
         11    1    3    3    0    0 -0.81844422760E+01  0.13719162837E+02 -0.78721508828E+01  0.17809303302E+02  0.51100000000E-03 0.  1.
        -11    1    3    3    0    0 -0.29338723265E+01 -0.13606389882E+02  0.74667846813E+01  0.15795389396E+02  0.51100000000E-03 0. -1.
         12    1    3    3    0    0 -0.10335585919E+02 -0.21570510682E+02 -0.93934523311E+01  0.25697241371E+02  0.00000000000E+00 0. -1.
</event>
<event>
 7    1  0.7674040E-012  0.5930197E+02  0.7816164E-02  0.1266605E+00
        -11   -1    0    0    0    0  0.00000000000E+00  0.00000000000E+00  0.45593999997E+02  0.45594000000E+02  0.51100000000E-03 0.  1.
         11   -1    0    0    0    0 -0.00000000000E+00 -0.00000000000E+00 -0.45593999997E+02  0.45594000000E+02  0.51100000000E-03 0. -1.
    9900012    2    1    2    0    0  0.31352341242E+02  0.35174990747E+01 -0.46235346558E+01  0.59301965851E+02  0.50000039800E+02 0.  0.
         12    1    1    2    0    0 -0.31352341242E+02 -0.35174990747E+01  0.46235346558E+01  0.31886034149E+02  0.00000000000E+00 0. -1.
         11    1    3    3    0    0  0.23925230696E+02 -0.18695311629E+02 -0.13611813694E+02  0.33274807484E+02  0.51100000000E-03 0. -1.
        -11    1    3    3    0    0  0.33469009969E+01  0.18626673798E+02  0.77829516716E+01  0.20462870278E+02  0.51100000000E-03 0.  1.
         12    1    3    3    0    0  0.40802095484E+01  0.35861369065E+01  0.12053273664E+01  0.55642880885E+01  0.00000000000E+00 0. -1.
</event>
<event>
 7    1  0.7674040E-012  0.5930195E+02  0.7816164E-02  0.1266605E+00
        -11   -1    0    0    0    0  0.00000000000E+00  0.00000000000E+00  0.45593999997E+02  0.45594000000E+02  0.51100000000E-03 0. -1.
         11   -1    0    0    0    0 -0.00000000000E+00 -0.00000000000E+00 -0.45593999997E+02  0.45594000000E+02  0.51100000000E-03 0.  1.
    9900012    2    1    2    0    0  0.13016426659E+02 -0.27806983391E+02 -0.86060883811E+01  0.59301945909E+02  0.50000003430E+02 0.  0.
         12    1    1    2    0    0 -0.13016426659E+02  0.27806983391E+02  0.86060883811E+01  0.31886054091E+02  0.00000000000E+00 0. -1.
         11    1    3    3    0    0  0.80715129704E+01 -0.12911576774E+02 -0.28733019875E+02  0.32518372773E+02  0.51100000000E-03 0. -1.
        -11    1    3    3    0    0  0.24057073457E+00 -0.33166098007E+01  0.10481761448E+02  0.10996594844E+02  0.51100000000E-03 0.  1.
         12    1    3    3    0    0  0.47043429541E+01 -0.11578796817E+02  0.96451700461E+01  0.15786978291E+02  0.00000000000E+00 0. -1.
</event>
<event>
 7    1  0.7674040E-012  0.5930195E+02  0.7816164E-02  0.1266605E+00
        -11   -1    0    0    0    0  0.00000000000E+00  0.00000000000E+00  0.45593999997E+02  0.45594000000E+02  0.51100000000E-03 0. -1.
         11   -1    0    0    0    0 -0.00000000000E+00 -0.00000000000E+00 -0.45593999997E+02  0.45594000000E+02  0.51100000000E-03 0.  1.
    9900012    2    1    2    0    0 -0.35469842057E-01  0.24413609672E+02 -0.20510833674E+02  0.59301954567E+02  0.50000019222E+02 0.  0.
         12    1    1    2    0    0  0.35469842057E-01 -0.24413609672E+02  0.20510833674E+02  0.31886045433E+02  0.00000000000E+00 0. -1.
         11    1    3    3    0    0 -0.47526983190E+01  0.21154860964E+02 -0.95183925132E+00  0.21703047757E+02  0.51100000000E-03 0. -1.
        -11    1    3    3    0    0 -0.93342369164E+01  0.16554102308E+01 -0.21333908961E+02  0.23345321451E+02  0.51100000000E-03 0.  1.
         12    1    3    3    0    0  0.14051465393E+02  0.16033384771E+01  0.17749145382E+01  0.14253585359E+02  0.00000000000E+00 0. -1.
</event>
<event>
 7    1  0.7674040E-012  0.5930197E+02  0.7816164E-02  0.1266605E+00
        -11   -1    0    0    0    0  0.00000000000E+00  0.00000000000E+00  0.45593999997E+02  0.45594000000E+02  0.51100000000E-03 0.  1.
         11   -1    0    0    0    0 -0.00000000000E+00 -0.00000000000E+00 -0.45593999997E+02  0.45594000000E+02  0.51100000000E-03 0. -1.
    9900012    2    1    2    0    0 -0.30251054611E+02 -0.27462588864E+01  0.96979786403E+01  0.59301968064E+02  0.50000043836E+02 0.  0.
         12    1    1    2    0    0  0.30251054611E+02  0.27462588864E+01 -0.96979786403E+01  0.31886031936E+02  0.00000000000E+00 0. -1.
         11    1    3    3    0    0 -0.93052855785E+01 -0.65743540482E+01 -0.12594595748E+02  0.16983354002E+02  0.51100000000E-03 0. -1.
        -11    1    3    3    0    0 -0.10463625731E+02  0.55326774309E+01  0.27901716276E+02  0.30308476609E+02  0.51100000000E-03 0.  1.
        -12    1    3    3    0    0 -0.10482143301E+02 -0.17045822691E+01 -0.56091418871E+01  0.12010137452E+02  0.00000000000E+00 0.  1.
</event>
<event>
 7    1  0.7674040E-012  0.5930197E+02  0.7816164E-02  0.1266605E+00
        -11   -1    0    0    0    0  0.00000000000E+00  0.00000000000E+00  0.45593999997E+02  0.45594000000E+02  0.51100000000E-03 0.  1.
         11   -1    0    0    0    0 -0.00000000000E+00 -0.00000000000E+00 -0.45593999997E+02  0.45594000000E+02  0.51100000000E-03 0. -1.
    9900012    2    1    2    0    0  0.21432246978E+02 -0.12687319696E+02  0.19910037861E+02  0.59301970156E+02  0.50000047651E+02 0.  0.
         12    1    1    2    0    0 -0.21432246978E+02  0.12687319696E+02 -0.19910037861E+02  0.31886029844E+02  0.00000000000E+00 0. -1.
         11    1    3    3    0    0  0.17278790134E+01  0.48095214675E+01 -0.31843816364E+00  0.51203970311E+01  0.51100000000E-03 0. -1.
        -11    1    3    3    0    0  0.26704016736E+02 -0.19845164761E+02  0.27983378305E+02  0.43474182405E+02  0.51100000000E-03 0.  1.
        -12    1    3    3    0    0 -0.69996487712E+01  0.23483235970E+01 -0.77549022802E+01  0.10707390719E+02  0.00000000000E+00 0.  1.
</event>
<event>
 7    1  0.7674040E-012  0.5930182E+02  0.7816164E-02  0.1266605E+00
        -11   -1    0    0    0    0  0.00000000000E+00  0.00000000000E+00  0.45593999997E+02  0.45594000000E+02  0.51100000000E-03 0. -1.
         11   -1    0    0    0    0 -0.00000000000E+00 -0.00000000000E+00 -0.45593999997E+02  0.45594000000E+02  0.51100000000E-03 0.  1.
    9900012    2    1    2    0    0 -0.92825187386E+01 -0.17570969439E+02 -0.24936409776E+02  0.59301817198E+02  0.49999768693E+02 0.  0.
         12    1    1    2    0    0  0.92825187386E+01  0.17570969439E+02  0.24936409776E+02  0.31886182802E+02  0.00000000000E+00 0. -1.
         11    1    3    3    0    0  0.91143881409E+01 -0.52021710487E+01  0.13382313839E+01  0.10579485730E+02  0.51100000000E-03 0.  1.
        -11    1    3    3    0    0 -0.24584310820E+02 -0.38970515378E+01 -0.55629298097E+01  0.25505323709E+02  0.51100000000E-03 0. -1.
        -12    1    3    3    0    0  0.61874039405E+01 -0.84717468529E+01 -0.20711711350E+02  0.23217007759E+02  0.00000000000E+00 0.  1.
</event>
<event>
 7    1  0.7674040E-012  0.5930194E+02  0.7816164E-02  0.1266605E+00
        -11   -1    0    0    0    0  0.00000000000E+00  0.00000000000E+00  0.45593999997E+02  0.45594000000E+02  0.51100000000E-03 0. -1.
         11   -1    0    0    0    0 -0.00000000000E+00 -0.00000000000E+00 -0.45593999997E+02  0.45594000000E+02  0.51100000000E-03 0.  1.
    9900012    2    1    2    0    0  0.15676000008E+02  0.15379224996E+02 -0.23118460843E+02  0.59301940829E+02  0.49999994166E+02 0.  0.
         12    1    1    2    0    0 -0.15676000008E+02 -0.15379224996E+02  0.23118460843E+02  0.31886059171E+02  0.00000000000E+00 0. -1.
         11    1    3    3    0    0 -0.76364311654E+00  0.10435436427E+02 -0.31979063439E+02  0.33647317618E+02  0.51100000000E-03 0.  1.
        -11    1    3    3    0    0  0.11427392704E+02  0.10535757561E+02  0.23578365228E+01  0.15720905977E+02  0.51100000000E-03 0. -1.
         12    1    3    3    0    0  0.50122504206E+01 -0.55919689916E+01  0.65027660735E+01  0.99337172341E+01  0.00000000000E+00 0. -1.
</event>
<event>
 7    1  0.7674040E-012  0.5930195E+02  0.7816164E-02  0.1266605E+00
        -11   -1    0    0    0    0  0.00000000000E+00  0.00000000000E+00  0.45593999997E+02  0.45594000000E+02  0.51100000000E-03 0. -1.
         11   -1    0    0    0    0 -0.00000000000E+00 -0.00000000000E+00 -0.45593999997E+02  0.45594000000E+02  0.51100000000E-03 0.  1.
    9900012    2    1    2    0    0  0.34400364899E+01  0.17312327150E+02 -0.26555035938E+02  0.59301945743E+02  0.50000003128E+02 0.  0.
         12    1    1    2    0    0 -0.34400364899E+01 -0.17312327150E+02  0.26555035938E+02  0.31886054257E+02  0.00000000000E+00 0. -1.
         11    1    3    3    0    0 -0.12063333129E+01  0.32296555971E+02 -0.11255202306E+02  0.34222833706E+02  0.51100000000E-03 0. -1.
        -11    1    3    3    0    0 -0.35450113399E+01 -0.12278978155E+01 -0.19225153489E+01  0.42155550018E+01  0.51100000000E-03 0.  1.
         12    1    3    3    0    0  0.81913811427E+01 -0.13756331005E+02 -0.13377318283E+02  0.20863557036E+02  0.00000000000E+00 0. -1.
</event>
<event>
 7    1  0.7674040E-012  0.5930196E+02  0.7816164E-02  0.1266605E+00
        -11   -1    0    0    0    0  0.00000000000E+00  0.00000000000E+00  0.45593999997E+02  0.45594000000E+02  0.51100000000E-03 0.  1.
         11   -1    0    0    0    0 -0.00000000000E+00 -0.00000000000E+00 -0.45593999997E+02  0.45594000000E+02  0.51100000000E-03 0. -1.
    9900012    2    1    2    0    0 -0.25491013884E+02 -0.14602930906E+02  0.12396867413E+02  0.59301957575E+02  0.50000024707E+02 0.  0.
         12    1    1    2    0    0  0.25491013884E+02  0.14602930906E+02 -0.12396867413E+02  0.31886042425E+02  0.00000000000E+00 0. -1.
         11    1    3    3    0    0 -0.63114347961E+01 -0.18218219901E+02  0.21482903921E+02  0.28866120396E+02  0.51100000000E-03 0. -1.
        -11    1    3    3    0    0 -0.18642750779E+02 -0.58259168402E+01 -0.70297802310E+01  0.20758402492E+02  0.51100000000E-03 0.  1.
        -12    1    3    3    0    0 -0.53682830901E+00  0.94412058355E+01 -0.20562562775E+01  0.96774346880E+01  0.00000000000E+00 0.  1.
</event>
<event>
 7    1  0.7674040E-012  0.5930194E+02  0.7816164E-02  0.1266605E+00
        -11   -1    0    0    0    0  0.00000000000E+00  0.00000000000E+00  0.45593999997E+02  0.45594000000E+02  0.51100000000E-03 0.  1.
         11   -1    0    0    0    0 -0.00000000000E+00 -0.00000000000E+00 -0.45593999997E+02  0.45594000000E+02  0.51100000000E-03 0. -1.
    9900012    2    1    2    0    0 -0.10725338411E+02 -0.27495817740E+02  0.12069301047E+02  0.59301938704E+02  0.49999990291E+02 0.  0.
         12    1    1    2    0    0  0.10725338411E+02  0.27495817740E+02 -0.12069301047E+02  0.31886061296E+02  0.00000000000E+00 0. -1.
         11    1    3    3    0    0 -0.15784874815E+02  0.36735696348E+01  0.19687447691E+02  0.25500058503E+02  0.51100000000E-03 0. -1.
        -11    1    3    3    0    0  0.46782167257E+01 -0.80553942890E+01  0.42626303819E+00  0.93250624300E+01  0.51100000000E-03 0.  1.
         12    1    3    3    0    0  0.38131967810E+00 -0.23113993086E+02 -0.80444096825E+01  0.24476817771E+02  0.00000000000E+00 0. -1.
</event>
<event>
 7    1  0.7674040E-012  0.5930198E+02  0.7816164E-02  0.1266605E+00
        -11   -1    0    0    0    0  0.00000000000E+00  0.00000000000E+00  0.45593999997E+02  0.45594000000E+02  0.51100000000E-03 0.  1.
         11   -1    0    0    0    0 -0.00000000000E+00 -0.00000000000E+00 -0.45593999997E+02  0.45594000000E+02  0.51100000000E-03 0. -1.
    9900012    2    1    2    0    0 -0.31242907859E+02 -0.60253523249E+01 -0.20722827773E+01  0.59301976134E+02  0.50000058553E+02 0.  0.
         12    1    1    2    0    0  0.31242907859E+02  0.60253523249E+01  0.20722827773E+01  0.31886023866E+02  0.00000000000E+00 0. -1.
         11    1    3    3    0    0 -0.11730730441E+02 -0.10662531018E+02 -0.10894301070E+02  0.19235004561E+02  0.51100000000E-03 0. -1.
        -11    1    3    3    0    0  0.30979107224E+01  0.78355616274E+01  0.14287419225E+02  0.16586844945E+02  0.51100000000E-03 0.  1.
        -12    1    3    3    0    0 -0.22610088140E+02 -0.31983829341E+01 -0.54654009326E+01  0.23480126628E+02  0.00000000000E+00 0.  1.
</event>
<event>
 7    1  0.7674040E-012  0.5930195E+02  0.7816164E-02  0.1266605E+00
        -11   -1    0    0    0    0  0.00000000000E+00  0.00000000000E+00  0.45593999997E+02  0.45594000000E+02  0.51100000000E-03 0.  1.
         11   -1    0    0    0    0 -0.00000000000E+00 -0.00000000000E+00 -0.45593999997E+02  0.45594000000E+02  0.51100000000E-03 0. -1.
    9900012    2    1    2    0    0 -0.24111258315E+02  0.14689801458E+02  0.14818145363E+02  0.59301945424E+02  0.50000002547E+02 0.  0.
         12    1    1    2    0    0  0.24111258315E+02 -0.14689801458E+02 -0.14818145363E+02  0.31886054576E+02  0.00000000000E+00 0. -1.
         11    1    3    3    0    0 -0.12431684159E+01  0.16613127400E+02  0.16710851910E+02  0.23596483669E+02  0.51100000000E-03 0. -1.
        -11    1    3    3    0    0 -0.22493499315E+02 -0.48280892847E+01 -0.11458415384E+02  0.25701424882E+02  0.51100000000E-03 0.  1.
        -12    1    3    3    0    0 -0.37459058365E+00  0.29047633428E+01  0.95657088380E+01  0.10004036873E+02  0.00000000000E+00 0.  1.
</event>
<event>
 7    1  0.7674040E-012  0.5930194E+02  0.7816164E-02  0.1266605E+00
        -11   -1    0    0    0    0  0.00000000000E+00  0.00000000000E+00  0.45593999997E+02  0.45594000000E+02  0.51100000000E-03 0. -1.
         11   -1    0    0    0    0 -0.00000000000E+00 -0.00000000000E+00 -0.45593999997E+02  0.45594000000E+02  0.51100000000E-03 0.  1.
    9900012    2    1    2    0    0 -0.19950820809E+02 -0.42698877388E+01 -0.24504158356E+02  0.59301937700E+02  0.49999988460E+02 0.  0.
         12    1    1    2    0    0  0.19950820809E+02  0.42698877388E+01  0.24504158356E+02  0.31886062300E+02  0.00000000000E+00 0. -1.
         11    1    3    3    0    0 -0.16080688799E+02 -0.12844963374E+02  0.89415598494E+01  0.22439543871E+02  0.51100000000E-03 0. -1.
        -11    1    3    3    0    0 -0.47894464982E+01 -0.57624759947E+00 -0.19988971789E+02  0.20562826958E+02  0.51100000000E-03 0.  1.
         12    1    3    3    0    0  0.91931448840E+00  0.91513232350E+01 -0.13456746416E+02  0.16299566871E+02  0.00000000000E+00 0. -1.
</event>
<event>
 7    1  0.7674040E-012  0.5930195E+02  0.7816164E-02  0.1266605E+00
        -11   -1    0    0    0    0  0.00000000000E+00  0.00000000000E+00  0.45593999997E+02  0.45594000000E+02  0.51100000000E-03 0.  1.
         11   -1    0    0    0    0 -0.00000000000E+00 -0.00000000000E+00 -0.45593999997E+02  0.45594000000E+02  0.51100000000E-03 0. -1.
    9900012    2    1    2    0    0 -0.18533130581E+02  0.25902465108E+02  0.15184043457E+01  0.59301950079E+02  0.50000011036E+02 0.  0.
         12    1    1    2    0    0  0.18533130581E+02 -0.25902465108E+02 -0.15184043457E+01  0.31886049921E+02  0.00000000000E+00 0. -1.
         11    1    3    3    0    0  0.43087149882E+01 -0.16134776761E+01  0.98205736493E+01  0.10844906737E+02  0.51100000000E-03 0. -1.
        -11    1    3    3    0    0 -0.17101899205E+02  0.14017720627E+02 -0.19907169092E+02  0.29753433911E+02  0.51100000000E-03 0.  1.
        -12    1    3    3    0    0 -0.57399463641E+01  0.13498222157E+02  0.11604999788E+02  0.18703609431E+02  0.00000000000E+00 0.  1.
</event>
<event>
 7    1  0.7674040E-012  0.5930193E+02  0.7816164E-02  0.1266605E+00
        -11   -1    0    0    0    0  0.00000000000E+00  0.00000000000E+00  0.45593999997E+02  0.45594000000E+02  0.51100000000E-03 0.  1.
         11   -1    0    0    0    0 -0.00000000000E+00 -0.00000000000E+00 -0.45593999997E+02  0.45594000000E+02  0.51100000000E-03 0. -1.
    9900012    2    1    2    0    0  0.22694431838E+02  0.16399910854E+02  0.15255392079E+02  0.59301932510E+02  0.49999978994E+02 0.  0.
         12    1    1    2    0    0 -0.22694431838E+02 -0.16399910854E+02 -0.15255392079E+02  0.31886067490E+02  0.00000000000E+00 0. -1.
         11    1    3    3    0    0  0.29160147677E+02  0.71411559519E+01  0.22317442920E+02  0.37408268867E+02  0.51100000000E-03 0.  1.
        -11    1    3    3    0    0 -0.68881581454E+01  0.12791243654E+02 -0.96965950768E+01  0.17466728177E+02  0.51100000000E-03 0. -1.
         12    1    3    3    0    0  0.42244230675E+00 -0.35324887524E+01  0.26345442365E+01  0.44269354663E+01  0.00000000000E+00 0. -1.
</event>
<event>
 7    1  0.7674040E-012  0.5930191E+02  0.7816164E-02  0.1266605E+00
        -11   -1    0    0    0    0  0.00000000000E+00  0.00000000000E+00  0.45593999997E+02  0.45594000000E+02  0.51100000000E-03 0.  1.
         11   -1    0    0    0    0 -0.00000000000E+00 -0.00000000000E+00 -0.45593999997E+02  0.45594000000E+02  0.51100000000E-03 0. -1.
    9900012    2    1    2    0    0  0.30309767088E+02 -0.86606873155E+01 -0.47993153521E+01  0.59301907207E+02  0.49999932848E+02 0.  0.
         12    1    1    2    0    0 -0.30309767088E+02  0.86606873155E+01  0.47993153521E+01  0.31886092793E+02  0.00000000000E+00 0. -1.
         11    1    3    3    0    0  0.23396587662E+01  0.11387856384E+02 -0.38364043866E+01  0.12242355780E+02  0.51100000000E-03 0. -1.
        -11    1    3    3    0    0 -0.22149502790E+01 -0.15276785278E+02 -0.50183036366E+01  0.16231744971E+02  0.51100000000E-03 0.  1.
        -12    1    3    3    0    0  0.30185058601E+02 -0.47717584216E+01  0.40553926711E+01  0.30827806456E+02  0.00000000000E+00 0.  1.
</event>
<event>
 7    1  0.7674040E-012  0.5930182E+02  0.7816164E-02  0.1266605E+00
        -11   -1    0    0    0    0  0.00000000000E+00  0.00000000000E+00  0.45593999997E+02  0.45594000000E+02  0.51100000000E-03 0. -1.
         11   -1    0    0    0    0 -0.00000000000E+00 -0.00000000000E+00 -0.45593999997E+02  0.45594000000E+02  0.51100000000E-03 0.  1.
    9900012    2    1    2    0    0 -0.12311028134E+02 -0.28814956259E+02 -0.59046882358E+01  0.59301820218E+02  0.49999774200E+02 0.  0.
         12    1    1    2    0    0  0.12311028134E+02  0.28814956259E+02  0.59046882358E+01  0.31886179782E+02  0.00000000000E+00 0. -1.
         11    1    3    3    0    0  0.14127208687E+01  0.88522210258E+01  0.24630910516E+01  0.92964732631E+01  0.51100000000E-03 0. -1.
        -11    1    3    3    0    0 -0.40996749703E+00 -0.28858989714E+02  0.48663910233E+01  0.29269286334E+02  0.51100000000E-03 0.  1.
         12    1    3    3    0    0 -0.13313781505E+02 -0.88081875715E+01 -0.13234170311E+02  0.20736060621E+02  0.00000000000E+00 0. -1.
</event>
<event>
 7    1  0.7674040E-012  0.5930197E+02  0.7816164E-02  0.1266605E+00
        -11   -1    0    0    0    0  0.00000000000E+00  0.00000000000E+00  0.45593999997E+02  0.45594000000E+02  0.51100000000E-03 0. -1.
         11   -1    0    0    0    0 -0.00000000000E+00 -0.00000000000E+00 -0.45593999997E+02  0.45594000000E+02  0.51100000000E-03 0.  1.
    9900012    2    1    2    0    0 -0.11575109748E+02 -0.18866090475E+02 -0.22952269753E+02  0.59301965090E+02  0.50000038412E+02 0.  0.
         12    1    1    2    0    0  0.11575109748E+02  0.18866090475E+02  0.22952269753E+02  0.31886034910E+02  0.00000000000E+00 0. -1.
         11    1    3    3    0    0  0.48346883684E+01  0.10145038008E+02 -0.12466925341E+02  0.16784523691E+02  0.51100000000E-03 0. -1.
        -11    1    3    3    0    0 -0.18900859150E+02 -0.24265551309E+02 -0.18416793432E-01  0.30758085057E+02  0.51100000000E-03 0.  1.
        -12    1    3    3    0    0  0.24910610345E+01 -0.47455771738E+01 -0.10466927619E+02  0.11759356341E+02  0.00000000000E+00 0.  1.
</event>
<event>
 7    1  0.7674040E-012  0.5930193E+02  0.7816164E-02  0.1266605E+00
        -11   -1    0    0    0    0  0.00000000000E+00  0.00000000000E+00  0.45593999997E+02  0.45594000000E+02  0.51100000000E-03 0.  1.
         11   -1    0    0    0    0 -0.00000000000E+00 -0.00000000000E+00 -0.45593999997E+02  0.45594000000E+02  0.51100000000E-03 0. -1.
    9900012    2    1    2    0    0  0.29293745593E+02  0.12144715163E+02 -0.33322324362E+01  0.59301930781E+02  0.49999975840E+02 0.  0.
         12    1    1    2    0    0 -0.29293745593E+02 -0.12144715163E+02  0.33322324362E+01  0.31886069219E+02  0.00000000000E+00 0. -1.
         11    1    3    3    0    0 -0.66095882355E-02  0.14955063787E+02  0.16777237666E+02  0.22475090223E+02  0.51100000000E-03 0. -1.
        -11    1    3    3    0    0  0.20276009477E+02 -0.22882032223E+01 -0.84781688679E+01  0.22095967548E+02  0.51100000000E-03 0.  1.
         12    1    3    3    0    0  0.90243457046E+01 -0.52214540199E+00 -0.11631301234E+02  0.14730873009E+02  0.00000000000E+00 0. -1.
</event>
<event>
 7    1  0.7674040E-012  0.5930198E+02  0.7816164E-02  0.1266605E+00
        -11   -1    0    0    0    0  0.00000000000E+00  0.00000000000E+00  0.45593999997E+02  0.45594000000E+02  0.51100000000E-03 0. -1.
         11   -1    0    0    0    0 -0.00000000000E+00 -0.00000000000E+00 -0.45593999997E+02  0.45594000000E+02  0.51100000000E-03 0.  1.
    9900012    2    1    2    0    0 -0.31024794322E+02 -0.66471775314E+01 -0.31615683487E+01  0.59301978827E+02  0.50000063465E+02 0.  0.
         12    1    1    2    0    0  0.31024794322E+02  0.66471775314E+01  0.31615683487E+01  0.31886021173E+02  0.00000000000E+00 0. -1.
         11    1    3    3    0    0 -0.10417724141E+02 -0.20884574731E+02  0.77262536291E+01  0.24584333088E+02  0.51100000000E-03 0. -1.
        -11    1    3    3    0    0 -0.90897229851E+00  0.12337417680E+02 -0.79655384318E+01  0.14713528075E+02  0.51100000000E-03 0.  1.
         12    1    3    3    0    0 -0.19698097883E+02  0.18999795194E+01 -0.29222835460E+01  0.20004117664E+02  0.00000000000E+00 0. -1.
</event>
<event>
 7    1  0.7674040E-012  0.5930195E+02  0.7816164E-02  0.1266605E+00
        -11   -1    0    0    0    0  0.00000000000E+00  0.00000000000E+00  0.45593999997E+02  0.45594000000E+02  0.51100000000E-03 0. -1.
         11   -1    0    0    0    0 -0.00000000000E+00 -0.00000000000E+00 -0.45593999997E+02  0.45594000000E+02  0.51100000000E-03 0.  1.
    9900012    2    1    2    0    0  0.20557547464E+01 -0.12259766949E+02 -0.29363113551E+02  0.59301945828E+02  0.50000003284E+02 0.  0.
         12    1    1    2    0    0 -0.20557547464E+01  0.12259766949E+02  0.29363113551E+02  0.31886054172E+02  0.00000000000E+00 0. -1.
         11    1    3    3    0    0 -0.20984075234E+02  0.36665479785E+01 -0.15749365419E+02  0.26491838344E+02  0.51100000000E-03 0. -1.
        -11    1    3    3    0    0  0.27849108798E+01 -0.58464760812E+01 -0.62951953336E+01  0.90314171493E+01  0.51100000000E-03 0.  1.
         12    1    3    3    0    0  0.20254919101E+02 -0.10079838847E+02 -0.73185527990E+01  0.23778690335E+02  0.00000000000E+00 0. -1.
</event>
<event>
 7    1  0.7674040E-012  0.5930194E+02  0.7816164E-02  0.1266605E+00
        -11   -1    0    0    0    0  0.00000000000E+00  0.00000000000E+00  0.45593999997E+02  0.45594000000E+02  0.51100000000E-03 0.  1.
         11   -1    0    0    0    0 -0.00000000000E+00 -0.00000000000E+00 -0.45593999997E+02  0.45594000000E+02  0.51100000000E-03 0. -1.
    9900012    2    1    2    0    0  0.28857466690E+02 -0.74400817043E+01  0.11340737828E+02  0.59301944521E+02  0.50000000899E+02 0.  0.
         12    1    1    2    0    0 -0.28857466690E+02  0.74400817043E+01 -0.11340737828E+02  0.31886055479E+02  0.00000000000E+00 0. -1.
         11    1    3    3    0    0  0.17783929012E+02 -0.23848134639E+01  0.26626087988E+02  0.32107694221E+02  0.51100000000E-03 0. -1.
        -11    1    3    3    0    0  0.12574159049E+02 -0.65939460249E+01 -0.27325539115E+01  0.14458784565E+02  0.51100000000E-03 0.  1.
         12    1    3    3    0    0 -0.15006213706E+01  0.15386777845E+01 -0.12552796249E+02  0.12735465735E+02  0.00000000000E+00 0. -1.
</event>
<event>
 7    1  0.7674040E-012  0.5930195E+02  0.7816164E-02  0.1266605E+00
        -11   -1    0    0    0    0  0.00000000000E+00  0.00000000000E+00  0.45593999997E+02  0.45594000000E+02  0.51100000000E-03 0. -1.
         11   -1    0    0    0    0 -0.00000000000E+00 -0.00000000000E+00 -0.45593999997E+02  0.45594000000E+02  0.51100000000E-03 0.  1.
    9900012    2    1    2    0    0  0.47590837776E+01  0.13835827230E+02 -0.28330917325E+02  0.59301954933E+02  0.50000019888E+02 0.  0.
         12    1    1    2    0    0 -0.47590837776E+01 -0.13835827230E+02  0.28330917325E+02  0.31886045067E+02  0.00000000000E+00 0. -1.
         11    1    3    3    0    0  0.30098698085E+01 -0.11720941012E+02  0.68747894382E+01  0.13917704715E+02  0.51100000000E-03 0. -1.
        -11    1    3    3    0    0 -0.22190584640E+01  0.18225743248E+02 -0.31043917119E+02  0.36066975584E+02  0.51100000000E-03 0.  1.
         12    1    3    3    0    0  0.39682724331E+01  0.73310249935E+01 -0.41617896445E+01  0.93172746340E+01  0.00000000000E+00 0. -1.
</event>
<event>
 7    1  0.7674040E-012  0.5930193E+02  0.7816164E-02  0.1266605E+00
        -11   -1    0    0    0    0  0.00000000000E+00  0.00000000000E+00  0.45593999997E+02  0.45594000000E+02  0.51100000000E-03 0.  1.
         11   -1    0    0    0    0 -0.00000000000E+00 -0.00000000000E+00 -0.45593999997E+02  0.45594000000E+02  0.51100000000E-03 0. -1.
    9900012    2    1    2    0    0 -0.15613658768E+02 -0.19457450239E+02  0.19858059404E+02  0.59301933557E+02  0.49999980904E+02 0.  0.
         12    1    1    2    0    0  0.15613658768E+02  0.19457450239E+02 -0.19858059404E+02  0.31886066443E+02  0.00000000000E+00 0. -1.
         11    1    3    3    0    0 -0.14878182731E+02  0.30702819045E+01  0.90685248413E+01  0.17692515237E+02  0.51100000000E-03 0.  1.
        -11    1    3    3    0    0 -0.32790997498E+01 -0.16290040438E+02 -0.10245891059E+02  0.19521685288E+02  0.51100000000E-03 0. -1.
         12    1    3    3    0    0  0.25436237128E+01 -0.62376917051E+01  0.21035425622E+02  0.22087733032E+02  0.00000000000E+00 0. -1.
</event>
<event>
 7    1  0.7674040E-012  0.5930200E+02  0.7816164E-02  0.1266605E+00
        -11   -1    0    0    0    0  0.00000000000E+00  0.00000000000E+00  0.45593999997E+02  0.45594000000E+02  0.51100000000E-03 0.  1.
         11   -1    0    0    0    0 -0.00000000000E+00 -0.00000000000E+00 -0.45593999997E+02  0.45594000000E+02  0.51100000000E-03 0. -1.
    9900012    2    1    2    0    0  0.23261353992E+02  0.11556826880E+02  0.18495038691E+02  0.59301995338E+02  0.50000093578E+02 0.  0.
         12    1    1    2    0    0 -0.23261353992E+02 -0.11556826880E+02 -0.18495038691E+02  0.31886004662E+02  0.00000000000E+00 0. -1.
         11    1    3    3    0    0  0.64405382435E+01 -0.14695456873E+02  0.40918308238E+01  0.16558383536E+02  0.51100000000E-03 0. -1.
        -11    1    3    3    0    0  0.22764513014E+02  0.14333969596E+02  0.10328777833E+02  0.28816130707E+02  0.51100000000E-03 0.  1.
        -12    1    3    3    0    0 -0.59436972656E+01  0.11918314158E+02  0.40744300337E+01  0.13927481095E+02  0.00000000000E+00 0.  1.
</event>
<event>
 7    1  0.1076734E-011  0.5930195E+02  0.7816164E-02  0.1266605E+00
        -11   -1    0    0    0    0  0.00000000000E+00  0.00000000000E+00  0.45593999997E+02  0.45594000000E+02  0.51100000000E-03 0. -1.
         11   -1    0    0    0    0 -0.00000000000E+00 -0.00000000000E+00 -0.45593999997E+02  0.45594000000E+02  0.51100000000E-03 0.  1.
    9900012    2    1    2    0    0 -0.12976650944E+02 -0.15653083093E+02 -0.24562328664E+02  0.59301945533E+02  0.50000002746E+02 0.  0.
         12    1    1    2    0    0  0.12976650944E+02  0.15653083093E+02  0.24562328664E+02  0.31886054467E+02  0.00000000000E+00 0. -1.
         11    1    3    3    0    0  0.20578021945E+01 -0.22394853579E+01  0.10337158196E+02  0.10775281174E+02  0.51100000000E-03 0. -1.
        -11    1    3    3    0    0 -0.20667135594E+02 -0.13901095776E+02 -0.18066617870E+02  0.30769687014E+02  0.51100000000E-03 0.  1.
        -12    1    3    3    0    0  0.56326824556E+01  0.48749804016E+00 -0.16832868990E+02  0.17756977345E+02  0.00000000000E+00 0.  1.
</event>
<event>
 7    1  0.7674040E-012  0.5930196E+02  0.7816164E-02  0.1266605E+00
        -11   -1    0    0    0    0  0.00000000000E+00  0.00000000000E+00  0.45593999997E+02  0.45594000000E+02  0.51100000000E-03 0.  1.
         11   -1    0    0    0    0 -0.00000000000E+00 -0.00000000000E+00 -0.45593999997E+02  0.45594000000E+02  0.51100000000E-03 0. -1.
    9900012    2    1    2    0    0 -0.15297998982E+02 -0.24403128069E+02  0.13681310097E+02  0.59301957938E+02  0.50000025370E+02 0.  0.
         12    1    1    2    0    0  0.15297998982E+02  0.24403128069E+02 -0.13681310097E+02  0.31886042062E+02  0.00000000000E+00 0. -1.
         11    1    3    3    0    0  0.18168707051E+02 -0.86783795328E+01  0.66443080644E+01  0.21202901149E+02  0.51100000000E-03 0. -1.
        -11    1    3    3    0    0 -0.15088266980E+02 -0.57945005399E+01  0.58035514088E+01  0.17173038351E+02  0.51100000000E-03 0.  1.
         12    1    3    3    0    0 -0.18378439052E+02 -0.99302479962E+01  0.12334506235E+01  0.20926018439E+02  0.00000000000E+00 0. -1.
</event>
<event>
 7    1  0.7674040E-012  0.5930191E+02  0.7816164E-02  0.1266605E+00
        -11   -1    0    0    0    0  0.00000000000E+00  0.00000000000E+00  0.45593999997E+02  0.45594000000E+02  0.51100000000E-03 0.  1.
         11   -1    0    0    0    0 -0.00000000000E+00 -0.00000000000E+00 -0.45593999997E+02  0.45594000000E+02  0.51100000000E-03 0. -1.
    9900012    2    1    2    0    0  0.54548363629E+01  0.77385876810E+01  0.30448016864E+02  0.59301910399E+02  0.49999938670E+02 0.  0.
         12    1    1    2    0    0 -0.54548363629E+01 -0.77385876810E+01 -0.30448016864E+02  0.31886089601E+02  0.00000000000E+00 0. -1.
         11    1    3    3    0    0 -0.31106185949E+01 -0.98076321402E+01  0.70771288059E+01  0.12488048232E+02  0.51100000000E-03 0. -1.
        -11    1    3    3    0    0 -0.61908825502E+01  0.23221665845E+02  0.97130032800E+01  0.25921327596E+02  0.51100000000E-03 0.  1.
        -12    1    3    3    0    0  0.14756337508E+02 -0.56754460235E+01  0.13657884779E+02  0.20892534572E+02  0.00000000000E+00 0.  1.
</event>
<event>
 7    1  0.7674040E-012  0.5930194E+02  0.7816164E-02  0.1266605E+00
        -11   -1    0    0    0    0  0.00000000000E+00  0.00000000000E+00  0.45593999997E+02  0.45594000000E+02  0.51100000000E-03 0.  1.
         11   -1    0    0    0    0 -0.00000000000E+00 -0.00000000000E+00 -0.45593999997E+02  0.45594000000E+02  0.51100000000E-03 0. -1.
    9900012    2    1    2    0    0 -0.25433528347E+02 -0.34172138570E+01  0.18925613540E+02  0.59301944073E+02  0.50000000083E+02 0.  0.
         12    1    1    2    0    0  0.25433528347E+02  0.34172138570E+01 -0.18925613540E+02  0.31886055927E+02  0.00000000000E+00 0. -1.
         11    1    3    3    0    0 -0.15340733687E+02  0.19635882193E+02  0.44019490375E+01  0.25303816612E+02  0.51100000000E-03 0.  1.
        -11    1    3    3    0    0  0.11295386081E+00 -0.15179231308E+02  0.84538899680E+00  0.15203174159E+02  0.51100000000E-03 0. -1.
        -12    1    3    3    0    0 -0.10205748521E+02 -0.78738647419E+01  0.13678275505E+02  0.18794953303E+02  0.00000000000E+00 0.  1.
</event>
<event>
 7    1  0.7674040E-012  0.5930193E+02  0.7816164E-02  0.1266605E+00
        -11   -1    0    0    0    0  0.00000000000E+00  0.00000000000E+00  0.45593999997E+02  0.45594000000E+02  0.51100000000E-03 0. -1.
         11   -1    0    0    0    0 -0.00000000000E+00 -0.00000000000E+00 -0.45593999997E+02  0.45594000000E+02  0.51100000000E-03 0.  1.
    9900012    2    1    2    0    0 -0.25778708976E+02  0.11676206442E+02 -0.14691694478E+02  0.59301929060E+02  0.49999972703E+02 0.  0.
         12    1    1    2    0    0  0.25778708976E+02 -0.11676206442E+02  0.14691694478E+02  0.31886070940E+02  0.00000000000E+00 0. -1.
         11    1    3    3    0    0  0.92716038962E+01  0.16674043664E+02  0.65877464212E+00  0.19089797150E+02  0.51100000000E-03 0. -1.
        -11    1    3    3    0    0 -0.34026686550E+01 -0.40350173302E+01 -0.69923873975E+00  0.53243266154E+01  0.51100000000E-03 0.  1.
         12    1    3    3    0    0 -0.31647644217E+02 -0.96281989195E+00 -0.14651230381E+02  0.34887805295E+02  0.00000000000E+00 0. -1.
</event>
<event>
 7    1  0.7674040E-012  0.5930196E+02  0.7816164E-02  0.1266605E+00
        -11   -1    0    0    0    0  0.00000000000E+00  0.00000000000E+00  0.45593999997E+02  0.45594000000E+02  0.51100000000E-03 0.  1.
         11   -1    0    0    0    0 -0.00000000000E+00 -0.00000000000E+00 -0.45593999997E+02  0.45594000000E+02  0.51100000000E-03 0. -1.
    9900012    2    1    2    0    0  0.58007216977E+00 -0.65158762764E+01  0.31207794705E+02  0.59301959516E+02  0.50000028247E+02 0.  0.
         12    1    1    2    0    0 -0.58007216977E+00  0.65158762764E+01 -0.31207794705E+02  0.31886040484E+02  0.00000000000E+00 0. -1.
         11    1    3    3    0    0 -0.13026566166E+01 -0.25306262171E+01 -0.53814474484E+01  0.60877713666E+01  0.51100000000E-03 0. -1.
        -11    1    3    3    0    0  0.17861081424E+02  0.69215262591E+01  0.20449865040E+02  0.28020041681E+02  0.51100000000E-03 0.  1.
        -12    1    3    3    0    0 -0.15978352637E+02 -0.10906776318E+02  0.16139377114E+02  0.25194146469E+02  0.00000000000E+00 0.  1.
</event>
<event>
 7    1  0.7674040E-012  0.5930187E+02  0.7816164E-02  0.1266605E+00
        -11   -1    0    0    0    0  0.00000000000E+00  0.00000000000E+00  0.45593999997E+02  0.45594000000E+02  0.51100000000E-03 0.  1.
         11   -1    0    0    0    0 -0.00000000000E+00 -0.00000000000E+00 -0.45593999997E+02  0.45594000000E+02  0.51100000000E-03 0. -1.
    9900012    2    1    2    0    0 -0.12106660069E+02  0.50341014454E+01  0.29065644618E+02  0.59301873041E+02  0.49999870537E+02 0.  0.
         12    1    1    2    0    0  0.12106660069E+02 -0.50341014454E+01 -0.29065644618E+02  0.31886126959E+02  0.00000000000E+00 0. -1.
         11    1    3    3    0    0  0.19179880424E+01 -0.21718559965E+01  0.73216879629E+01  0.78741825917E+01  0.51100000000E-03 0. -1.
        -11    1    3    3    0    0  0.29094112243E+01 -0.54526292596E+01 -0.10902894746E+02  0.12532715333E+02  0.51100000000E-03 0.  1.
        -12    1    3    3    0    0 -0.16934059335E+02  0.12658586701E+02  0.32646851401E+02  0.38894975116E+02  0.00000000000E+00 0.  1.
</event>
<event>
 7    1  0.7674040E-012  0.5930195E+02  0.7816164E-02  0.1266605E+00
        -11   -1    0    0    0    0  0.00000000000E+00  0.00000000000E+00  0.45593999997E+02  0.45594000000E+02  0.51100000000E-03 0. -1.
         11   -1    0    0    0    0 -0.00000000000E+00 -0.00000000000E+00 -0.45593999997E+02  0.45594000000E+02  0.51100000000E-03 0.  1.
    9900012    2    1    2    0    0 -0.28315038982E+02 -0.12204682363E+02 -0.81255638268E+01  0.59301945185E+02  0.50000002111E+02 0.  0.
         12    1    1    2    0    0  0.28315038982E+02  0.12204682363E+02  0.81255638268E+01  0.31886054815E+02  0.00000000000E+00 0. -1.
         11    1    3    3    0    0 -0.14540183404E+02 -0.13377733677E+02  0.18928980538E+02  0.27362145314E+02  0.51100000000E-03 0. -1.
        -11    1    3    3    0    0 -0.60782044332E+01  0.13878646499E+01 -0.34808267773E+01  0.71405106773E+01  0.51100000000E-03 0.  1.
         12    1    3    3    0    0 -0.76966511449E+01 -0.21481333652E+00 -0.23573717587E+02  0.24799289193E+02  0.00000000000E+00 0. -1.
</event>
<event>
 7    1  0.7674040E-012  0.5930192E+02  0.7816164E-02  0.1266605E+00
        -11   -1    0    0    0    0  0.00000000000E+00  0.00000000000E+00  0.45593999997E+02  0.45594000000E+02  0.51100000000E-03 0.  1.
         11   -1    0    0    0    0 -0.00000000000E+00 -0.00000000000E+00 -0.45593999997E+02  0.45594000000E+02  0.51100000000E-03 0. -1.
    9900012    2    1    2    0    0 -0.16145762525E+02 -0.17834066756E+02  0.20928035315E+02  0.59301917664E+02  0.49999951918E+02 0.  0.
         12    1    1    2    0    0  0.16145762525E+02  0.17834066756E+02 -0.20928035315E+02  0.31886082336E+02  0.00000000000E+00 0. -1.
         11    1    3    3    0    0  0.91276412556E+01 -0.12955279596E+01 -0.37141474435E+01  0.99391709452E+01  0.51100000000E-03 0. -1.
        -11    1    3    3    0    0 -0.11449079002E+02 -0.14803109137E+02  0.29218371049E+02  0.34697646277E+02  0.51100000000E-03 0.  1.
         12    1    3    3    0    0 -0.13824324779E+02 -0.17354296594E+01 -0.45761882902E+01  0.14665100442E+02  0.00000000000E+00 0. -1.
</event>
<event>
 7    1  0.7674040E-012  0.5930201E+02  0.7816164E-02  0.1266605E+00
        -11   -1    0    0    0    0  0.00000000000E+00  0.00000000000E+00  0.45593999997E+02  0.45594000000E+02  0.51100000000E-03 0.  1.
         11   -1    0    0    0    0 -0.00000000000E+00 -0.00000000000E+00 -0.45593999997E+02  0.45594000000E+02  0.51100000000E-03 0. -1.
    9900012    2    1    2    0    0 -0.87731569700E+01  0.26780679305E+02 -0.14917877084E+02  0.59302013674E+02  0.50000127018E+02 0.  0.
         12    1    1    2    0    0  0.87731569700E+01 -0.26780679305E+02  0.14917877084E+02  0.31885986326E+02  0.00000000000E+00 0. -1.
         11    1    3    3    0    0 -0.16858516863E+02 -0.57186727172E+01  0.22460147561E+01  0.17943171152E+02  0.51100000000E-03 0. -1.
        -11    1    3    3    0    0 -0.41262980488E+01  0.17557538073E+02 -0.10884078189E+02  0.21065531967E+02  0.51100000000E-03 0.  1.
         12    1    3    3    0    0  0.12211657942E+02  0.14941813949E+02 -0.62798136517E+01  0.20293310555E+02  0.00000000000E+00 0. -1.
</event>
<event>
 7    1  0.7674040E-012  0.5930196E+02  0.7816164E-02  0.1266605E+00
        -11   -1    0    0    0    0  0.00000000000E+00  0.00000000000E+00  0.45593999997E+02  0.45594000000E+02  0.51100000000E-03 0.  1.
         11   -1    0    0    0    0 -0.00000000000E+00 -0.00000000000E+00 -0.45593999997E+02  0.45594000000E+02  0.51100000000E-03 0. -1.
    9900012    2    1    2    0    0 -0.27761569154E+02  0.12436484108E+02  0.95576506846E+01  0.59301960022E+02  0.50000029170E+02 0.  0.
         12    1    1    2    0    0  0.27761569154E+02 -0.12436484108E+02 -0.95576506846E+01  0.31886039978E+02  0.00000000000E+00 0. -1.
         11    1    3    3    0    0 -0.58328938785E+01 -0.32736065292E+01 -0.27842782500E+01  0.72450918794E+01  0.51100000000E-03 0. -1.
        -11    1    3    3    0    0 -0.30745942843E+02  0.22602691520E+02  0.45732201110E+01  0.38433175873E+02  0.51100000000E-03 0.  1.
        -12    1    3    3    0    0  0.88172675675E+01 -0.68926008827E+01  0.77687088236E+01  0.13623692270E+02  0.00000000000E+00 0.  1.
</event>
<event>
 7    1  0.7674040E-012  0.5930193E+02  0.7816164E-02  0.1266605E+00
        -11   -1    0    0    0    0  0.00000000000E+00  0.00000000000E+00  0.45593999997E+02  0.45594000000E+02  0.51100000000E-03 0.  1.
         11   -1    0    0    0    0 -0.00000000000E+00 -0.00000000000E+00 -0.45593999997E+02  0.45594000000E+02  0.51100000000E-03 0. -1.
    9900012    2    1    2    0    0 -0.30839854467E+02  0.75162387553E+01  0.30217814226E+01  0.59301927311E+02  0.49999969513E+02 0.  0.
         12    1    1    2    0    0  0.30839854467E+02 -0.75162387553E+01 -0.30217814226E+01  0.31886072689E+02  0.00000000000E+00 0. -1.
         11    1    3    3    0    0 -0.20746270164E+02  0.18518702731E+02  0.10076915257E+02  0.29578612170E+02  0.51100000000E-03 0. -1.
        -11    1    3    3    0    0  0.25204199607E+01 -0.74315701590E+01 -0.13112919163E+02  0.15281668791E+02  0.51100000000E-03 0.  1.
        -12    1    3    3    0    0 -0.12614004264E+02 -0.35708938168E+01  0.60577853282E+01  0.14441646350E+02  0.00000000000E+00 0.  1.
</event>
<event>
 7    1  0.7674040E-012  0.5930195E+02  0.7816164E-02  0.1266605E+00
        -11   -1    0    0    0    0  0.00000000000E+00  0.00000000000E+00  0.45593999997E+02  0.45594000000E+02  0.51100000000E-03 0. -1.
         11   -1    0    0    0    0 -0.00000000000E+00 -0.00000000000E+00 -0.45593999997E+02  0.45594000000E+02  0.51100000000E-03 0.  1.
    9900012    2    1    2    0    0 -0.27468337472E+02  0.13909054578E+02 -0.82915000404E+01  0.59301947631E+02  0.50000006572E+02 0.  0.
         12    1    1    2    0    0  0.27468337472E+02 -0.13909054578E+02  0.82915000404E+01  0.31886052369E+02  0.00000000000E+00 0. -1.
         11    1    3    3    0    0 -0.85615879824E+01 -0.14177375603E+02  0.91289004905E+01  0.18911255701E+02  0.51100000000E-03 0. -1.
        -11    1    3    3    0    0 -0.24895543831E+01  0.72740587214E+01 -0.10464401264E+02  0.12985126313E+02  0.51100000000E-03 0.  1.
         12    1    3    3    0    0 -0.16417195107E+02  0.20812371460E+02 -0.69559992673E+01  0.27405565617E+02  0.00000000000E+00 0. -1.
</event>
<event>
 7    1  0.7674040E-012  0.5930219E+02  0.7816164E-02  0.1266604E+00
        -11   -1    0    0    0    0  0.00000000000E+00  0.00000000000E+00  0.45593999997E+02  0.45594000000E+02  0.51100000000E-03 0.  1.
         11   -1    0    0    0    0 -0.00000000000E+00 -0.00000000000E+00 -0.45593999997E+02  0.45594000000E+02  0.51100000000E-03 0. -1.
    9900012    2    1    2    0    0 -0.29015630288E+02 -0.13206383131E+02 -0.62422327888E+00  0.59302187934E+02  0.50000444824E+02 0.  0.
         12    1    1    2    0    0  0.29015630288E+02  0.13206383131E+02  0.62422327888E+00  0.31885812066E+02  0.00000000000E+00 0. -1.
         11    1    3    3    0    0 -0.58383771569E+01 -0.15841029478E+02 -0.56102237469E+01  0.17790432078E+02  0.51100000000E-03 0. -1.
        -11    1    3    3    0    0 -0.19347333393E+02  0.13155083430E+02 -0.76635242604E+01  0.24619202543E+02  0.51100000000E-03 0.  1.
        -12    1    3    3    0    0 -0.38299197381E+01 -0.10520437082E+02  0.12649524728E+02  0.16892553314E+02  0.00000000000E+00 0.  1.
</event>
<event>
 7    1  0.7674040E-012  0.5930195E+02  0.7816164E-02  0.1266605E+00
        -11   -1    0    0    0    0  0.00000000000E+00  0.00000000000E+00  0.45593999997E+02  0.45594000000E+02  0.51100000000E-03 0.  1.
         11   -1    0    0    0    0 -0.00000000000E+00 -0.00000000000E+00 -0.45593999997E+02  0.45594000000E+02  0.51100000000E-03 0. -1.
    9900012    2    1    2    0    0  0.51058974897E+01  0.19750524413E+02  0.24506461259E+02  0.59301952155E+02  0.50000014822E+02 0.  0.
         12    1    1    2    0    0 -0.51058974897E+01 -0.19750524413E+02 -0.24506461259E+02  0.31886047845E+02  0.00000000000E+00 0. -1.
         11    1    3    3    0    0  0.20148686884E+02 -0.14927215195E+01  0.12329666374E+02  0.23668934785E+02  0.51100000000E-03 0. -1.
        -11    1    3    3    0    0 -0.11001169153E+02  0.13381308347E+02  0.18051650914E+02  0.25018937563E+02  0.51100000000E-03 0.  1.
         12    1    3    3    0    0 -0.40416202420E+01  0.78619375847E+01 -0.58748560294E+01  0.10614079806E+02  0.00000000000E+00 0. -1.
</event>
<event>
 7    1  0.7674040E-012  0.5930195E+02  0.7816164E-02  0.1266605E+00
        -11   -1    0    0    0    0  0.00000000000E+00  0.00000000000E+00  0.45593999997E+02  0.45594000000E+02  0.51100000000E-03 0. -1.
         11   -1    0    0    0    0 -0.00000000000E+00 -0.00000000000E+00 -0.45593999997E+02  0.45594000000E+02  0.51100000000E-03 0.  1.
    9900012    2    1    2    0    0 -0.30709420711E+02 -0.73034945735E+01 -0.45067137449E+01  0.59301952547E+02  0.50000015537E+02 0.  0.
         12    1    1    2    0    0  0.30709420711E+02  0.73034945735E+01  0.45067137449E+01  0.31886047453E+02  0.00000000000E+00 0. -1.
         11    1    3    3    0    0  0.60032742071E+00  0.42301120247E+00  0.12261121334E+02  0.12283095217E+02  0.51100000000E-03 0. -1.
        -11    1    3    3    0    0 -0.17734398517E+02 -0.19118973669E+02 -0.82171512592E+01  0.27341646256E+02  0.51100000000E-03 0.  1.
         12    1    3    3    0    0 -0.13575349615E+02  0.11392467893E+02 -0.85506838193E+01  0.19677211074E+02  0.00000000000E+00 0. -1.
</event>
<event>
 7    1  0.7674040E-012  0.5930196E+02  0.7816164E-02  0.1266605E+00
        -11   -1    0    0    0    0  0.00000000000E+00  0.00000000000E+00  0.45593999997E+02  0.45594000000E+02  0.51100000000E-03 0.  1.
         11   -1    0    0    0    0 -0.00000000000E+00 -0.00000000000E+00 -0.45593999997E+02  0.45594000000E+02  0.51100000000E-03 0. -1.
    9900012    2    1    2    0    0 -0.21864236123E+02 -0.96079061938E+01  0.21127303954E+02  0.59301958304E+02  0.50000026037E+02 0.  0.
         12    1    1    2    0    0  0.21864236123E+02  0.96079061938E+01 -0.21127303954E+02  0.31886041696E+02  0.00000000000E+00 0. -1.
         11    1    3    3    0    0 -0.93605372131E+01 -0.11440502774E+02 -0.62391627158E+01  0.16044684861E+02  0.51100000000E-03 0. -1.
        -11    1    3    3    0    0 -0.89622690824E+01  0.22550808141E+01  0.34266034719E+02  0.35490404227E+02  0.51100000000E-03 0.  1.
        -12    1    3    3    0    0 -0.35414298274E+01 -0.42248423403E+00 -0.68995680493E+01  0.77668692159E+01  0.00000000000E+00 0.  1.
</event>
<event>
 7    1  0.7674040E-012  0.5930196E+02  0.7816164E-02  0.1266605E+00
        -11   -1    0    0    0    0  0.00000000000E+00  0.00000000000E+00  0.45593999997E+02  0.45594000000E+02  0.51100000000E-03 0.  1.
         11   -1    0    0    0    0 -0.00000000000E+00 -0.00000000000E+00 -0.45593999997E+02  0.45594000000E+02  0.51100000000E-03 0. -1.
    9900012    2    1    2    0    0  0.86388095625E+01  0.16641005851E+02  0.25790835086E+02  0.59301964172E+02  0.50000036739E+02 0.  0.
         12    1    1    2    0    0 -0.86388095625E+01 -0.16641005851E+02 -0.25790835086E+02  0.31886035828E+02  0.00000000000E+00 0. -1.
         11    1    3    3    0    0 -0.62394421847E+01 -0.59318229419E+01  0.42839021846E+01  0.96160792623E+01  0.51100000000E-03 0. -1.
        -11    1    3    3    0    0  0.21092121376E+02  0.28272474664E+02  0.12691528341E+02  0.37487135122E+02  0.51100000000E-03 0.  1.
        -12    1    3    3    0    0 -0.62138696287E+01 -0.56996458717E+01  0.88154045600E+01  0.12198749788E+02  0.00000000000E+00 0.  1.
</event>
<event>
 7    1  0.7674040E-012  0.5930192E+02  0.7816164E-02  0.1266605E+00
        -11   -1    0    0    0    0  0.00000000000E+00  0.00000000000E+00  0.45593999997E+02  0.45594000000E+02  0.51100000000E-03 0.  1.
         11   -1    0    0    0    0 -0.00000000000E+00 -0.00000000000E+00 -0.45593999997E+02  0.45594000000E+02  0.51100000000E-03 0. -1.
    9900012    2    1    2    0    0 -0.11010927721E+02 -0.22722242213E+02  0.19472570847E+02  0.59301924107E+02  0.49999963670E+02 0.  0.
         12    1    1    2    0    0  0.11010927721E+02  0.22722242213E+02 -0.19472570847E+02  0.31886075893E+02  0.00000000000E+00 0. -1.
         11    1    3    3    0    0  0.47581945498E+01 -0.14511919726E+02  0.26073404446E+02  0.30216860346E+02  0.51100000000E-03 0. -1.
        -11    1    3    3    0    0 -0.17785492238E+02 -0.83061193778E+01  0.24773421536E+01  0.19785160542E+02  0.51100000000E-03 0.  1.
         12    1    3    3    0    0  0.20163699676E+01  0.95796891281E-01 -0.90781757525E+01  0.92999032190E+01  0.00000000000E+00 0. -1.
</event>
<event>
 7    1  0.7674040E-012  0.5930198E+02  0.7816164E-02  0.1266605E+00
        -11   -1    0    0    0    0  0.00000000000E+00  0.00000000000E+00  0.45593999997E+02  0.45594000000E+02  0.51100000000E-03 0.  1.
         11   -1    0    0    0    0 -0.00000000000E+00 -0.00000000000E+00 -0.45593999997E+02  0.45594000000E+02  0.51100000000E-03 0. -1.
    9900012    2    1    2    0    0 -0.24081830673E+02  0.17304128843E+02  0.11719686757E+02  0.59301976396E+02  0.50000059033E+02 0.  0.
         12    1    1    2    0    0  0.24081830673E+02 -0.17304128843E+02 -0.11719686757E+02  0.31886023604E+02  0.00000000000E+00 0. -1.
         11    1    3    3    0    0 -0.63328285905E+01 -0.12732508730E+02  0.33150282283E+00  0.14224323917E+02  0.51100000000E-03 0. -1.
        -11    1    3    3    0    0 -0.53290384824E+00  0.76645909109E+01  0.14767551765E+02  0.16646637070E+02  0.51100000000E-03 0.  1.
         12    1    3    3    0    0 -0.17216098234E+02  0.22372046662E+02 -0.33793678304E+01  0.28431015409E+02  0.00000000000E+00 0. -1.
</event>
<event>
 7    1  0.7674040E-012  0.5930203E+02  0.7816164E-02  0.1266604E+00
        -11   -1    0    0    0    0  0.00000000000E+00  0.00000000000E+00  0.45593999997E+02  0.45594000000E+02  0.51100000000E-03 0.  1.
         11   -1    0    0    0    0 -0.00000000000E+00 -0.00000000000E+00 -0.45593999997E+02  0.45594000000E+02  0.51100000000E-03 0. -1.
    9900012    2    1    2    0    0  0.20967494889E+02 -0.23891790174E+02  0.25022984383E+01  0.59302031658E+02  0.50000159816E+02 0.  0.
         12    1    1    2    0    0 -0.20967494889E+02  0.23891790174E+02 -0.25022984383E+01  0.31885968342E+02  0.00000000000E+00 0. -1.
         11    1    3    3    0    0  0.33617635737E+02 -0.67681506077E+01 -0.31253472464E+01  0.34434301080E+02  0.51100000000E-03 0. -1.
        -11    1    3    3    0    0 -0.49998444605E+01 -0.39899763545E+00  0.39795884268E+01  0.64027156777E+01  0.51100000000E-03 0.  1.
         12    1    3    3    0    0 -0.76502963877E+01 -0.16724641931E+02  0.16480572580E+01  0.18465014900E+02  0.00000000000E+00 0. -1.
</event>
<event>
 7    1  0.7674040E-012  0.5930194E+02  0.7816164E-02  0.1266605E+00
        -11   -1    0    0    0    0  0.00000000000E+00  0.00000000000E+00  0.45593999997E+02  0.45594000000E+02  0.51100000000E-03 0.  1.
         11   -1    0    0    0    0 -0.00000000000E+00 -0.00000000000E+00 -0.45593999997E+02  0.45594000000E+02  0.51100000000E-03 0. -1.
    9900012    2    1    2    0    0  0.24405935282E+02 -0.19324604672E+01  0.20428813937E+02  0.59301944751E+02  0.50000001319E+02 0.  0.
         12    1    1    2    0    0 -0.24405935282E+02  0.19324604672E+01 -0.20428813937E+02  0.31886055249E+02  0.00000000000E+00 0. -1.
         11    1    3    3    0    0  0.21157720444E+01  0.19555687396E+02  0.36076223577E+01  0.19997908396E+02  0.51100000000E-03 0. -1.
        -11    1    3    3    0    0  0.14340729522E+02 -0.23059200181E+02  0.10867078289E+02  0.29248532048E+02  0.51100000000E-03 0.  1.
         12    1    3    3    0    0  0.79494337164E+01  0.15710523175E+01  0.59541132900E+01  0.10055504307E+02  0.00000000000E+00 0. -1.
</event>
<event>
 7    1  0.7674040E-012  0.5930193E+02  0.7816164E-02  0.1266605E+00
        -11   -1    0    0    0    0  0.00000000000E+00  0.00000000000E+00  0.45593999997E+02  0.45594000000E+02  0.51100000000E-03 0.  1.
         11   -1    0    0    0    0 -0.00000000000E+00 -0.00000000000E+00 -0.45593999997E+02  0.45594000000E+02  0.51100000000E-03 0. -1.
    9900012    2    1    2    0    0  0.77367624691E+01  0.31288887438E+01  0.30774563611E+02  0.59301934020E+02  0.49999981748E+02 0.  0.
         12    1    1    2    0    0 -0.77367624691E+01 -0.31288887438E+01 -0.30774563611E+02  0.31886065980E+02  0.00000000000E+00 0. -1.
         11    1    3    3    0    0  0.21010538916E+02  0.45784630687E+01  0.89903637331E+00  0.21522391509E+02  0.51100000000E-03 0. -1.
        -11    1    3    3    0    0 -0.82980696887E+01  0.30939437255E+01  0.29750157738E+02  0.31040333987E+02  0.51100000000E-03 0.  1.
         12    1    3    3    0    0 -0.49757067579E+01 -0.45435180504E+01  0.12536949949E+00  0.67392085237E+01  0.00000000000E+00 0. -1.
</event>
<event>
 7    1  0.7674040E-012  0.5930197E+02  0.7816164E-02  0.1266605E+00
        -11   -1    0    0    0    0  0.00000000000E+00  0.00000000000E+00  0.45593999997E+02  0.45594000000E+02  0.51100000000E-03 0. -1.
         11   -1    0    0    0    0 -0.00000000000E+00 -0.00000000000E+00 -0.45593999997E+02  0.45594000000E+02  0.51100000000E-03 0.  1.
    9900012    2    1    2    0    0 -0.76469461002E+01 -0.72778288013E+01 -0.30087812641E+02  0.59301967851E+02  0.50000043447E+02 0.  0.
         12    1    1    2    0    0  0.76469461002E+01  0.72778288013E+01  0.30087812641E+02  0.31886032149E+02  0.00000000000E+00 0. -1.
         11    1    3    3    0    0 -0.37698839535E+01 -0.17309986431E+02 -0.45111063530E+01  0.18281075900E+02  0.51100000000E-03 0. -1.
        -11    1    3    3    0    0  0.10061268994E+02  0.85284290534E+01 -0.23361630287E+02  0.26827765576E+02  0.51100000000E-03 0.  1.
         12    1    3    3    0    0 -0.13938331140E+02  0.15037285762E+01 -0.22150760014E+01  0.14193126375E+02  0.00000000000E+00 0. -1.
</event>
<event>
 7    1  0.7674040E-012  0.5930193E+02  0.7816164E-02  0.1266605E+00
        -11   -1    0    0    0    0  0.00000000000E+00  0.00000000000E+00  0.45593999997E+02  0.45594000000E+02  0.51100000000E-03 0. -1.
         11   -1    0    0    0    0 -0.00000000000E+00 -0.00000000000E+00 -0.45593999997E+02  0.45594000000E+02  0.51100000000E-03 0.  1.
    9900012    2    1    2    0    0 -0.23874604446E+02 -0.19750537787E+02 -0.75260213383E+01  0.59301929726E+02  0.49999973916E+02 0.  0.
         12    1    1    2    0    0  0.23874604446E+02  0.19750537787E+02  0.75260213383E+01  0.31886070274E+02  0.00000000000E+00 0. -1.
         11    1    3    3    0    0 -0.16624995990E+02 -0.10779385262E+02 -0.13686495031E+02  0.24081233041E+02  0.51100000000E-03 0.  1.
        -11    1    3    3    0    0  0.11428151876E+02 -0.98970583761E+01  0.66444811067E+01  0.16513738197E+02  0.51100000000E-03 0. -1.
         12    1    3    3    0    0 -0.18677760332E+02  0.92590585089E+00 -0.48400741414E+00  0.18706958487E+02  0.00000000000E+00 0. -1.
</event>
<event>
 7    1  0.7674040E-012  0.5930191E+02  0.7816164E-02  0.1266605E+00
        -11   -1    0    0    0    0  0.00000000000E+00  0.00000000000E+00  0.45593999997E+02  0.45594000000E+02  0.51100000000E-03 0.  1.
         11   -1    0    0    0    0 -0.00000000000E+00 -0.00000000000E+00 -0.45593999997E+02  0.45594000000E+02  0.51100000000E-03 0. -1.
    9900012    2    1    2    0    0  0.25942653278E+02 -0.10699229814E+02  0.15140274087E+02  0.59301910915E+02  0.49999939610E+02 0.  0.
         12    1    1    2    0    0 -0.25942653278E+02  0.10699229814E+02 -0.15140274087E+02  0.31886089085E+02  0.00000000000E+00 0. -1.
         11    1    3    3    0    0  0.12113373875E+02 -0.14024290730E+02  0.31208577459E+02  0.36295865665E+02  0.51100000000E-03 0. -1.
        -11    1    3    3    0    0  0.75596310532E+01  0.13969092627E+01 -0.27582510915E+01  0.81674553255E+01  0.51100000000E-03 0.  1.
         12    1    3    3    0    0  0.62696483500E+01  0.19281516538E+01 -0.13310052280E+02  0.14838589924E+02  0.00000000000E+00 0. -1.
</event>
<event>
 7    1  0.7674040E-012  0.5930200E+02  0.7816164E-02  0.1266605E+00
        -11   -1    0    0    0    0  0.00000000000E+00  0.00000000000E+00  0.45593999997E+02  0.45594000000E+02  0.51100000000E-03 0.  1.
         11   -1    0    0    0    0 -0.00000000000E+00 -0.00000000000E+00 -0.45593999997E+02  0.45594000000E+02  0.51100000000E-03 0. -1.
    9900012    2    1    2    0    0 -0.12255961557E+02  0.29172212733E+02 -0.39357950622E+01  0.59301998805E+02  0.50000099900E+02 0.  0.
         12    1    1    2    0    0  0.12255961557E+02 -0.29172212733E+02  0.39357950622E+01  0.31886001195E+02  0.00000000000E+00 0. -1.
         11    1    3    3    0    0  0.21679215087E+01  0.28685358470E+02 -0.68031556557E+01  0.29560659691E+02  0.51100000000E-03 0. -1.
        -11    1    3    3    0    0 -0.15967670276E+02  0.71386067561E+01 -0.60519869841E+01  0.18508180548E+02  0.51100000000E-03 0.  1.
        -12    1    3    3    0    0  0.15437872107E+01 -0.66517524925E+01  0.89193475776E+01  0.11233158567E+02  0.00000000000E+00 0.  1.
</event>
<event>
 7    1  0.7674040E-012  0.5930193E+02  0.7816164E-02  0.1266605E+00
        -11   -1    0    0    0    0  0.00000000000E+00  0.00000000000E+00  0.45593999997E+02  0.45594000000E+02  0.51100000000E-03 0. -1.
         11   -1    0    0    0    0 -0.00000000000E+00 -0.00000000000E+00 -0.45593999997E+02  0.45594000000E+02  0.51100000000E-03 0.  1.
    9900012    2    1    2    0    0  0.29720325935E+02 -0.51641823541E+01 -0.10332214984E+02  0.59301933772E+02  0.49999981295E+02 0.  0.
         12    1    1    2    0    0 -0.29720325935E+02  0.51641823541E+01  0.10332214984E+02  0.31886066228E+02  0.00000000000E+00 0. -1.
         11    1    3    3    0    0 -0.60652027973E+01  0.76711393974E+01  0.63796304004E+01  0.11676161567E+02  0.51100000000E-03 0. -1.
        -11    1    3    3    0    0  0.37300338588E+02 -0.15447176078E+02 -0.12160654060E+02  0.42164108137E+02  0.51100000000E-03 0.  1.
        -12    1    3    3    0    0 -0.15148098555E+01  0.26118543268E+01 -0.45511913243E+01  0.54616640681E+01  0.00000000000E+00 0.  1.
</event>
<event>
 7    1  0.7674040E-012  0.5930194E+02  0.7816164E-02  0.1266605E+00
        -11   -1    0    0    0    0  0.00000000000E+00  0.00000000000E+00  0.45593999997E+02  0.45594000000E+02  0.51100000000E-03 0.  1.
         11   -1    0    0    0    0 -0.00000000000E+00 -0.00000000000E+00 -0.45593999997E+02  0.45594000000E+02  0.51100000000E-03 0. -1.
    9900012    2    1    2    0    0  0.12014727508E+02  0.13144933551E+01  0.29506593477E+02  0.59301943040E+02  0.49999998198E+02 0.  0.
         12    1    1    2    0    0 -0.12014727508E+02 -0.13144933551E+01 -0.29506593477E+02  0.31886056960E+02  0.00000000000E+00 0. -1.
         11    1    3    3    0    0  0.14654709681E+02 -0.17665415186E+02  0.64880080767E+01  0.23852078706E+02  0.51100000000E-03 0. -1.
        -11    1    3    3    0    0  0.48121158387E+00  0.13977205481E+02  0.25475535458E+02  0.29061946679E+02  0.51100000000E-03 0.  1.
        -12    1    3    3    0    0 -0.31211937573E+01  0.50027030601E+01 -0.24569500577E+01  0.63879176547E+01  0.00000000000E+00 0.  1.
</event>
<event>
 7    1  0.7674040E-012  0.5930196E+02  0.7816164E-02  0.1266605E+00
        -11   -1    0    0    0    0  0.00000000000E+00  0.00000000000E+00  0.45593999997E+02  0.45594000000E+02  0.51100000000E-03 0.  1.
         11   -1    0    0    0    0 -0.00000000000E+00 -0.00000000000E+00 -0.45593999997E+02  0.45594000000E+02  0.51100000000E-03 0. -1.
    9900012    2    1    2    0    0 -0.24587848979E+02  0.90853884774E+01  0.18155246713E+02  0.59301959412E+02  0.50000028056E+02 0.  0.
         12    1    1    2    0    0  0.24587848979E+02 -0.90853884774E+01 -0.18155246713E+02  0.31886040588E+02  0.00000000000E+00 0. -1.
         11    1    3    3    0    0 -0.54993425745E+01  0.20501175246E+02  0.25551475983E+02  0.33217749478E+02  0.51100000000E-03 0. -1.
        -11    1    3    3    0    0 -0.14142538298E+02 -0.13199989139E+02 -0.38032112591E+01  0.19715869723E+02  0.51100000000E-03 0.  1.
         12    1    3    3    0    0 -0.49459681068E+01  0.17842023701E+01 -0.35930180110E+01  0.63683402106E+01  0.00000000000E+00 0. -1.
</event>
<event>
 7    1  0.7674040E-012  0.5930194E+02  0.7816164E-02  0.1266605E+00
        -11   -1    0    0    0    0  0.00000000000E+00  0.00000000000E+00  0.45593999997E+02  0.45594000000E+02  0.51100000000E-03 0.  1.
         11   -1    0    0    0    0 -0.00000000000E+00 -0.00000000000E+00 -0.45593999997E+02  0.45594000000E+02  0.51100000000E-03 0. -1.
    9900012    2    1    2    0    0  0.26953953095E+02 -0.12207251352E+02  0.11882266245E+02  0.59301939972E+02  0.49999992603E+02 0.  0.
         12    1    1    2    0    0 -0.26953953095E+02  0.12207251352E+02 -0.11882266245E+02  0.31886060028E+02  0.00000000000E+00 0. -1.
         11    1    3    3    0    0  0.21276043298E+02  0.16813014261E+02  0.88401242889E+01  0.28521838381E+02  0.51100000000E-03 0. -1.
        -11    1    3    3    0    0  0.54212854586E+01 -0.11747426987E+02  0.38129183472E+01  0.13488169758E+02  0.51100000000E-03 0.  1.
         12    1    3    3    0    0  0.25662433831E+00 -0.17272838626E+02 -0.77077639100E+00  0.17291931832E+02  0.00000000000E+00 0. -1.
</event>
<event>
 7    1  0.7674040E-012  0.5930191E+02  0.7816164E-02  0.1266605E+00
        -11   -1    0    0    0    0  0.00000000000E+00  0.00000000000E+00  0.45593999997E+02  0.45594000000E+02  0.51100000000E-03 0. -1.
         11   -1    0    0    0    0 -0.00000000000E+00 -0.00000000000E+00 -0.45593999997E+02  0.45594000000E+02  0.51100000000E-03 0.  1.
    9900012    2    1    2    0    0 -0.27351181691E+02 -0.30944479070E+01 -0.16095340270E+02  0.59301910146E+02  0.49999938208E+02 0.  0.
         12    1    1    2    0    0  0.27351181691E+02  0.30944479070E+01  0.16095340270E+02  0.31886089854E+02  0.00000000000E+00 0. -1.
         11    1    3    3    0    0 -0.67405969412E+01  0.10636589524E+02  0.72025616862E+01  0.14506880399E+02  0.51100000000E-03 0.  1.
        -11    1    3    3    0    0 -0.85136693675E+01 -0.12148410308E+02 -0.28026718965E+02  0.31710619914E+02  0.51100000000E-03 0. -1.
        -12    1    3    3    0    0 -0.12096915383E+02 -0.15826271223E+01  0.47288170084E+01  0.13084409833E+02  0.00000000000E+00 0.  1.
</event>
<event>
 7    1  0.7674040E-012  0.5930197E+02  0.7816164E-02  0.1266605E+00
        -11   -1    0    0    0    0  0.00000000000E+00  0.00000000000E+00  0.45593999997E+02  0.45594000000E+02  0.51100000000E-03 0.  1.
         11   -1    0    0    0    0 -0.00000000000E+00 -0.00000000000E+00 -0.45593999997E+02  0.45594000000E+02  0.51100000000E-03 0. -1.
    9900012    2    1    2    0    0  0.24766680932E+00 -0.31225513889E+02  0.64517446677E+01  0.59301967544E+02  0.50000042889E+02 0.  0.
         12    1    1    2    0    0 -0.24766680932E+00  0.31225513889E+02 -0.64517446677E+01  0.31886032456E+02  0.00000000000E+00 0. -1.
         11    1    3    3    0    0  0.10897777276E+02 -0.59518167279E+01 -0.17189526936E+02  0.21205317929E+02  0.51100000000E-03 0. -1.
        -11    1    3    3    0    0  0.16963830866E+00 -0.91398401771E+01  0.13160041588E+02  0.16023487463E+02  0.51100000000E-03 0.  1.
         12    1    3    3    0    0 -0.10819748775E+02 -0.16133856984E+02  0.10481230016E+02  0.22073162152E+02  0.00000000000E+00 0. -1.
</event>
<event>
 7    1  0.7674040E-012  0.5930201E+02  0.7816164E-02  0.1266605E+00
        -11   -1    0    0    0    0  0.00000000000E+00  0.00000000000E+00  0.45593999997E+02  0.45594000000E+02  0.51100000000E-03 0. -1.
         11   -1    0    0    0    0 -0.00000000000E+00 -0.00000000000E+00 -0.45593999997E+02  0.45594000000E+02  0.51100000000E-03 0.  1.
    9900012    2    1    2    0    0  0.47310119039E+01  0.25455053812E+02 -0.18611124892E+02  0.59302012358E+02  0.50000124617E+02 0.  0.
         12    1    1    2    0    0 -0.47310119039E+01 -0.25455053812E+02  0.18611124892E+02  0.31885987642E+02  0.00000000000E+00 0. -1.
         11    1    3    3    0    0  0.17064450553E+02  0.32502665158E+02 -0.22089800680E+02  0.42843646080E+02  0.51100000000E-03 0. -1.
        -11    1    3    3    0    0 -0.31161211797E+01 -0.53986558353E+01 -0.56480089345E+00  0.62589692718E+01  0.51100000000E-03 0.  1.
         12    1    3    3    0    0 -0.92173174696E+01 -0.16489555104E+01  0.40434766821E+01  0.10199397006E+02  0.00000000000E+00 0. -1.
</event>
<event>
 7    1  0.7674040E-012  0.5930194E+02  0.7816164E-02  0.1266605E+00
        -11   -1    0    0    0    0  0.00000000000E+00  0.00000000000E+00  0.45593999997E+02  0.45594000000E+02  0.51100000000E-03 0.  1.
         11   -1    0    0    0    0 -0.00000000000E+00 -0.00000000000E+00 -0.45593999997E+02  0.45594000000E+02  0.51100000000E-03 0. -1.
    9900012    2    1    2    0    0  0.16738980377E+02  0.16593800156E+02  0.21474936878E+02  0.59301943775E+02  0.49999999539E+02 0.  0.
         12    1    1    2    0    0 -0.16738980377E+02 -0.16593800156E+02 -0.21474936878E+02  0.31886056225E+02  0.00000000000E+00 0. -1.
         11    1    3    3    0    0 -0.11759382434E+02  0.98302257616E+01  0.25060076282E+00  0.15329031762E+02  0.51100000000E-03 0. -1.
        -11    1    3    3    0    0  0.18559654734E+02  0.14036091433E+02  0.21461253598E+02  0.31655300548E+02  0.51100000000E-03 0.  1.
         12    1    3    3    0    0  0.99387080765E+01 -0.72725170389E+01 -0.23691748262E+00  0.12317611465E+02  0.00000000000E+00 0. -1.
</event>
<event>
 7    1  0.7674040E-012  0.5930196E+02  0.7816164E-02  0.1266605E+00
        -11   -1    0    0    0    0  0.00000000000E+00  0.00000000000E+00  0.45593999997E+02  0.45594000000E+02  0.51100000000E-03 0.  1.
         11   -1    0    0    0    0 -0.00000000000E+00 -0.00000000000E+00 -0.45593999997E+02  0.45594000000E+02  0.51100000000E-03 0. -1.
    9900012    2    1    2    0    0 -0.15824434604E+02 -0.20543020407E+02 -0.18555091371E+02  0.59301955501E+02  0.50000020925E+02 0.  0.
         12    1    1    2    0    0  0.15824434604E+02  0.20543020407E+02  0.18555091371E+02  0.31886044499E+02  0.00000000000E+00 0. -1.
         11    1    3    3    0    0 -0.26956221445E+02 -0.20531572180E+02 -0.51712717101E+01  0.34277184571E+02  0.51100000000E-03 0. -1.
        -11    1    3    3    0    0  0.13774680387E+01  0.67420080343E+01  0.33255027396E+00  0.68893164013E+01  0.51100000000E-03 0.  1.
         12    1    3    3    0    0  0.97543188020E+01 -0.67534562616E+01 -0.13716369935E+02  0.18135454529E+02  0.00000000000E+00 0. -1.
</event>
<event>
 7    1  0.7674040E-012  0.5930193E+02  0.7816164E-02  0.1266605E+00
        -11   -1    0    0    0    0  0.00000000000E+00  0.00000000000E+00  0.45593999997E+02  0.45594000000E+02  0.51100000000E-03 0. -1.
         11   -1    0    0    0    0 -0.00000000000E+00 -0.00000000000E+00 -0.45593999997E+02  0.45594000000E+02  0.51100000000E-03 0.  1.
    9900012    2    1    2    0    0 -0.20694618546E+02 -0.24186900183E+02 -0.18569401826E+01  0.59301927742E+02  0.49999970299E+02 0.  0.
         12    1    1    2    0    0  0.20694618546E+02  0.24186900183E+02  0.18569401826E+01  0.31886072258E+02  0.00000000000E+00 0. -1.
         11    1    3    3    0    0  0.35770725611E+01  0.64124576085E+01 -0.79394160938E+01  0.10814314073E+02  0.51100000000E-03 0. -1.
        -11    1    3    3    0    0 -0.25335719170E+02 -0.17988571863E+02  0.13433673614E+02  0.33851897591E+02  0.51100000000E-03 0.  1.
        -12    1    3    3    0    0  0.10640280628E+01 -0.12610785929E+02 -0.73511977026E+01  0.14635716078E+02  0.00000000000E+00 0.  1.
</event>
<event>
 7    1  0.7674040E-012  0.5930195E+02  0.7816164E-02  0.1266605E+00
        -11   -1    0    0    0    0  0.00000000000E+00  0.00000000000E+00  0.45593999997E+02  0.45594000000E+02  0.51100000000E-03 0.  1.
         11   -1    0    0    0    0 -0.00000000000E+00 -0.00000000000E+00 -0.45593999997E+02  0.45594000000E+02  0.51100000000E-03 0. -1.
    9900012    2    1    2    0    0 -0.16332652806E+02  0.11623409786E+02  0.24796384526E+02  0.59301954646E+02  0.50000019366E+02 0.  0.
         12    1    1    2    0    0  0.16332652806E+02 -0.11623409786E+02 -0.24796384526E+02  0.31886045354E+02  0.00000000000E+00 0. -1.
         11    1    3    3    0    0  0.10318112955E+02  0.64070616740E+01  0.10383375316E+02  0.15978998012E+02  0.51100000000E-03 0. -1.
        -11    1    3    3    0    0 -0.21993594697E+02 -0.40507209323E+00  0.23152206816E+02  0.31935982400E+02  0.51100000000E-03 0.  1.
         12    1    3    3    0    0 -0.46571710639E+01  0.56214202051E+01 -0.87391976055E+01  0.11386974235E+02  0.00000000000E+00 0. -1.
</event>
<event>
 7    1  0.7674040E-012  0.5930194E+02  0.7816164E-02  0.1266605E+00
        -11   -1    0    0    0    0  0.00000000000E+00  0.00000000000E+00  0.45593999997E+02  0.45594000000E+02  0.51100000000E-03 0. -1.
         11   -1    0    0    0    0 -0.00000000000E+00 -0.00000000000E+00 -0.45593999997E+02  0.45594000000E+02  0.51100000000E-03 0.  1.
    9900012    2    1    2    0    0 -0.18192609076E+02 -0.19118539583E+02 -0.17895002105E+02  0.59301942214E+02  0.49999996692E+02 0.  0.
         12    1    1    2    0    0  0.18192609076E+02  0.19118539583E+02  0.17895002105E+02  0.31886057786E+02  0.00000000000E+00 0. -1.
         11    1    3    3    0    0 -0.15401470145E+02 -0.16585854271E+02  0.47998139732E+01  0.23137287199E+02  0.51100000000E-03 0. -1.
        -11    1    3    3    0    0 -0.59310604081E+01 -0.40913363658E+01 -0.28492577892E+02  0.29389513538E+02  0.51100000000E-03 0.  1.
         12    1    3    3    0    0  0.31399214768E+01  0.15586510534E+01  0.57977618131E+01  0.67751414766E+01  0.00000000000E+00 0. -1.
</event>
<event>
 7    1  0.7674040E-012  0.5930194E+02  0.7816164E-02  0.1266605E+00
        -11   -1    0    0    0    0  0.00000000000E+00  0.00000000000E+00  0.45593999997E+02  0.45594000000E+02  0.51100000000E-03 0. -1.
         11   -1    0    0    0    0 -0.00000000000E+00 -0.00000000000E+00 -0.45593999997E+02  0.45594000000E+02  0.51100000000E-03 0.  1.
    9900012    2    1    2    0    0 -0.12368161445E+02  0.26634713200E+02  0.12423427209E+02  0.59301938650E+02  0.49999990193E+02 0.  0.
         12    1    1    2    0    0  0.12368161445E+02 -0.26634713200E+02 -0.12423427209E+02  0.31886061350E+02  0.00000000000E+00 0. -1.
         11    1    3    3    0    0 -0.16571385468E+02  0.19941708338E+02  0.11946732270E+02  0.28548326746E+02  0.51100000000E-03 0. -1.
        -11    1    3    3    0    0  0.66710355930E+01 -0.95874132150E+01 -0.59124219167E+01  0.13091139798E+02  0.51100000000E-03 0.  1.
         12    1    3    3    0    0 -0.24678115693E+01  0.16280418077E+02  0.63891168554E+01  0.17662472106E+02  0.00000000000E+00 0. -1.
</event>
<event>
 7    1  0.7674040E-012  0.5930197E+02  0.7816164E-02  0.1266605E+00
        -11   -1    0    0    0    0  0.00000000000E+00  0.00000000000E+00  0.45593999997E+02  0.45594000000E+02  0.51100000000E-03 0.  1.
         11   -1    0    0    0    0 -0.00000000000E+00 -0.00000000000E+00 -0.45593999997E+02  0.45594000000E+02  0.51100000000E-03 0. -1.
    9900012    2    1    2    0    0  0.94384353536E+01  0.25767230141E+02 -0.16238361442E+02  0.59301974951E+02  0.50000056397E+02 0.  0.
         12    1    1    2    0    0 -0.94384353536E+01 -0.25767230141E+02  0.16238361442E+02  0.31886025049E+02  0.00000000000E+00 0. -1.
         11    1    3    3    0    0 -0.11488537533E+02 -0.25405513140E+00  0.27970175852E+01  0.11826848536E+02  0.51100000000E-03 0. -1.
        -11    1    3    3    0    0  0.42325295374E+01  0.20564325687E+02  0.76263234221E+00  0.21009221918E+02  0.51100000000E-03 0.  1.
         12    1    3    3    0    0  0.16694443349E+02  0.54569595856E+01 -0.19798011370E+02  0.26465904497E+02  0.00000000000E+00 0. -1.
</event>
<event>
 7    1  0.7674040E-012  0.5930193E+02  0.7816164E-02  0.1266605E+00
        -11   -1    0    0    0    0  0.00000000000E+00  0.00000000000E+00  0.45593999997E+02  0.45594000000E+02  0.51100000000E-03 0.  1.
         11   -1    0    0    0    0 -0.00000000000E+00 -0.00000000000E+00 -0.45593999997E+02  0.45594000000E+02  0.51100000000E-03 0. -1.
    9900012    2    1    2    0    0 -0.16476389557E+02 -0.26868145519E+02 -0.48324445476E+01  0.59301934442E+02  0.49999982518E+02 0.  0.
         12    1    1    2    0    0  0.16476389557E+02  0.26868145519E+02  0.48324445476E+01  0.31886065558E+02  0.00000000000E+00 0. -1.
         11    1    3    3    0    0 -0.10576262696E+02  0.82476267077E+01  0.41384082516E+01  0.14035921845E+02  0.51100000000E-03 0.  1.
        -11    1    3    3    0    0 -0.21592017714E+01 -0.34647882323E+02  0.87178721159E+00  0.34726040876E+02  0.51100000000E-03 0. -1.
        -12    1    3    3    0    0 -0.37409250897E+01 -0.46788990352E+00 -0.98426400107E+01  0.10539971721E+02  0.00000000000E+00 0.  1.
</event>
<event>
 7    1  0.7674040E-012  0.5930194E+02  0.7816164E-02  0.1266605E+00
        -11   -1    0    0    0    0  0.00000000000E+00  0.00000000000E+00  0.45593999997E+02  0.45594000000E+02  0.51100000000E-03 0.  1.
         11   -1    0    0    0    0 -0.00000000000E+00 -0.00000000000E+00 -0.45593999997E+02  0.45594000000E+02  0.51100000000E-03 0. -1.
    9900012    2    1    2    0    0 -0.21539804337E+02  0.30644712207E+01 -0.23310228493E+02  0.59301938670E+02  0.49999990229E+02 0.  0.
         12    1    1    2    0    0  0.21539804337E+02 -0.30644712207E+01  0.23310228493E+02  0.31886061330E+02  0.00000000000E+00 0. -1.
         11    1    3    3    0    0 -0.33046261696E+02  0.95264165172E+01 -0.17763509682E+02  0.38708530071E+02  0.51100000000E-03 0. -1.
        -11    1    3    3    0    0  0.45273116156E+01  0.29903909707E+01 -0.68869848505E+01  0.87675281132E+01  0.51100000000E-03 0.  1.
         12    1    3    3    0    0  0.69791457433E+01 -0.94523362672E+01  0.13402660393E+01  0.11825880486E+02  0.00000000000E+00 0. -1.
</event>
<event>
 7    1  0.7674040E-012  0.5930196E+02  0.7816164E-02  0.1266605E+00
        -11   -1    0    0    0    0  0.00000000000E+00  0.00000000000E+00  0.45593999997E+02  0.45594000000E+02  0.51100000000E-03 0.  1.
         11   -1    0    0    0    0 -0.00000000000E+00 -0.00000000000E+00 -0.45593999997E+02  0.45594000000E+02  0.51100000000E-03 0. -1.
    9900012    2    1    2    0    0  0.27681450075E+02 -0.95200989237E+00  0.15797172155E+02  0.59301958395E+02  0.50000026203E+02 0.  0.
         12    1    1    2    0    0 -0.27681450075E+02  0.95200989237E+00 -0.15797172155E+02  0.31886041605E+02  0.00000000000E+00 0. -1.
         11    1    3    3    0    0  0.44462671603E+00 -0.64277264552E+01  0.10632406163E+02  0.12432273379E+02  0.51100000000E-03 0. -1.
        -11    1    3    3    0    0  0.29060178856E+02  0.14457370094E+02  0.12850106524E+02  0.34908949900E+02  0.51100000000E-03 0.  1.
         12    1    3    3    0    0 -0.18233554969E+01 -0.89816535314E+01 -0.76853405315E+01  0.11960735116E+02  0.00000000000E+00 0. -1.
</event>
<event>
 7    1  0.7674040E-012  0.5930195E+02  0.7816164E-02  0.1266605E+00
        -11   -1    0    0    0    0  0.00000000000E+00  0.00000000000E+00  0.45593999997E+02  0.45594000000E+02  0.51100000000E-03 0.  1.
         11   -1    0    0    0    0 -0.00000000000E+00 -0.00000000000E+00 -0.45593999997E+02  0.45594000000E+02  0.51100000000E-03 0. -1.
    9900012    2    1    2    0    0  0.45379492999E+01  0.53226391442E+01  0.31109435006E+02  0.59301946345E+02  0.50000004226E+02 0.  0.
         12    1    1    2    0    0 -0.45379492999E+01 -0.53226391442E+01 -0.31109435006E+02  0.31886053655E+02  0.00000000000E+00 0. -1.
         11    1    3    3    0    0  0.10586636541E+02  0.25614766291E+02  0.14592485521E+02  0.31323054757E+02  0.51100000000E-03 0.  1.
        -11    1    3    3    0    0 -0.19342326027E+01 -0.17241784692E+02  0.11540319617E+02  0.20837451193E+02  0.51100000000E-03 0. -1.
        -12    1    3    3    0    0 -0.41144546380E+01 -0.30503424552E+01  0.49766298680E+01  0.71414403943E+01  0.00000000000E+00 0.  1.
</event>
<event>
 7    1  0.7674040E-012  0.5930195E+02  0.7816164E-02  0.1266605E+00
        -11   -1    0    0    0    0  0.00000000000E+00  0.00000000000E+00  0.45593999997E+02  0.45594000000E+02  0.51100000000E-03 0.  1.
         11   -1    0    0    0    0 -0.00000000000E+00 -0.00000000000E+00 -0.45593999997E+02  0.45594000000E+02  0.51100000000E-03 0. -1.
    9900012    2    1    2    0    0 -0.14395236757E+02 -0.27403876405E+02  0.76501498855E+01  0.59301951694E+02  0.50000013981E+02 0.  0.
         12    1    1    2    0    0  0.14395236757E+02  0.27403876405E+02 -0.76501498855E+01  0.31886048306E+02  0.00000000000E+00 0. -1.
         11    1    3    3    0    0 -0.23603794965E+02 -0.22608686348E+02 -0.45150597700E+01  0.32995114791E+02  0.51100000000E-03 0. -1.
        -11    1    3    3    0    0  0.99432470370E+01 -0.10300423654E+02  0.14413117304E+02  0.20315138192E+02  0.51100000000E-03 0.  1.
         12    1    3    3    0    0 -0.73468882951E+00  0.55052335975E+01 -0.22479076483E+01  0.59916987103E+01  0.00000000000E+00 0. -1.
</event>
<event>
 7    1  0.7674040E-012  0.5930195E+02  0.7816164E-02  0.1266605E+00
        -11   -1    0    0    0    0  0.00000000000E+00  0.00000000000E+00  0.45593999997E+02  0.45594000000E+02  0.51100000000E-03 0.  1.
         11   -1    0    0    0    0 -0.00000000000E+00 -0.00000000000E+00 -0.45593999997E+02  0.45594000000E+02  0.51100000000E-03 0. -1.
    9900012    2    1    2    0    0  0.23522615409E+01  0.28353590164E+02  0.14396562147E+02  0.59301949583E+02  0.50000010131E+02 0.  0.
         12    1    1    2    0    0 -0.23522615409E+01 -0.28353590164E+02 -0.14396562147E+02  0.31886050417E+02  0.00000000000E+00 0. -1.
         11    1    3    3    0    0 -0.53944937639E+01  0.34099061112E+02 -0.56391464523E+01  0.34980659008E+02  0.51100000000E-03 0. -1.
        -11    1    3    3    0    0  0.23437916584E+01 -0.74309392412E+01  0.14165272173E+02  0.16166853539E+02  0.51100000000E-03 0.  1.
        -12    1    3    3    0    0  0.54029636464E+01  0.16854682935E+01  0.58704364262E+01  0.81544370355E+01  0.00000000000E+00 0.  1.
</event>
<event>
 7    1  0.7674040E-012  0.5930191E+02  0.7816164E-02  0.1266605E+00
        -11   -1    0    0    0    0  0.00000000000E+00  0.00000000000E+00  0.45593999997E+02  0.45594000000E+02  0.51100000000E-03 0.  1.
         11   -1    0    0    0    0 -0.00000000000E+00 -0.00000000000E+00 -0.45593999997E+02  0.45594000000E+02  0.51100000000E-03 0. -1.
    9900012    2    1    2    0    0 -0.13678138412E+02 -0.19501576983E+02  0.21197158206E+02  0.59301913829E+02  0.49999944925E+02 0.  0.
         12    1    1    2    0    0  0.13678138412E+02  0.19501576983E+02 -0.21197158206E+02  0.31886086171E+02  0.00000000000E+00 0. -1.
         11    1    3    3    0    0  0.17135393321E+02  0.25233671137E+01  0.59997104074E+01  0.18329910285E+02  0.51100000000E-03 0. -1.
        -11    1    3    3    0    0 -0.22019552762E+01 -0.27061269227E+01  0.88170689055E+00  0.35984909701E+01  0.51100000000E-03 0.  1.
         12    1    3    3    0    0 -0.28611576457E+02 -0.19318817174E+02  0.14315740908E+02  0.37373512574E+02  0.00000000000E+00 0. -1.
</event>
<event>
 7    1  0.7674040E-012  0.5930197E+02  0.7816164E-02  0.1266605E+00
        -11   -1    0    0    0    0  0.00000000000E+00  0.00000000000E+00  0.45593999997E+02  0.45594000000E+02  0.51100000000E-03 0.  1.
         11   -1    0    0    0    0 -0.00000000000E+00 -0.00000000000E+00 -0.45593999997E+02  0.45594000000E+02  0.51100000000E-03 0. -1.
    9900012    2    1    2    0    0  0.77746877295E+01 -0.11268492530E+01  0.30903126109E+02  0.59301972310E+02  0.50000051580E+02 0.  0.
         12    1    1    2    0    0 -0.77746877295E+01  0.11268492530E+01 -0.30903126109E+02  0.31886027690E+02  0.00000000000E+00 0. -1.
         11    1    3    3    0    0 -0.12775750921E+02 -0.24739056506E+01  0.70396679594E+00  0.13032098460E+02  0.51100000000E-03 0. -1.
        -11    1    3    3    0    0  0.17135889039E+02  0.13180054753E+02  0.24575605293E+02  0.32730916764E+02  0.51100000000E-03 0.  1.
         12    1    3    3    0    0  0.34145496112E+01 -0.11832998356E+02  0.56235540207E+01  0.13538957085E+02  0.00000000000E+00 0. -1.
</event>
<event>
 7    1  0.7674040E-012  0.5930195E+02  0.7816164E-02  0.1266605E+00
        -11   -1    0    0    0    0  0.00000000000E+00  0.00000000000E+00  0.45593999997E+02  0.45594000000E+02  0.51100000000E-03 0.  1.
         11   -1    0    0    0    0 -0.00000000000E+00 -0.00000000000E+00 -0.45593999997E+02  0.45594000000E+02  0.51100000000E-03 0. -1.
    9900012    2    1    2    0    0  0.40746555245E+01  0.20828094963E+02  0.23797227288E+02  0.59301946872E+02  0.50000005188E+02 0.  0.
         12    1    1    2    0    0 -0.40746555245E+01 -0.20828094963E+02 -0.23797227288E+02  0.31886053128E+02  0.00000000000E+00 0. -1.
         11    1    3    3    0    0  0.18355258014E+01 -0.50604394099E+01  0.93882900556E+01  0.10822069692E+02  0.51100000000E-03 0. -1.
        -11    1    3    3    0    0 -0.16885210369E+02  0.20023672948E+02  0.96876119964E+01  0.27926826422E+02  0.51100000000E-03 0.  1.
        -12    1    3    3    0    0  0.19124340092E+02  0.58648614246E+01  0.47213252365E+01  0.20553050758E+02  0.00000000000E+00 0.  1.
</event>
<event>
 7    1  0.7674040E-012  0.5930194E+02  0.7816164E-02  0.1266605E+00
        -11   -1    0    0    0    0  0.00000000000E+00  0.00000000000E+00  0.45593999997E+02  0.45594000000E+02  0.51100000000E-03 0.  1.
         11   -1    0    0    0    0 -0.00000000000E+00 -0.00000000000E+00 -0.45593999997E+02  0.45594000000E+02  0.51100000000E-03 0. -1.
    9900012    2    1    2    0    0 -0.25701051747E+02 -0.18857484364E+02  0.75629212630E+00  0.59301941053E+02  0.49999994574E+02 0.  0.
         12    1    1    2    0    0  0.25701051747E+02  0.18857484364E+02 -0.75629212630E+00  0.31886058947E+02  0.00000000000E+00 0. -1.
         11    1    3    3    0    0  0.43611940318E+00 -0.19779060032E+02 -0.17910200885E+02  0.26686639201E+02  0.51100000000E-03 0. -1.
        -11    1    3    3    0    0 -0.10648046163E+02  0.22336942944E+00  0.43261178336E+01  0.11495480711E+02  0.51100000000E-03 0.  1.
         12    1    3    3    0    0 -0.15489124986E+02  0.69820623864E+00  0.14340375177E+02  0.21119821141E+02  0.00000000000E+00 0. -1.
</event>
<event>
 7    1  0.7674040E-012  0.5930194E+02  0.7816164E-02  0.1266605E+00
        -11   -1    0    0    0    0  0.00000000000E+00  0.00000000000E+00  0.45593999997E+02  0.45594000000E+02  0.51100000000E-03 0.  1.
         11   -1    0    0    0    0 -0.00000000000E+00 -0.00000000000E+00 -0.45593999997E+02  0.45594000000E+02  0.51100000000E-03 0. -1.
    9900012    2    1    2    0    0  0.19552830084E+02  0.21990628483E+02  0.12280874530E+02  0.59301940592E+02  0.49999993734E+02 0.  0.
         12    1    1    2    0    0 -0.19552830084E+02 -0.21990628483E+02 -0.12280874530E+02  0.31886059408E+02  0.00000000000E+00 0. -1.
         11    1    3    3    0    0 -0.51715260339E+01 -0.17071365700E+01  0.38095031411E+01  0.66461501060E+01  0.51100000000E-03 0. -1.
        -11    1    3    3    0    0  0.35388213496E+02  0.20171077737E+02  0.63474367543E+01  0.41224846696E+02  0.51100000000E-03 0.  1.
        -12    1    3    3    0    0 -0.10663857378E+02  0.35266873154E+01  0.21239346349E+01  0.11430943790E+02  0.00000000000E+00 0.  1.
</event>
<event>
 7    1  0.7674040E-012  0.5930193E+02  0.7816164E-02  0.1266605E+00
        -11   -1    0    0    0    0  0.00000000000E+00  0.00000000000E+00  0.45593999997E+02  0.45594000000E+02  0.51100000000E-03 0. -1.
         11   -1    0    0    0    0 -0.00000000000E+00 -0.00000000000E+00 -0.45593999997E+02  0.45594000000E+02  0.51100000000E-03 0.  1.
    9900012    2    1    2    0    0  0.15157456552E+02 -0.97248926333E+01 -0.26313478931E+02  0.59301934089E+02  0.49999981874E+02 0.  0.
         12    1    1    2    0    0 -0.15157456552E+02  0.97248926333E+01  0.26313478931E+02  0.31886065911E+02  0.00000000000E+00 0. -1.
         11    1    3    3    0    0  0.25158050263E+02  0.83680929702E+01 -0.17173496530E+02  0.31589261725E+02  0.51100000000E-03 0. -1.
        -11    1    3    3    0    0  0.39870632390E+01 -0.64945345160E+01 -0.62683512093E+00  0.76464746374E+01  0.51100000000E-03 0.  1.
         12    1    3    3    0    0 -0.13987656950E+02 -0.11598451088E+02 -0.85131472801E+01  0.20066197727E+02  0.00000000000E+00 0. -1.
</event>
<event>
 7    1  0.7674040E-012  0.5930197E+02  0.7816164E-02  0.1266605E+00
        -11   -1    0    0    0    0  0.00000000000E+00  0.00000000000E+00  0.45593999997E+02  0.45594000000E+02  0.51100000000E-03 0. -1.
         11   -1    0    0    0    0 -0.00000000000E+00 -0.00000000000E+00 -0.45593999997E+02  0.45594000000E+02  0.51100000000E-03 0.  1.
    9900012    2    1    2    0    0 -0.22456258794E+02  0.11172701332E+02 -0.19687708402E+02  0.59301973653E+02  0.50000054029E+02 0.  0.
         12    1    1    2    0    0  0.22456258794E+02 -0.11172701332E+02  0.19687708402E+02  0.31886026347E+02  0.00000000000E+00 0. -1.
         11    1    3    3    0    0 -0.48352440345E+01 -0.31529426751E+01  0.14172855480E+02  0.15303282822E+02  0.51100000000E-03 0. -1.
        -11    1    3    3    0    0 -0.33108863240E+01  0.11643547383E+02 -0.86220010542E+01  0.14861798894E+02  0.51100000000E-03 0.  1.
         12    1    3    3    0    0 -0.14310128436E+02  0.26820966239E+01 -0.25238562828E+02  0.29136891938E+02  0.00000000000E+00 0. -1.
</event>
<event>
 7    1  0.7674040E-012  0.5930230E+02  0.7816164E-02  0.1266604E+00
        -11   -1    0    0    0    0  0.00000000000E+00  0.00000000000E+00  0.45593999997E+02  0.45594000000E+02  0.51100000000E-03 0.  1.
         11   -1    0    0    0    0 -0.00000000000E+00 -0.00000000000E+00 -0.45593999997E+02  0.45594000000E+02  0.51100000000E-03 0. -1.
    9900012    2    1    2    0    0  0.61606347110E+01  0.27305600153E+02  0.15269214180E+02  0.59302295971E+02  0.50000641855E+02 0.  0.
         12    1    1    2    0    0 -0.61606347110E+01 -0.27305600153E+02 -0.15269214180E+02  0.31885704029E+02  0.00000000000E+00 0. -1.
         11    1    3    3    0    0 -0.16358108991E+02  0.27534069702E+02  0.10611703141E+02  0.33739012551E+02  0.51100000000E-03 0. -1.
        -11    1    3    3    0    0  0.14589371335E+02  0.41854744355E+01 -0.38222041431E+00  0.15182688988E+02  0.51100000000E-03 0.  1.
         12    1    3    3    0    0  0.79293723676E+01 -0.44139439841E+01  0.50397314534E+01  0.10380594432E+02  0.00000000000E+00 0. -1.
</event>
<event>
 7    1  0.7674040E-012  0.5930194E+02  0.7816164E-02  0.1266605E+00
        -11   -1    0    0    0    0  0.00000000000E+00  0.00000000000E+00  0.45593999997E+02  0.45594000000E+02  0.51100000000E-03 0.  1.
         11   -1    0    0    0    0 -0.00000000000E+00 -0.00000000000E+00 -0.45593999997E+02  0.45594000000E+02  0.51100000000E-03 0. -1.
    9900012    2    1    2    0    0 -0.32100544623E+01  0.21571643939E+02  0.23261144426E+02  0.59301935459E+02  0.49999984373E+02 0.  0.
         12    1    1    2    0    0  0.32100544623E+01 -0.21571643939E+02 -0.23261144426E+02  0.31886064541E+02  0.00000000000E+00 0. -1.
         11    1    3    3    0    0 -0.64667150039E+01 -0.44815253304E+01  0.26916741734E+01  0.83155025311E+01  0.51100000000E-03 0. -1.
        -11    1    3    3    0    0  0.81754096091E+01  0.19855848618E+02  0.31113482909E+02  0.37803979494E+02  0.51100000000E-03 0.  1.
        -12    1    3    3    0    0 -0.49187490675E+01  0.61973206514E+01 -0.10544012656E+02  0.13182453434E+02  0.00000000000E+00 0.  1.
</event>
<event>
 7    1  0.7674040E-012  0.5930192E+02  0.7816164E-02  0.1266605E+00
        -11   -1    0    0    0    0  0.00000000000E+00  0.00000000000E+00  0.45593999997E+02  0.45594000000E+02  0.51100000000E-03 0.  1.
         11   -1    0    0    0    0 -0.00000000000E+00 -0.00000000000E+00 -0.45593999997E+02  0.45594000000E+02  0.51100000000E-03 0. -1.
    9900012    2    1    2    0    0 -0.84327524864E+00  0.30539543177E+02  0.91294731671E+01  0.59301920107E+02  0.49999956375E+02 0.  0.
         12    1    1    2    0    0  0.84327524864E+00 -0.30539543177E+02 -0.91294731671E+01  0.31886079893E+02  0.00000000000E+00 0. -1.
         11    1    3    3    0    0  0.16316539987E+02  0.44243412911E+01 -0.30804149920E+01  0.17184098166E+02  0.51100000000E-03 0. -1.
        -11    1    3    3    0    0 -0.94898624990E+01  0.29415309913E+02  0.54727672802E+01  0.31388996949E+02  0.51100000000E-03 0.  1.
        -12    1    3    3    0    0 -0.76699527363E+01 -0.33001080270E+01  0.67371208790E+01  0.10728824992E+02  0.00000000000E+00 0.  1.
</event>
<event>
 7    1  0.7674040E-012  0.5930203E+02  0.7816164E-02  0.1266604E+00
        -11   -1    0    0    0    0  0.00000000000E+00  0.00000000000E+00  0.45593999997E+02  0.45594000000E+02  0.51100000000E-03 0. -1.
         11   -1    0    0    0    0 -0.00000000000E+00 -0.00000000000E+00 -0.45593999997E+02  0.45594000000E+02  0.51100000000E-03 0.  1.
    9900012    2    1    2    0    0 -0.26689089899E+02 -0.17290257028E+02 -0.23355158873E+01  0.59302029069E+02  0.50000155095E+02 0.  0.
         12    1    1    2    0    0  0.26689089899E+02  0.17290257028E+02  0.23355158873E+01  0.31885970931E+02  0.00000000000E+00 0. -1.
         11    1    3    3    0    0 -0.34479488548E+02 -0.75406350559E+00  0.63544386587E+01  0.35068256774E+02  0.51100000000E-03 0. -1.
        -11    1    3    3    0    0  0.19842572785E+01 -0.15653258933E+02 -0.30090593247E+01  0.16062883628E+02  0.51100000000E-03 0.  1.
         12    1    3    3    0    0  0.58061413700E+01 -0.88293458951E+00 -0.56808952213E+01  0.81708886673E+01  0.00000000000E+00 0. -1.
</event>
<event>
 7    1  0.7674040E-012  0.5930194E+02  0.7816164E-02  0.1266605E+00
        -11   -1    0    0    0    0  0.00000000000E+00  0.00000000000E+00  0.45593999997E+02  0.45594000000E+02  0.51100000000E-03 0. -1.
         11   -1    0    0    0    0 -0.00000000000E+00 -0.00000000000E+00 -0.45593999997E+02  0.45594000000E+02  0.51100000000E-03 0.  1.
    9900012    2    1    2    0    0  0.23514490463E+02 -0.21190850688E+02 -0.38389432470E+01  0.59301938784E+02  0.49999990437E+02 0.  0.
         12    1    1    2    0    0 -0.23514490463E+02  0.21190850688E+02  0.38389432470E+01  0.31886061216E+02  0.00000000000E+00 0. -1.
         11    1    3    3    0    0  0.25617874851E+02  0.23544443942E+01  0.48907202419E+01  0.26186600868E+02  0.51100000000E-03 0. -1.
        -11    1    3    3    0    0  0.52125060704E+01 -0.10095853421E+02  0.51272019949E+01  0.12465339000E+02  0.51100000000E-03 0.  1.
         12    1    3    3    0    0 -0.73158904584E+01 -0.13449441661E+02 -0.13856865484E+02  0.20649998916E+02  0.00000000000E+00 0. -1.
</event>
<event>
 7    1  0.7674040E-012  0.5930194E+02  0.7816164E-02  0.1266605E+00
        -11   -1    0    0    0    0  0.00000000000E+00  0.00000000000E+00  0.45593999997E+02  0.45594000000E+02  0.51100000000E-03 0. -1.
         11   -1    0    0    0    0 -0.00000000000E+00 -0.00000000000E+00 -0.45593999997E+02  0.45594000000E+02  0.51100000000E-03 0.  1.
    9900012    2    1    2    0    0  0.11026121170E+02 -0.12897316988E+02 -0.26996379170E+02  0.59301943144E+02  0.49999998389E+02 0.  0.
         12    1    1    2    0    0 -0.11026121170E+02  0.12897316988E+02  0.26996379170E+02  0.31886056856E+02  0.00000000000E+00 0. -1.
         11    1    3    3    0    0 -0.77073909011E+01 -0.11582861845E+02 -0.22848017479E+02  0.26750672253E+02  0.51100000000E-03 0.  1.
        -11    1    3    3    0    0  0.17809800860E+02  0.10325568302E+02 -0.20599524499E+01  0.20689363736E+02  0.51100000000E-03 0. -1.
         12    1    3    3    0    0  0.92371121095E+00 -0.11640023445E+02 -0.20884092405E+01  0.11861907155E+02  0.00000000000E+00 0. -1.
</event>
<event>
 7    1  0.7674040E-012  0.5930198E+02  0.7816164E-02  0.1266605E+00
        -11   -1    0    0    0    0  0.00000000000E+00  0.00000000000E+00  0.45593999997E+02  0.45594000000E+02  0.51100000000E-03 0.  1.
         11   -1    0    0    0    0 -0.00000000000E+00 -0.00000000000E+00 -0.45593999997E+02  0.45594000000E+02  0.51100000000E-03 0. -1.
    9900012    2    1    2    0    0 -0.15775157139E+02 -0.27705870750E+02  0.49714694451E+00  0.59301984070E+02  0.50000073028E+02 0.  0.
         12    1    1    2    0    0  0.15775157139E+02  0.27705870750E+02 -0.49714694451E+00  0.31886015930E+02  0.00000000000E+00 0. -1.
         11    1    3    3    0    0  0.73760613848E+00  0.61786166016E+01 -0.10579386718E+02  0.12273662432E+02  0.51100000000E-03 0. -1.
        -11    1    3    3    0    0 -0.10295344064E+02 -0.37240635222E+02  0.91915705369E+01  0.39715790189E+02  0.51100000000E-03 0.  1.
        -12    1    3    3    0    0 -0.62174192136E+01  0.33561478704E+01  0.18849631252E+01  0.73125314487E+01  0.00000000000E+00 0.  1.
</event>
<event>
 7    1  0.7674040E-012  0.5930196E+02  0.7816164E-02  0.1266605E+00
        -11   -1    0    0    0    0  0.00000000000E+00  0.00000000000E+00  0.45593999997E+02  0.45594000000E+02  0.51100000000E-03 0.  1.
         11   -1    0    0    0    0 -0.00000000000E+00 -0.00000000000E+00 -0.45593999997E+02  0.45594000000E+02  0.51100000000E-03 0. -1.
    9900012    2    1    2    0    0  0.30335789323E+02 -0.96906653801E+01  0.15969387809E+01  0.59301963514E+02  0.50000035538E+02 0.  0.
         12    1    1    2    0    0 -0.30335789323E+02  0.96906653801E+01 -0.15969387809E+01  0.31886036486E+02  0.00000000000E+00 0. -1.
         11    1    3    3    0    0  0.25601234244E+02 -0.12964284376E+02 -0.12357693642E+02  0.31244334792E+02  0.51100000000E-03 0. -1.
        -11    1    3    3    0    0  0.10501079097E+02 -0.31320957123E+01  0.15814713361E+02  0.19240266232E+02  0.51100000000E-03 0.  1.
        -12    1    3    3    0    0 -0.57665240180E+01  0.64057147082E+01 -0.18600809378E+01  0.88173624893E+01  0.00000000000E+00 0.  1.
</event>
<event>
 7    1  0.7674040E-012  0.5930192E+02  0.7816164E-02  0.1266605E+00
        -11   -1    0    0    0    0  0.00000000000E+00  0.00000000000E+00  0.45593999997E+02  0.45594000000E+02  0.51100000000E-03 0.  1.
         11   -1    0    0    0    0 -0.00000000000E+00 -0.00000000000E+00 -0.45593999997E+02  0.45594000000E+02  0.51100000000E-03 0. -1.
    9900012    2    1    2    0    0  0.16711216146E+02  0.23885677007E+02 -0.12920211808E+02  0.59301918642E+02  0.49999953703E+02 0.  0.
         12    1    1    2    0    0 -0.16711216146E+02 -0.23885677007E+02  0.12920211808E+02  0.31886081358E+02  0.00000000000E+00 0. -1.
         11    1    3    3    0    0  0.20646911849E+02  0.26814680413E+02 -0.86056051958E+01  0.34919600450E+02  0.51100000000E-03 0.  1.
        -11    1    3    3    0    0 -0.95639532991E+01 -0.10709662934E+02 -0.19286605570E+01  0.14487436442E+02  0.51100000000E-03 0. -1.
         12    1    3    3    0    0  0.56282575964E+01  0.77806595281E+01 -0.23859460556E+01  0.98948817498E+01  0.00000000000E+00 0. -1.
</event>
<event>
 7    1  0.7674040E-012  0.5930193E+02  0.7816164E-02  0.1266605E+00
        -11   -1    0    0    0    0  0.00000000000E+00  0.00000000000E+00  0.45593999997E+02  0.45594000000E+02  0.51100000000E-03 0.  1.
         11   -1    0    0    0    0 -0.00000000000E+00 -0.00000000000E+00 -0.45593999997E+02  0.45594000000E+02  0.51100000000E-03 0. -1.
    9900012    2    1    2    0    0 -0.26764083765E+02  0.15644974753E+02  0.74592116852E+01  0.59301933235E+02  0.49999980316E+02 0.  0.
         12    1    1    2    0    0  0.26764083765E+02 -0.15644974753E+02 -0.74592116852E+01  0.31886066765E+02  0.00000000000E+00 0. -1.
         11    1    3    3    0    0 -0.10550420347E+02  0.19551903304E+02 -0.13591188703E+02  0.26044360290E+02  0.51100000000E-03 0. -1.
        -11    1    3    3    0    0  0.64235390033E+00 -0.71512210021E+01  0.11655042787E+02  0.13689141791E+02  0.51100000000E-03 0.  1.
         12    1    3    3    0    0 -0.16856017319E+02  0.32442924517E+01  0.93953576010E+01  0.19568431154E+02  0.00000000000E+00 0. -1.
</event>
<event>
 7    1  0.7674040E-012  0.5930195E+02  0.7816164E-02  0.1266605E+00
        -11   -1    0    0    0    0  0.00000000000E+00  0.00000000000E+00  0.45593999997E+02  0.45594000000E+02  0.51100000000E-03 0. -1.
         11   -1    0    0    0    0 -0.00000000000E+00 -0.00000000000E+00 -0.45593999997E+02  0.45594000000E+02  0.51100000000E-03 0.  1.
    9900012    2    1    2    0    0 -0.25213388183E+02  0.19452102109E+02 -0.16190315633E+01  0.59301945316E+02  0.50000002349E+02 0.  0.
         12    1    1    2    0    0  0.25213388183E+02 -0.19452102109E+02  0.16190315633E+01  0.31886054684E+02  0.00000000000E+00 0. -1.
         11    1    3    3    0    0 -0.86594179728E+01  0.16575991543E+02 -0.12013198001E+02  0.22227594151E+02  0.51100000000E-03 0. -1.
        -11    1    3    3    0    0 -0.25531757180E+02  0.33917077170E+01  0.11116839871E+02  0.28052779451E+02  0.51100000000E-03 0.  1.
         12    1    3    3    0    0  0.89777869697E+01 -0.51559715114E+00 -0.72267343358E+00  0.90215717138E+01  0.00000000000E+00 0. -1.
</event>
<event>
 7    1  0.7674040E-012  0.5930194E+02  0.7816164E-02  0.1266605E+00
        -11   -1    0    0    0    0  0.00000000000E+00  0.00000000000E+00  0.45593999997E+02  0.45594000000E+02  0.51100000000E-03 0.  1.
         11   -1    0    0    0    0 -0.00000000000E+00 -0.00000000000E+00 -0.45593999997E+02  0.45594000000E+02  0.51100000000E-03 0. -1.
    9900012    2    1    2    0    0 -0.19103491744E+02 -0.67083629888E+01  0.24632807507E+02  0.59301941346E+02  0.49999995109E+02 0.  0.
         12    1    1    2    0    0  0.19103491744E+02  0.67083629888E+01 -0.24632807507E+02  0.31886058654E+02  0.00000000000E+00 0. -1.
         11    1    3    3    0    0 -0.15472466520E+02 -0.15231086691E+02 -0.45391566949E+01  0.22180783705E+02  0.51100000000E-03 0. -1.
        -11    1    3    3    0    0 -0.66135701135E+01 -0.65196029336E+00  0.26195202693E+02  0.27025044057E+02  0.51100000000E-03 0.  1.
         12    1    3    3    0    0  0.29825448888E+01  0.91746839954E+01  0.29767615085E+01  0.10096113584E+02  0.00000000000E+00 0. -1.
</event>
<event>
 7    1  0.7674040E-012  0.5930185E+02  0.7816164E-02  0.1266605E+00
        -11   -1    0    0    0    0  0.00000000000E+00  0.00000000000E+00  0.45593999997E+02  0.45594000000E+02  0.51100000000E-03 0.  1.
         11   -1    0    0    0    0 -0.00000000000E+00 -0.00000000000E+00 -0.45593999997E+02  0.45594000000E+02  0.51100000000E-03 0. -1.
    9900012    2    1    2    0    0 -0.21245630550E+02 -0.23642701685E+02 -0.25243747774E+01  0.59301848955E+02  0.49999826610E+02 0.  0.
         12    1    1    2    0    0  0.21245630550E+02  0.23642701685E+02  0.25243747774E+01  0.31886151045E+02  0.00000000000E+00 0. -1.
         11    1    3    3    0    0 -0.75681540660E+01  0.10051768277E+02  0.29081833987E+01  0.12914043999E+02  0.51100000000E-03 0. -1.
        -11    1    3    3    0    0 -0.20755256646E+02 -0.30837622755E+02 -0.85511904132E+01  0.38142660020E+02  0.51100000000E-03 0.  1.
         12    1    3    3    0    0  0.70777801621E+01 -0.28568472078E+01  0.31186322371E+01  0.82451449364E+01  0.00000000000E+00 0. -1.
</event>
<event>
 7    1  0.7674040E-012  0.5930223E+02  0.7816164E-02  0.1266604E+00
        -11   -1    0    0    0    0  0.00000000000E+00  0.00000000000E+00  0.45593999997E+02  0.45594000000E+02  0.51100000000E-03 0. -1.
         11   -1    0    0    0    0 -0.00000000000E+00 -0.00000000000E+00 -0.45593999997E+02  0.45594000000E+02  0.51100000000E-03 0.  1.
    9900012    2    1    2    0    0 -0.62079122942E+01  0.27420728574E+02 -0.15042202664E+02  0.59302229011E+02  0.50000519739E+02 0.  0.
         12    1    1    2    0    0  0.62079122942E+01 -0.27420728574E+02  0.15042202664E+02  0.31885770989E+02  0.00000000000E+00 0. -1.
         11    1    3    3    0    0  0.49572643562E+00 -0.10012452994E+02  0.56112246642E+01  0.11488289783E+02  0.51100000000E-03 0. -1.
        -11    1    3    3    0    0 -0.10076479221E+02  0.30463370834E+02 -0.81473079128E+01  0.33104848928E+02  0.51100000000E-03 0.  1.
        -12    1    3    3    0    0  0.33728404909E+01  0.69698107336E+01 -0.12506119415E+02  0.14709090300E+02  0.00000000000E+00 0.  1.
</event>
<event>
 7    1  0.7674040E-012  0.5930194E+02  0.7816164E-02  0.1266605E+00
        -11   -1    0    0    0    0  0.00000000000E+00  0.00000000000E+00  0.45593999997E+02  0.45594000000E+02  0.51100000000E-03 0.  1.
         11   -1    0    0    0    0 -0.00000000000E+00 -0.00000000000E+00 -0.45593999997E+02  0.45594000000E+02  0.51100000000E-03 0. -1.
    9900012    2    1    2    0    0 -0.11989018607E+02  0.21977571319E+02  0.19747676893E+02  0.59301937984E+02  0.49999988977E+02 0.  0.
         12    1    1    2    0    0  0.11989018607E+02 -0.21977571319E+02 -0.19747676893E+02  0.31886062016E+02  0.00000000000E+00 0. -1.
         11    1    3    3    0    0 -0.84206485395E+01  0.30989057333E+02 -0.86723323053E+00  0.32124462485E+02  0.51100000000E-03 0.  1.
        -11    1    3    3    0    0  0.35804410786E+01 -0.98620224682E+01  0.12837102681E+02  0.16579211410E+02  0.51100000000E-03 0. -1.
        -12    1    3    3    0    0 -0.71488111462E+01  0.85053645368E+00  0.77778074430E+01  0.10598264088E+02  0.00000000000E+00 0.  1.
</event>
<event>
 7    1  0.7674040E-012  0.5930194E+02  0.7816164E-02  0.1266605E+00
        -11   -1    0    0    0    0  0.00000000000E+00  0.00000000000E+00  0.45593999997E+02  0.45594000000E+02  0.51100000000E-03 0. -1.
         11   -1    0    0    0    0 -0.00000000000E+00 -0.00000000000E+00 -0.45593999997E+02  0.45594000000E+02  0.51100000000E-03 0.  1.
    9900012    2    1    2    0    0  0.13692767911E+02  0.27411748310E+02 -0.88218400848E+01  0.59301941903E+02  0.49999996126E+02 0.  0.
         12    1    1    2    0    0 -0.13692767911E+02 -0.27411748310E+02  0.88218400848E+01  0.31886058097E+02  0.00000000000E+00 0. -1.
         11    1    3    3    0    0  0.12513580999E+02 -0.16376461896E+01  0.13430405200E+02  0.18429524643E+02  0.51100000000E-03 0. -1.
        -11    1    3    3    0    0  0.62757800980E+01  0.19647696777E+02 -0.22026343971E+02  0.30175772293E+02  0.51100000000E-03 0.  1.
         12    1    3    3    0    0 -0.50965931862E+01  0.94016977225E+01 -0.22590131361E+00  0.10696644968E+02  0.00000000000E+00 0. -1.
</event>
<event>
 7    1  0.7674040E-012  0.5930193E+02  0.7816164E-02  0.1266605E+00
        -11   -1    0    0    0    0  0.00000000000E+00  0.00000000000E+00  0.45593999997E+02  0.45594000000E+02  0.51100000000E-03 0.  1.
         11   -1    0    0    0    0 -0.00000000000E+00 -0.00000000000E+00 -0.45593999997E+02  0.45594000000E+02  0.51100000000E-03 0. -1.
    9900012    2    1    2    0    0 -0.14220711559E+02 -0.60428249045E+01  0.27892246150E+02  0.59301925212E+02  0.49999965685E+02 0.  0.
         12    1    1    2    0    0  0.14220711559E+02  0.60428249045E+01 -0.27892246150E+02  0.31886074788E+02  0.00000000000E+00 0. -1.
         11    1    3    3    0    0  0.86967247682E+01  0.49007893004E+01  0.38298929924E+01  0.10691998787E+02  0.51100000000E-03 0. -1.
        -11    1    3    3    0    0 -0.14664674205E+02 -0.22291183686E+02  0.21675822161E+02  0.34377184385E+02  0.51100000000E-03 0.  1.
        -12    1    3    3    0    0 -0.82527621228E+01  0.11347569481E+02  0.23865309966E+01  0.14232742040E+02  0.00000000000E+00 0.  1.
</event>
<event>
 7    1  0.7674040E-012  0.5930194E+02  0.7816164E-02  0.1266605E+00
        -11   -1    0    0    0    0  0.00000000000E+00  0.00000000000E+00  0.45593999997E+02  0.45594000000E+02  0.51100000000E-03 0. -1.
         11   -1    0    0    0    0 -0.00000000000E+00 -0.00000000000E+00 -0.45593999997E+02  0.45594000000E+02  0.51100000000E-03 0.  1.
    9900012    2    1    2    0    0 -0.60854860357E+01  0.13731091044E+02 -0.28127296653E+02  0.59301940059E+02  0.49999992762E+02 0.  0.
         12    1    1    2    0    0  0.60854860357E+01 -0.13731091044E+02  0.28127296653E+02  0.31886059941E+02  0.00000000000E+00 0. -1.
         11    1    3    3    0    0  0.33487712950E+01  0.33738604308E+00  0.10624248760E+02  0.11144629222E+02  0.51100000000E-03 0. -1.
        -11    1    3    3    0    0 -0.14609092658E+02  0.11172643091E+02 -0.38325383690E+02  0.42509864469E+02  0.51100000000E-03 0.  1.
         12    1    3    3    0    0  0.51748353270E+01  0.22210619093E+01 -0.42616172366E+00  0.56474463681E+01  0.00000000000E+00 0. -1.
</event>
<event>
 7    1  0.7674040E-012  0.5930194E+02  0.7816164E-02  0.1266605E+00
        -11   -1    0    0    0    0  0.00000000000E+00  0.00000000000E+00  0.45593999997E+02  0.45594000000E+02  0.51100000000E-03 0. -1.
         11   -1    0    0    0    0 -0.00000000000E+00 -0.00000000000E+00 -0.45593999997E+02  0.45594000000E+02  0.51100000000E-03 0.  1.
    9900012    2    1    2    0    0 -0.14812830041E+02 -0.56878912846E+00 -0.28230792088E+02  0.59301936010E+02  0.49999985377E+02 0.  0.
         12    1    1    2    0    0  0.14812830041E+02  0.56878912846E+00  0.28230792088E+02  0.31886063990E+02  0.00000000000E+00 0. -1.
         11    1    3    3    0    0 -0.18705817412E+02  0.15886429301E+02 -0.19004452768E+02  0.31039579029E+02  0.51100000000E-03 0. -1.
        -11    1    3    3    0    0  0.18223873120E+01  0.21753181053E+00  0.55763861658E+01  0.58706471989E+01  0.51100000000E-03 0.  1.
         12    1    3    3    0    0  0.20706000588E+01 -0.16672750240E+02 -0.14802725485E+02  0.22391709782E+02  0.00000000000E+00 0. -1.
</event>
<event>
 7    1  0.7674040E-012  0.5930197E+02  0.7816164E-02  0.1266605E+00
        -11   -1    0    0    0    0  0.00000000000E+00  0.00000000000E+00  0.45593999997E+02  0.45594000000E+02  0.51100000000E-03 0.  1.
         11   -1    0    0    0    0 -0.00000000000E+00 -0.00000000000E+00 -0.45593999997E+02  0.45594000000E+02  0.51100000000E-03 0. -1.
    9900012    2    1    2    0    0  0.57658772234E+01  0.22389196964E+02  0.21959000720E+02  0.59301965542E+02  0.50000039236E+02 0.  0.
         12    1    1    2    0    0 -0.57658772234E+01 -0.22389196964E+02 -0.21959000720E+02  0.31886034458E+02  0.00000000000E+00 0. -1.
         11    1    3    3    0    0  0.57801848144E+01  0.17039031335E+02 -0.10333709406E+02  0.20749088551E+02  0.51100000000E-03 0. -1.
        -11    1    3    3    0    0  0.61753444850E+01 -0.53585142134E+01  0.17161056831E+02  0.19009219497E+02  0.51100000000E-03 0.  1.
         12    1    3    3    0    0 -0.61896520759E+01  0.10708679842E+02  0.15131653295E+02  0.19543657494E+02  0.00000000000E+00 0. -1.
</event>
<event>
 7    1  0.7674040E-012  0.5930192E+02  0.7816164E-02  0.1266605E+00
        -11   -1    0    0    0    0  0.00000000000E+00  0.00000000000E+00  0.45593999997E+02  0.45594000000E+02  0.51100000000E-03 0.  1.
         11   -1    0    0    0    0 -0.00000000000E+00 -0.00000000000E+00 -0.45593999997E+02  0.45594000000E+02  0.51100000000E-03 0. -1.
    9900012    2    1    2    0    0 -0.27410689720E+02  0.13387877308E+02 -0.92812118519E+01  0.59301920542E+02  0.49999957167E+02 0.  0.
         12    1    1    2    0    0  0.27410689720E+02 -0.13387877308E+02  0.92812118519E+01  0.31886079458E+02  0.00000000000E+00 0. -1.
         11    1    3    3    0    0  0.11169824165E+02  0.73659425890E+01  0.22485212028E+01  0.13567532198E+02  0.51100000000E-03 0. -1.
        -11    1    3    3    0    0 -0.24904262526E+02 -0.45092490191E+01 -0.62431330138E+00  0.25316899219E+02  0.51100000000E-03 0.  1.
        -12    1    3    3    0    0 -0.13676251359E+02  0.10531183738E+02 -0.10905419753E+02  0.20417489125E+02  0.00000000000E+00 0.  1.
</event>
<event>
 7    1  0.7674040E-012  0.5930196E+02  0.7816164E-02  0.1266605E+00
        -11   -1    0    0    0    0  0.00000000000E+00  0.00000000000E+00  0.45593999997E+02  0.45594000000E+02  0.51100000000E-03 0.  1.
         11   -1    0    0    0    0 -0.00000000000E+00 -0.00000000000E+00 -0.45593999997E+02  0.45594000000E+02  0.51100000000E-03 0. -1.
    9900012    2    1    2    0    0  0.52802316603E+01 -0.31197826798E+02 -0.39413410869E+01  0.59301962101E+02  0.50000032961E+02 0.  0.
         12    1    1    2    0    0 -0.52802316603E+01  0.31197826798E+02  0.39413410869E+01  0.31886037899E+02  0.00000000000E+00 0. -1.
         11    1    3    3    0    0  0.63770885292E+01  0.68441403864E+01 -0.91801439349E+01  0.13106660851E+02  0.51100000000E-03 0. -1.
        -11    1    3    3    0    0  0.36573528015E+01 -0.40275053777E+02  0.60152325690E+01  0.40885684651E+02  0.51100000000E-03 0.  1.
        -12    1    3    3    0    0 -0.47542096704E+01  0.22330865921E+01 -0.77642972107E+00  0.53096165991E+01  0.00000000000E+00 0.  1.
</event>
<event>
 7    1  0.7674040E-012  0.5930191E+02  0.7816164E-02  0.1266605E+00
        -11   -1    0    0    0    0  0.00000000000E+00  0.00000000000E+00  0.45593999997E+02  0.45594000000E+02  0.51100000000E-03 0. -1.
         11   -1    0    0    0    0 -0.00000000000E+00 -0.00000000000E+00 -0.45593999997E+02  0.45594000000E+02  0.51100000000E-03 0.  1.
    9900012    2    1    2    0    0 -0.31332514201E+02 -0.52594906029E+01 -0.27081060293E+01  0.59301913288E+02  0.49999943938E+02 0.  0.
         12    1    1    2    0    0  0.31332514201E+02  0.52594906029E+01  0.27081060293E+01  0.31886086712E+02  0.00000000000E+00 0. -1.
         11    1    3    3    0    0 -0.16206068890E+02  0.14480378606E+02  0.34649675921E-01  0.21732906715E+02  0.51100000000E-03 0. -1.
        -11    1    3    3    0    0  0.19781269457E+01 -0.11539103364E+02 -0.11735289626E+02  0.16576516990E+02  0.51100000000E-03 0.  1.
        -12    1    3    3    0    0 -0.17104572257E+02 -0.82007658450E+01  0.89925339209E+01  0.20992489582E+02  0.00000000000E+00 0.  1.
</event>
<event>
 7    1  0.7674040E-012  0.5930194E+02  0.7816164E-02  0.1266605E+00
        -11   -1    0    0    0    0  0.00000000000E+00  0.00000000000E+00  0.45593999997E+02  0.45594000000E+02  0.51100000000E-03 0.  1.
         11   -1    0    0    0    0 -0.00000000000E+00 -0.00000000000E+00 -0.45593999997E+02  0.45594000000E+02  0.51100000000E-03 0. -1.
    9900012    2    1    2    0    0  0.22795667198E+02  0.49008446851E+01  0.21749941602E+02  0.59301942211E+02  0.49999996687E+02 0.  0.
         12    1    1    2    0    0 -0.22795667198E+02 -0.49008446851E+01 -0.21749941602E+02  0.31886057789E+02  0.00000000000E+00 0. -1.
         11    1    3    3    0    0 -0.69538522354E+01 -0.69615516181E+01  0.23808858411E+01  0.10123629759E+02  0.51100000000E-03 0.  1.
        -11    1    3    3    0    0  0.21171636031E+02  0.84253186513E+01  0.28295697232E+02  0.36330024067E+02  0.51100000000E-03 0. -1.
         12    1    3    3    0    0  0.85778834032E+01  0.34370776518E+01 -0.89266414719E+01  0.12848288385E+02  0.00000000000E+00 0. -1.
</event>
<event>
 7    1  0.7674040E-012  0.5930193E+02  0.7816164E-02  0.1266605E+00
        -11   -1    0    0    0    0  0.00000000000E+00  0.00000000000E+00  0.45593999997E+02  0.45594000000E+02  0.51100000000E-03 0. -1.
         11   -1    0    0    0    0 -0.00000000000E+00 -0.00000000000E+00 -0.45593999997E+02  0.45594000000E+02  0.51100000000E-03 0.  1.
    9900012    2    1    2    0    0  0.30186820976E+01  0.96744104866E+01 -0.30232681949E+02  0.59301925959E+02  0.49999967048E+02 0.  0.
         12    1    1    2    0    0 -0.30186820976E+01 -0.96744104866E+01  0.30232681949E+02  0.31886074041E+02  0.00000000000E+00 0. -1.
         11    1    3    3    0    0 -0.35604888799E+01  0.13895256783E+02  0.54320314380E+01  0.15338259612E+02  0.51100000000E-03 0. -1.
        -11    1    3    3    0    0  0.21245622073E+01  0.17205901387E+01 -0.36399009562E+02  0.36501535480E+02  0.51100000000E-03 0.  1.
        -12    1    3    3    0    0  0.44546087702E+01 -0.59414364352E+01  0.73429617483E+00  0.74621308673E+01  0.00000000000E+00 0.  1.
</event>
<event>
 7    1  0.7674040E-012  0.5930195E+02  0.7816164E-02  0.1266605E+00
        -11   -1    0    0    0    0  0.00000000000E+00  0.00000000000E+00  0.45593999997E+02  0.45594000000E+02  0.51100000000E-03 0.  1.
         11   -1    0    0    0    0 -0.00000000000E+00 -0.00000000000E+00 -0.45593999997E+02  0.45594000000E+02  0.51100000000E-03 0. -1.
    9900012    2    1    2    0    0  0.23195397435E+02  0.21012771007E+02  0.60956580111E+01  0.59301952046E+02  0.50000014623E+02 0.  0.
         12    1    1    2    0    0 -0.23195397435E+02 -0.21012771007E+02 -0.60956580111E+01  0.31886047954E+02  0.00000000000E+00 0. -1.
         11    1    3    3    0    0 -0.66821154614E+01 -0.15662549453E+01 -0.67581473231E+01  0.96320494753E+01  0.51100000000E-03 0. -1.
        -11    1    3    3    0    0  0.36037960635E+02  0.19049854727E+02  0.97007216807E+01  0.41901498461E+02  0.51100000000E-03 0.  1.
        -12    1    3    3    0    0 -0.61604477393E+01  0.35291712257E+01  0.31530836535E+01  0.77684041099E+01  0.00000000000E+00 0.  1.
</event>
<event>
 7    1  0.7674040E-012  0.5930192E+02  0.7816164E-02  0.1266605E+00
        -11   -1    0    0    0    0  0.00000000000E+00  0.00000000000E+00  0.45593999997E+02  0.45594000000E+02  0.51100000000E-03 0.  1.
         11   -1    0    0    0    0 -0.00000000000E+00 -0.00000000000E+00 -0.45593999997E+02  0.45594000000E+02  0.51100000000E-03 0. -1.
    9900012    2    1    2    0    0 -0.22558046948E+02 -0.17538919911E+02 -0.14150719616E+02  0.59301920602E+02  0.49999957276E+02 0.  0.
         12    1    1    2    0    0  0.22558046948E+02  0.17538919911E+02  0.14150719616E+02  0.31886079398E+02  0.00000000000E+00 0. -1.
         11    1    3    3    0    0  0.78286512115E+00  0.30925802726E+01  0.21690507430E+00  0.31974956783E+01  0.51100000000E-03 0. -1.
        -11    1    3    3    0    0 -0.24504609431E+02 -0.30297452625E+02 -0.26505557487E+00  0.38967701672E+02  0.51100000000E-03 0.  1.
        -12    1    3    3    0    0  0.11636973616E+01  0.96659524410E+01 -0.14102569115E+02  0.17136723251E+02  0.00000000000E+00 0.  1.
</event>
<event>
 7    1  0.7674040E-012  0.5930194E+02  0.7816164E-02  0.1266605E+00
        -11   -1    0    0    0    0  0.00000000000E+00  0.00000000000E+00  0.45593999997E+02  0.45594000000E+02  0.51100000000E-03 0.  1.
         11   -1    0    0    0    0 -0.00000000000E+00 -0.00000000000E+00 -0.45593999997E+02  0.45594000000E+02  0.51100000000E-03 0. -1.
    9900012    2    1    2    0    0  0.17235888365E+02 -0.26228096359E+02 -0.56331337347E+01  0.59301935928E+02  0.49999985227E+02 0.  0.
         12    1    1    2    0    0 -0.17235888365E+02  0.26228096359E+02  0.56331337347E+01  0.31886064072E+02  0.00000000000E+00 0. -1.
         11    1    3    3    0    0  0.16820957512E+02  0.96768523182E+01  0.31248978725E+01  0.19655815154E+02  0.51100000000E-03 0. -1.
        -11    1    3    3    0    0 -0.50347132834E+01 -0.19824405202E+02 -0.97079931047E+01  0.22640682628E+02  0.51100000000E-03 0.  1.
         12    1    3    3    0    0  0.54496441362E+01 -0.16080543475E+02  0.94996149740E+00  0.17005438145E+02  0.00000000000E+00 0. -1.
</event>
<event>
 7    1  0.7674040E-012  0.5930196E+02  0.7816164E-02  0.1266605E+00
        -11   -1    0    0    0    0  0.00000000000E+00  0.00000000000E+00  0.45593999997E+02  0.45594000000E+02  0.51100000000E-03 0. -1.
         11   -1    0    0    0    0 -0.00000000000E+00 -0.00000000000E+00 -0.45593999997E+02  0.45594000000E+02  0.51100000000E-03 0.  1.
    9900012    2    1    2    0    0  0.26108942763E+02 -0.97568126587E+01 -0.15487009441E+02  0.59301956864E+02  0.50000023411E+02 0.  0.
         12    1    1    2    0    0 -0.26108942763E+02  0.97568126587E+01  0.15487009441E+02  0.31886043136E+02  0.00000000000E+00 0. -1.
         11    1    3    3    0    0  0.23925415018E+02  0.41263732703E+01 -0.50773346874E+01  0.24803865988E+02  0.51100000000E-03 0. -1.
        -11    1    3    3    0    0 -0.37429331131E+01 -0.17098223213E+02 -0.17474054561E+02  0.24732597284E+02  0.51100000000E-03 0.  1.
        -12    1    3    3    0    0  0.59264608573E+01  0.32150372842E+01  0.70643798079E+01  0.97654935924E+01  0.00000000000E+00 0.  1.
</event>
<event>
 7    1  0.7674040E-012  0.5930194E+02  0.7816164E-02  0.1266605E+00
        -11   -1    0    0    0    0  0.00000000000E+00  0.00000000000E+00  0.45593999997E+02  0.45594000000E+02  0.51100000000E-03 0.  1.
         11   -1    0    0    0    0 -0.00000000000E+00 -0.00000000000E+00 -0.45593999997E+02  0.45594000000E+02  0.51100000000E-03 0. -1.
    9900012    2    1    2    0    0 -0.76748189276E+01 -0.25698739668E+02  0.17245076096E+02  0.59301941672E+02  0.49999995704E+02 0.  0.
         12    1    1    2    0    0  0.76748189276E+01  0.25698739668E+02 -0.17245076096E+02  0.31886058328E+02  0.00000000000E+00 0. -1.
         11    1    3    3    0    0 -0.20486000497E+02 -0.97445562992E+01 -0.10118464773E+02  0.24839805221E+02  0.51100000000E-03 0. -1.
        -11    1    3    3    0    0  0.10399100770E+02 -0.12056157622E+02  0.23896395416E+02  0.28714629504E+02  0.51100000000E-03 0.  1.
         12    1    3    3    0    0  0.24120807993E+01 -0.38980257476E+01  0.34671454533E+01  0.57475069470E+01  0.00000000000E+00 0. -1.
</event>
<event>
 7    1  0.7674040E-012  0.5930199E+02  0.7816164E-02  0.1266605E+00
        -11   -1    0    0    0    0  0.00000000000E+00  0.00000000000E+00  0.45593999997E+02  0.45594000000E+02  0.51100000000E-03 0.  1.
         11   -1    0    0    0    0 -0.00000000000E+00 -0.00000000000E+00 -0.45593999997E+02  0.45594000000E+02  0.51100000000E-03 0. -1.
    9900012    2    1    2    0    0  0.93152192941E+01  0.47941132963E+01  0.30115792517E+02  0.59301987522E+02  0.50000079324E+02 0.  0.
         12    1    1    2    0    0 -0.93152192941E+01 -0.47941132963E+01 -0.30115792517E+02  0.31886012478E+02  0.00000000000E+00 0. -1.
         11    1    3    3    0    0  0.46169702819E+01  0.20477803155E+02  0.21714306528E+02  0.30202118218E+02  0.51100000000E-03 0. -1.
        -11    1    3    3    0    0 -0.29127353644E+00 -0.81188685098E+01 -0.73318411298E+01  0.10943343217E+02  0.51100000000E-03 0.  1.
        -12    1    3    3    0    0  0.49895225486E+01 -0.75648213491E+01  0.15733327119E+02  0.18156526087E+02  0.00000000000E+00 0.  1.
</event>
<event>
 7    1  0.7674040E-012  0.5930197E+02  0.7816164E-02  0.1266605E+00
        -11   -1    0    0    0    0  0.00000000000E+00  0.00000000000E+00  0.45593999997E+02  0.45594000000E+02  0.51100000000E-03 0.  1.
         11   -1    0    0    0    0 -0.00000000000E+00 -0.00000000000E+00 -0.45593999997E+02  0.45594000000E+02  0.51100000000E-03 0. -1.
    9900012    2    1    2    0    0 -0.26695726122E+02 -0.74891737046E+01  0.15747034595E+02  0.59301974620E+02  0.50000055794E+02 0.  0.
         12    1    1    2    0    0  0.26695726122E+02  0.74891737046E+01 -0.15747034595E+02  0.31886025380E+02  0.00000000000E+00 0. -1.
         11    1    3    3    0    0 -0.62349876502E+01 -0.21947416802E+01 -0.15929035648E+02  0.17246047054E+02  0.51100000000E-03 0. -1.
        -11    1    3    3    0    0 -0.88158596705E+01 -0.82763072464E+01  0.26181672465E+02  0.28839150763E+02  0.51100000000E-03 0.  1.
         12    1    3    3    0    0 -0.11644878801E+02  0.29818752220E+01  0.54943977782E+01  0.13216776804E+02  0.00000000000E+00 0. -1.
</event>
<event>
 7    1  0.7674040E-012  0.5930194E+02  0.7816164E-02  0.1266605E+00
        -11   -1    0    0    0    0  0.00000000000E+00  0.00000000000E+00  0.45593999997E+02  0.45594000000E+02  0.51100000000E-03 0.  1.
         11   -1    0    0    0    0 -0.00000000000E+00 -0.00000000000E+00 -0.45593999997E+02  0.45594000000E+02  0.51100000000E-03 0. -1.
    9900012    2    1    2    0    0  0.92074106015E+01 -0.62755131683E+01  0.29875785846E+02  0.59301936345E+02  0.49999985988E+02 0.  0.
         12    1    1    2    0    0 -0.92074106015E+01  0.62755131683E+01 -0.29875785846E+02  0.31886063655E+02  0.00000000000E+00 0. -1.
         11    1    3    3    0    0  0.24925576732E+01  0.20513026514E+02  0.14862773838E+02  0.25453863105E+02  0.51100000000E-03 0.  1.
        -11    1    3    3    0    0  0.54555325898E+01 -0.17978101279E+02  0.16278094675E+02  0.24858626832E+02  0.51100000000E-03 0. -1.
        -12    1    3    3    0    0  0.12593203385E+01 -0.88104384035E+01 -0.12650826669E+01  0.89894464085E+01  0.00000000000E+00 0.  1.
</event>
<event>
 7    1  0.7674040E-012  0.5930194E+02  0.7816164E-02  0.1266605E+00
        -11   -1    0    0    0    0  0.00000000000E+00  0.00000000000E+00  0.45593999997E+02  0.45594000000E+02  0.51100000000E-03 0.  1.
         11   -1    0    0    0    0 -0.00000000000E+00 -0.00000000000E+00 -0.45593999997E+02  0.45594000000E+02  0.51100000000E-03 0. -1.
    9900012    2    1    2    0    0  0.11114225014E+02  0.18628068033E+02  0.23370708740E+02  0.59301938103E+02  0.49999989194E+02 0.  0.
         12    1    1    2    0    0 -0.11114225014E+02 -0.18628068033E+02 -0.23370708740E+02  0.31886061897E+02  0.00000000000E+00 0. -1.
         11    1    3    3    0    0 -0.15463851317E+02  0.13216119711E+02 -0.40387795610E+01  0.20739051530E+02  0.51100000000E-03 0. -1.
        -11    1    3    3    0    0  0.97025867304E+01  0.21091523680E+01  0.98671374573E+01  0.13998182555E+02  0.51100000000E-03 0.  1.
         12    1    3    3    0    0  0.16875489601E+02  0.33027959538E+01  0.17542350844E+02  0.24564704018E+02  0.00000000000E+00 0. -1.
</event>
<event>
 7    1  0.7674040E-012  0.5930196E+02  0.7816164E-02  0.1266605E+00
        -11   -1    0    0    0    0  0.00000000000E+00  0.00000000000E+00  0.45593999997E+02  0.45594000000E+02  0.51100000000E-03 0.  1.
         11   -1    0    0    0    0 -0.00000000000E+00 -0.00000000000E+00 -0.45593999997E+02  0.45594000000E+02  0.51100000000E-03 0. -1.
    9900012    2    1    2    0    0  0.28446177470E+02 -0.66692353605E+01  0.12769333074E+02  0.59301959479E+02  0.50000028180E+02 0.  0.
         12    1    1    2    0    0 -0.28446177470E+02  0.66692353605E+01 -0.12769333074E+02  0.31886040521E+02  0.00000000000E+00 0. -1.
         11    1    3    3    0    0 -0.30066045259E+01 -0.18630804735E+01  0.23100819435E+02  0.23370036339E+02  0.51100000000E-03 0. -1.
        -11    1    3    3    0    0  0.87316383546E+01  0.36637710041E+01 -0.62409439140E+01  0.11340815999E+02  0.51100000000E-03 0.  1.
         12    1    3    3    0    0  0.22721143641E+02 -0.84699258911E+01 -0.40905424474E+01  0.24591107142E+02  0.00000000000E+00 0. -1.
</event>
<event>
 7    1  0.7674040E-012  0.5930195E+02  0.7816164E-02  0.1266605E+00
        -11   -1    0    0    0    0  0.00000000000E+00  0.00000000000E+00  0.45593999997E+02  0.45594000000E+02  0.51100000000E-03 0. -1.
         11   -1    0    0    0    0 -0.00000000000E+00 -0.00000000000E+00 -0.45593999997E+02  0.45594000000E+02  0.51100000000E-03 0.  1.
    9900012    2    1    2    0    0 -0.16776612015E+02  0.67304393678E+00 -0.27107429904E+02  0.59301945762E+02  0.50000003164E+02 0.  0.
         12    1    1    2    0    0  0.16776612015E+02 -0.67304393678E+00  0.27107429904E+02  0.31886054238E+02  0.00000000000E+00 0. -1.
         11    1    3    3    0    0 -0.11199736567E+02 -0.17629776645E+02 -0.81366256174E+01  0.22415347430E+02  0.51100000000E-03 0. -1.
        -11    1    3    3    0    0 -0.35209007150E+01  0.14869013751E+02 -0.25206922989E+02  0.29476656503E+02  0.51100000000E-03 0.  1.
        -12    1    3    3    0    0 -0.20559747335E+01  0.34338068302E+01  0.62361187019E+01  0.74099418294E+01  0.00000000000E+00 0.  1.
</event>
<event>
 7    1  0.7674040E-012  0.5930194E+02  0.7816164E-02  0.1266605E+00
        -11   -1    0    0    0    0  0.00000000000E+00  0.00000000000E+00  0.45593999997E+02  0.45594000000E+02  0.51100000000E-03 0.  1.
         11   -1    0    0    0    0 -0.00000000000E+00 -0.00000000000E+00 -0.45593999997E+02  0.45594000000E+02  0.51100000000E-03 0. -1.
    9900012    2    1    2    0    0  0.47230880858E+01  0.16753823342E+02  0.26715592823E+02  0.59301936312E+02  0.49999985928E+02 0.  0.
         12    1    1    2    0    0 -0.47230880858E+01 -0.16753823342E+02 -0.26715592823E+02  0.31886063688E+02  0.00000000000E+00 0. -1.
         11    1    3    3    0    0 -0.66753344151E+01  0.34531770999E+01  0.18855915471E+02  0.20298523842E+02  0.51100000000E-03 0. -1.
        -11    1    3    3    0    0  0.16479147198E+02  0.22041486030E+02  0.27003397162E+01  0.27652870260E+02  0.51100000000E-03 0.  1.
        -12    1    3    3    0    0 -0.50807246968E+01 -0.87408397872E+01  0.51593376352E+01  0.11350542210E+02  0.00000000000E+00 0.  1.
</event>
<event>
 7    1  0.7674040E-012  0.5930201E+02  0.7816164E-02  0.1266605E+00
        -11   -1    0    0    0    0  0.00000000000E+00  0.00000000000E+00  0.45593999997E+02  0.45594000000E+02  0.51100000000E-03 0. -1.
         11   -1    0    0    0    0 -0.00000000000E+00 -0.00000000000E+00 -0.45593999997E+02  0.45594000000E+02  0.51100000000E-03 0.  1.
    9900012    2    1    2    0    0 -0.14785546069E+02 -0.19698790516E+02 -0.20249980331E+02  0.59302008974E+02  0.50000118446E+02 0.  0.
         12    1    1    2    0    0  0.14785546069E+02  0.19698790516E+02  0.20249980331E+02  0.31885991026E+02  0.00000000000E+00 0. -1.
         11    1    3    3    0    0 -0.25680819751E+02 -0.73732141769E+01  0.22758920354E+01  0.26815079250E+02  0.51100000000E-03 0. -1.
        -11    1    3    3    0    0  0.27847653111E+00 -0.11720570622E+02 -0.69560228217E+01  0.13632152384E+02  0.51100000000E-03 0.  1.
         12    1    3    3    0    0  0.10616797151E+02 -0.60500571711E+00 -0.15569849545E+02  0.18854777339E+02  0.00000000000E+00 0. -1.
</event>
<event>
 7    1  0.7674040E-012  0.5930194E+02  0.7816164E-02  0.1266605E+00
        -11   -1    0    0    0    0  0.00000000000E+00  0.00000000000E+00  0.45593999997E+02  0.45594000000E+02  0.51100000000E-03 0.  1.
         11   -1    0    0    0    0 -0.00000000000E+00 -0.00000000000E+00 -0.45593999997E+02  0.45594000000E+02  0.51100000000E-03 0. -1.
    9900012    2    1    2    0    0 -0.27153464317E+02 -0.13405879866E+02  0.99846022325E+01  0.59301944723E+02  0.50000001267E+02 0.  0.
         12    1    1    2    0    0  0.27153464317E+02  0.13405879866E+02 -0.99846022325E+01  0.31886055277E+02  0.00000000000E+00 0. -1.
         11    1    3    3    0    0  0.64399591224E+01 -0.19446109492E+02 -0.60213073462E+00  0.20493579715E+02  0.51100000000E-03 0. -1.
        -11    1    3    3    0    0 -0.28988788927E+00  0.32541476178E+01 -0.10324066265E+01  0.34262771941E+01  0.51100000000E-03 0.  1.
         12    1    3    3    0    0 -0.33303535551E+02  0.27860820084E+01  0.11619139594E+02  0.35382087813E+02  0.00000000000E+00 0. -1.
</event>
<event>
 7    1  0.7674040E-012  0.5930193E+02  0.7816164E-02  0.1266605E+00
        -11   -1    0    0    0    0  0.00000000000E+00  0.00000000000E+00  0.45593999997E+02  0.45594000000E+02  0.51100000000E-03 0.  1.
         11   -1    0    0    0    0 -0.00000000000E+00 -0.00000000000E+00 -0.45593999997E+02  0.45594000000E+02  0.51100000000E-03 0. -1.
    9900012    2    1    2    0    0  0.35903064864E+01 -0.13383251832E+01  0.31655019187E+02  0.59301926948E+02  0.49999968851E+02 0.  0.
         12    1    1    2    0    0 -0.35903064864E+01  0.13383251832E+01 -0.31655019187E+02  0.31886073052E+02  0.00000000000E+00 0. -1.
         11    1    3    3    0    0 -0.18987352007E+01  0.91670299333E+01 -0.50001925130E+01  0.10613272756E+02  0.51100000000E-03 0. -1.
        -11    1    3    3    0    0  0.13873556815E+02  0.25934552953E+01  0.26763554580E+02  0.30257056088E+02  0.51100000000E-03 0.  1.
         12    1    3    3    0    0 -0.83845151278E+01 -0.13098810412E+02  0.98916571194E+01  0.18431598105E+02  0.00000000000E+00 0. -1.
</event>
<event>
 7    1  0.7674040E-012  0.5930195E+02  0.7816164E-02  0.1266605E+00
        -11   -1    0    0    0    0  0.00000000000E+00  0.00000000000E+00  0.45593999997E+02  0.45594000000E+02  0.51100000000E-03 0.  1.
         11   -1    0    0    0    0 -0.00000000000E+00 -0.00000000000E+00 -0.45593999997E+02  0.45594000000E+02  0.51100000000E-03 0. -1.
    9900012    2    1    2    0    0  0.81775320090E+01 -0.15489504254E+02  0.26644384308E+02  0.59301953100E+02  0.50000016545E+02 0.  0.
         12    1    1    2    0    0 -0.81775320090E+01  0.15489504254E+02 -0.26644384308E+02  0.31886046900E+02  0.00000000000E+00 0. -1.
         11    1    3    3    0    0  0.17328162250E+02 -0.11789450956E+02  0.21369057088E+02  0.29931471095E+02  0.51100000000E-03 0. -1.
        -11    1    3    3    0    0 -0.13658994616E+02  0.72652624103E+01  0.76811882386E+01  0.17272892776E+02  0.51100000000E-03 0.  1.
         12    1    3    3    0    0  0.45083643749E+01 -0.10965315708E+02 -0.24058610186E+01  0.12097589229E+02  0.00000000000E+00 0. -1.
</event>
<event>
 7    1  0.7674040E-012  0.5930193E+02  0.7816164E-02  0.1266605E+00
        -11   -1    0    0    0    0  0.00000000000E+00  0.00000000000E+00  0.45593999997E+02  0.45594000000E+02  0.51100000000E-03 0. -1.
         11   -1    0    0    0    0 -0.00000000000E+00 -0.00000000000E+00 -0.45593999997E+02  0.45594000000E+02  0.51100000000E-03 0.  1.
    9900012    2    1    2    0    0  0.27896361498E+02  0.10701280554E+02 -0.11135392765E+02  0.59301931532E+02  0.49999977211E+02 0.  0.
         12    1    1    2    0    0 -0.27896361498E+02 -0.10701280554E+02  0.11135392765E+02  0.31886068468E+02  0.00000000000E+00 0. -1.
         11    1    3    3    0    0 -0.74317916375E+01 -0.15406751631E+01  0.29926495427E+01  0.81585022185E+01  0.51100000000E-03 0. -1.
        -11    1    3    3    0    0  0.16885455290E+02  0.22001243912E+02 -0.11829732712E+02  0.30151549053E+02  0.51100000000E-03 0.  1.
        -12    1    3    3    0    0  0.18442697845E+02 -0.97592881944E+01 -0.22983095954E+01  0.20991880260E+02  0.00000000000E+00 0.  1.
</event>
<event>
 7    1  0.7674040E-012  0.5930193E+02  0.7816164E-02  0.1266605E+00
        -11   -1    0    0    0    0  0.00000000000E+00  0.00000000000E+00  0.45593999997E+02  0.45594000000E+02  0.51100000000E-03 0.  1.
         11   -1    0    0    0    0 -0.00000000000E+00 -0.00000000000E+00 -0.45593999997E+02  0.45594000000E+02  0.51100000000E-03 0. -1.
    9900012    2    1    2    0    0  0.33082289624E+01 -0.25469306309E+02  0.18896860528E+02  0.59301932815E+02  0.49999979551E+02 0.  0.
         12    1    1    2    0    0 -0.33082289624E+01  0.25469306309E+02 -0.18896860528E+02  0.31886067185E+02  0.00000000000E+00 0. -1.
         11    1    3    3    0    0  0.20504944685E+02 -0.84876006717E+01 -0.72595327028E+01  0.23349366952E+02  0.51100000000E-03 0. -1.
        -11    1    3    3    0    0 -0.32313308739E+01 -0.31767764829E+01  0.80723962230E+01  0.92572668257E+01  0.51100000000E-03 0.  1.
         12    1    3    3    0    0 -0.13965384849E+02 -0.13804929154E+02  0.18083997008E+02  0.26695299038E+02  0.00000000000E+00 0. -1.
</event>
<event>
 7    1  0.7674040E-012  0.5930192E+02  0.7816164E-02  0.1266605E+00
        -11   -1    0    0    0    0  0.00000000000E+00  0.00000000000E+00  0.45593999997E+02  0.45594000000E+02  0.51100000000E-03 0.  1.
         11   -1    0    0    0    0 -0.00000000000E+00 -0.00000000000E+00 -0.45593999997E+02  0.45594000000E+02  0.51100000000E-03 0. -1.
    9900012    2    1    2    0    0 -0.21979576295E+02 -0.22568817767E+02  0.49263076899E+01  0.59301924404E+02  0.49999964210E+02 0.  0.
         12    1    1    2    0    0  0.21979576295E+02  0.22568817767E+02 -0.49263076899E+01  0.31886075596E+02  0.00000000000E+00 0. -1.
         11    1    3    3    0    0 -0.82721970730E+00 -0.25949207965E+02 -0.48874899094E+01  0.26418426228E+02  0.51100000000E-03 0. -1.
        -11    1    3    3    0    0 -0.22764116014E+02 -0.37051699245E+01  0.36415935088E+01  0.23349399684E+02  0.51100000000E-03 0.  1.
         12    1    3    3    0    0  0.16117594266E+01  0.70855601234E+01  0.61722040904E+01  0.95340984915E+01  0.00000000000E+00 0. -1.
</event>
<event>
 7    1  0.7674040E-012  0.5930195E+02  0.7816164E-02  0.1266605E+00
        -11   -1    0    0    0    0  0.00000000000E+00  0.00000000000E+00  0.45593999997E+02  0.45594000000E+02  0.51100000000E-03 0. -1.
         11   -1    0    0    0    0 -0.00000000000E+00 -0.00000000000E+00 -0.45593999997E+02  0.45594000000E+02  0.51100000000E-03 0.  1.
    9900012    2    1    2    0    0  0.68756604199E+01  0.10261770876E+01 -0.31119000973E+02  0.59301953409E+02  0.50000017110E+02 0.  0.
         12    1    1    2    0    0 -0.68756604199E+01 -0.10261770876E+01  0.31119000973E+02  0.31886046591E+02  0.00000000000E+00 0. -1.
         11    1    3    3    0    0 -0.15864787378E+02 -0.64710321904E+01  0.20627785795E+01  0.17257485097E+02  0.51100000000E-03 0. -1.
        -11    1    3    3    0    0  0.22159272107E+01  0.43067582533E+01 -0.85256575665E+01  0.98053728771E+01  0.51100000000E-03 0.  1.
         12    1    3    3    0    0  0.20524520587E+02  0.31904510248E+01 -0.24656121986E+02  0.32239095435E+02  0.00000000000E+00 0. -1.
</event>
<event>
 7    1  0.7674040E-012  0.5930195E+02  0.7816164E-02  0.1266605E+00
        -11   -1    0    0    0    0  0.00000000000E+00  0.00000000000E+00  0.45593999997E+02  0.45594000000E+02  0.51100000000E-03 0.  1.
         11   -1    0    0    0    0 -0.00000000000E+00 -0.00000000000E+00 -0.45593999997E+02  0.45594000000E+02  0.51100000000E-03 0. -1.
    9900012    2    1    2    0    0  0.88121492133E+00 -0.91207641809E+01  0.30541041303E+02  0.59301951596E+02  0.50000013802E+02 0.  0.
         12    1    1    2    0    0 -0.88121492133E+00  0.91207641809E+01 -0.30541041303E+02  0.31886048404E+02  0.00000000000E+00 0. -1.
         11    1    3    3    0    0  0.86455247465E+01  0.92551420299E+01 -0.24408439841E+01  0.12898080158E+02  0.51100000000E-03 0. -1.
        -11    1    3    3    0    0  0.57134550432E+01 -0.15845820303E+02  0.98507922900E+01  0.19513372302E+02  0.51100000000E-03 0.  1.
         12    1    3    3    0    0 -0.13477764868E+02 -0.25300859082E+01  0.23131092997E+02  0.26890499136E+02  0.00000000000E+00 0. -1.
</event>
<event>
 7    1  0.7674040E-012  0.5930191E+02  0.7816164E-02  0.1266605E+00
        -11   -1    0    0    0    0  0.00000000000E+00  0.00000000000E+00  0.45593999997E+02  0.45594000000E+02  0.51100000000E-03 0.  1.
         11   -1    0    0    0    0 -0.00000000000E+00 -0.00000000000E+00 -0.45593999997E+02  0.45594000000E+02  0.51100000000E-03 0. -1.
    9900012    2    1    2    0    0  0.18936130260E+01  0.30760170121E+02  0.81822277897E+01  0.59301910748E+02  0.49999939306E+02 0.  0.
         12    1    1    2    0    0 -0.18936130260E+01 -0.30760170121E+02 -0.81822277897E+01  0.31886089252E+02  0.00000000000E+00 0. -1.
         11    1    3    3    0    0 -0.82094989437E+01 -0.20499208737E+01 -0.13997554251E+02  0.16356331305E+02  0.51100000000E-03 0. -1.
        -11    1    3    3    0    0 -0.97942301211E+00  0.10649699004E+02  0.17602675555E+01  0.10838537745E+02  0.51100000000E-03 0.  1.
         12    1    3    3    0    0  0.11082534982E+02  0.22160391990E+02  0.20419514485E+02  0.32107041698E+02  0.00000000000E+00 0. -1.
</event>
<event>
 7    1  0.7674040E-012  0.5930210E+02  0.7816164E-02  0.1266604E+00
        -11   -1    0    0    0    0  0.00000000000E+00  0.00000000000E+00  0.45593999997E+02  0.45594000000E+02  0.51100000000E-03 0. -1.
         11   -1    0    0    0    0 -0.00000000000E+00 -0.00000000000E+00 -0.45593999997E+02  0.45594000000E+02  0.51100000000E-03 0.  1.
    9900012    2    1    2    0    0 -0.22216408315E+02  0.22674431576E+02 -0.30020280218E+01  0.59302096877E+02  0.50000278760E+02 0.  0.
         12    1    1    2    0    0  0.22216408315E+02 -0.22674431576E+02  0.30020280218E+01  0.31885903123E+02  0.00000000000E+00 0. -1.
         11    1    3    3    0    0 -0.12538297200E+02  0.10363078754E+02  0.11745741894E+02  0.20064016319E+02  0.51100000000E-03 0. -1.
        -11    1    3    3    0    0  0.28529274443E+01 -0.97377311870E+01 -0.52411927761E+00  0.10160576015E+02  0.51100000000E-03 0.  1.
        -12    1    3    3    0    0 -0.12531038560E+02  0.22049084009E+02 -0.14223650638E+02  0.29077504544E+02  0.00000000000E+00 0.  1.
</event>
<event>
 7    1  0.7674040E-012  0.5930194E+02  0.7816164E-02  0.1266605E+00
        -11   -1    0    0    0    0  0.00000000000E+00  0.00000000000E+00  0.45593999997E+02  0.45594000000E+02  0.51100000000E-03 0. -1.
         11   -1    0    0    0    0 -0.00000000000E+00 -0.00000000000E+00 -0.45593999997E+02  0.45594000000E+02  0.51100000000E-03 0.  1.
    9900012    2    1    2    0    0 -0.39427320098E+01  0.29283867014E+02 -0.11984609519E+02  0.59301939279E+02  0.49999991340E+02 0.  0.
         12    1    1    2    0    0  0.39427320098E+01 -0.29283867014E+02  0.11984609519E+02  0.31886060721E+02  0.00000000000E+00 0. -1.
         11    1    3    3    0    0  0.15057088682E+02  0.36869942490E+01 -0.26395422403E+01  0.15725044664E+02  0.51100000000E-03 0. -1.
        -11    1    3    3    0    0 -0.22325702749E+02  0.88871654623E+01 -0.11061306670E+02  0.26453189197E+02  0.51100000000E-03 0.  1.
        -12    1    3    3    0    0  0.33258820569E+01  0.16709707303E+02  0.17162393921E+01  0.17123705418E+02  0.00000000000E+00 0.  1.
</event>
<event>
 7    1  0.7674040E-012  0.5930195E+02  0.7816164E-02  0.1266605E+00
        -11   -1    0    0    0    0  0.00000000000E+00  0.00000000000E+00  0.45593999997E+02  0.45594000000E+02  0.51100000000E-03 0. -1.
         11   -1    0    0    0    0 -0.00000000000E+00 -0.00000000000E+00 -0.45593999997E+02  0.45594000000E+02  0.51100000000E-03 0.  1.
    9900012    2    1    2    0    0 -0.16783934015E+02  0.26366156688E+02 -0.63123446669E+01  0.59301947332E+02  0.50000006027E+02 0.  0.
         12    1    1    2    0    0  0.16783934015E+02 -0.26366156688E+02  0.63123446669E+01  0.31886052668E+02  0.00000000000E+00 0. -1.
         11    1    3    3    0    0  0.12286121297E+02 -0.27528634374E+01  0.59603223697E+01  0.13930271951E+02  0.51100000000E-03 0. -1.
        -11    1    3    3    0    0 -0.11399616555E+02  0.21585934839E+02 -0.80465232801E+01  0.25703119998E+02  0.51100000000E-03 0.  1.
        -12    1    3    3    0    0 -0.17670438757E+02  0.75330852862E+01 -0.42261437565E+01  0.19668555383E+02  0.00000000000E+00 0.  1.
</event>
<event>
 7    1  0.7674040E-012  0.5930194E+02  0.7816164E-02  0.1266605E+00
        -11   -1    0    0    0    0  0.00000000000E+00  0.00000000000E+00  0.45593999997E+02  0.45594000000E+02  0.51100000000E-03 0. -1.
         11   -1    0    0    0    0 -0.00000000000E+00 -0.00000000000E+00 -0.45593999997E+02  0.45594000000E+02  0.51100000000E-03 0.  1.
    9900012    2    1    2    0    0 -0.21983783042E+02 -0.19936145653E+02 -0.11661222372E+02  0.59301941486E+02  0.49999995364E+02 0.  0.
         12    1    1    2    0    0  0.21983783042E+02  0.19936145653E+02  0.11661222372E+02  0.31886058514E+02  0.00000000000E+00 0. -1.
         11    1    3    3    0    0  0.53695622997E+01 -0.90389698070E+01  0.93773832287E+01  0.14087955527E+02  0.51100000000E-03 0. -1.
        -11    1    3    3    0    0 -0.24318516834E+02 -0.18942618231E+02 -0.19508651279E+02  0.36480138726E+02  0.51100000000E-03 0.  1.
        -12    1    3    3    0    0 -0.30348285078E+01  0.80454423857E+01 -0.15299543223E+01  0.87338472325E+01  0.00000000000E+00 0.  1.
</event>
<event>
 7    1  0.7674040E-012  0.5930202E+02  0.7816164E-02  0.1266604E+00
        -11   -1    0    0    0    0  0.00000000000E+00  0.00000000000E+00  0.45593999997E+02  0.45594000000E+02  0.51100000000E-03 0. -1.
         11   -1    0    0    0    0 -0.00000000000E+00 -0.00000000000E+00 -0.45593999997E+02  0.45594000000E+02  0.51100000000E-03 0.  1.
    9900012    2    1    2    0    0 -0.24537372901E+02  0.14899838265E+02 -0.13879043971E+02  0.59302020154E+02  0.50000138835E+02 0.  0.
         12    1    1    2    0    0  0.24537372901E+02 -0.14899838265E+02  0.13879043971E+02  0.31885979846E+02  0.00000000000E+00 0. -1.
         11    1    3    3    0    0  0.10952286844E+02  0.80598527919E+01 -0.49834654258E+01  0.14482704929E+02  0.51100000000E-03 0. -1.
        -11    1    3    3    0    0 -0.33589234701E+02  0.71361273123E+00 -0.14220769023E+02  0.36482546550E+02  0.51100000000E-03 0.  1.
         12    1    3    3    0    0 -0.19004250438E+01  0.61263727416E+01  0.53251904773E+01  0.83367686747E+01  0.00000000000E+00 0. -1.
</event>
<event>
 7    1  0.7674040E-012  0.5930193E+02  0.7816164E-02  0.1266605E+00
        -11   -1    0    0    0    0  0.00000000000E+00  0.00000000000E+00  0.45593999997E+02  0.45594000000E+02  0.51100000000E-03 0.  1.
         11   -1    0    0    0    0 -0.00000000000E+00 -0.00000000000E+00 -0.45593999997E+02  0.45594000000E+02  0.51100000000E-03 0. -1.
    9900012    2    1    2    0    0  0.25373851501E+02 -0.14483161169E+02 -0.12772132601E+02  0.59301926730E+02  0.49999968453E+02 0.  0.
         12    1    1    2    0    0 -0.25373851501E+02  0.14483161169E+02  0.12772132601E+02  0.31886073270E+02  0.00000000000E+00 0. -1.
         11    1    3    3    0    0 -0.38847699431E+01 -0.11891872500E+02 -0.22435915422E+02  0.25688097831E+02  0.51100000000E-03 0. -1.
        -11    1    3    3    0    0  0.13686043613E+02  0.49384505685E+01  0.68776556960E+01  0.16093422008E+02  0.51100000000E-03 0.  1.
        -12    1    3    3    0    0  0.15572577831E+02 -0.75297392368E+01  0.27861271254E+01  0.17520406891E+02  0.00000000000E+00 0.  1.
</event>
<event>
 7    1  0.7674040E-012  0.5930194E+02  0.7816164E-02  0.1266605E+00
        -11   -1    0    0    0    0  0.00000000000E+00  0.00000000000E+00  0.45593999997E+02  0.45594000000E+02  0.51100000000E-03 0.  1.
         11   -1    0    0    0    0 -0.00000000000E+00 -0.00000000000E+00 -0.45593999997E+02  0.45594000000E+02  0.51100000000E-03 0. -1.
    9900012    2    1    2    0    0 -0.45819660348E+01  0.85574676824E+01  0.30372622742E+02  0.59301939125E+02  0.49999991059E+02 0.  0.
         12    1    1    2    0    0  0.45819660348E+01 -0.85574676824E+01 -0.30372622742E+02  0.31886060875E+02  0.00000000000E+00 0. -1.
         11    1    3    3    0    0 -0.16084027483E+01  0.27177940841E+02  0.24064524737E+02  0.36336328637E+02  0.51100000000E-03 0. -1.
        -11    1    3    3    0    0 -0.39749961667E+01 -0.17496592693E+02  0.88538945888E+01  0.20008068373E+02  0.51100000000E-03 0.  1.
        -12    1    3    3    0    0  0.10014328802E+01 -0.11238804660E+01 -0.25457965836E+01  0.29575421147E+01  0.00000000000E+00 0.  1.
</event>
<event>
 7    1  0.7674040E-012  0.5930195E+02  0.7816164E-02  0.1266605E+00
        -11   -1    0    0    0    0  0.00000000000E+00  0.00000000000E+00  0.45593999997E+02  0.45594000000E+02  0.51100000000E-03 0.  1.
         11   -1    0    0    0    0 -0.00000000000E+00 -0.00000000000E+00 -0.45593999997E+02  0.45594000000E+02  0.51100000000E-03 0. -1.
    9900012    2    1    2    0    0 -0.71900446441E+00 -0.18703890660E+02  0.25814104829E+02  0.59301945033E+02  0.50000001833E+02 0.  0.
         12    1    1    2    0    0  0.71900446441E+00  0.18703890660E+02 -0.25814104829E+02  0.31886054967E+02  0.00000000000E+00 0. -1.
         11    1    3    3    0    0 -0.19519327896E+02 -0.12164610377E+02 -0.24802331048E+01  0.23132951901E+02  0.51100000000E-03 0. -1.
        -11    1    3    3    0    0  0.23220242711E+01  0.62439800153E-01  0.11499131479E+02  0.11731398914E+02  0.51100000000E-03 0.  1.
         12    1    3    3    0    0  0.16478299161E+02 -0.66017200832E+01  0.16795206455E+02  0.24437594218E+02  0.00000000000E+00 0. -1.
</event>
<event>
 7    1  0.7674040E-012  0.5930198E+02  0.7816164E-02  0.1266605E+00
        -11   -1    0    0    0    0  0.00000000000E+00  0.00000000000E+00  0.45593999997E+02  0.45594000000E+02  0.51100000000E-03 0. -1.
         11   -1    0    0    0    0 -0.00000000000E+00 -0.00000000000E+00 -0.45593999997E+02  0.45594000000E+02  0.51100000000E-03 0.  1.
    9900012    2    1    2    0    0 -0.15825834751E+02 -0.24358272065E+02  0.13150508146E+02  0.59301979112E+02  0.50000063985E+02 0.  0.
         12    1    1    2    0    0  0.15825834751E+02  0.24358272065E+02 -0.13150508146E+02  0.31886020888E+02  0.00000000000E+00 0. -1.
         11    1    3    3    0    0 -0.10662788756E+02 -0.71011166802E+01  0.41530455856E+01  0.13467320077E+02  0.51100000000E-03 0. -1.
        -11    1    3    3    0    0 -0.13968373466E+01 -0.16186181601E+02 -0.14643400401E+02  0.21871735298E+02  0.51100000000E-03 0.  1.
        -12    1    3    3    0    0 -0.37662086481E+01 -0.10709737846E+01  0.23640862962E+02  0.23962923737E+02  0.00000000000E+00 0.  1.
</event>
<event>
 7    1  0.7674040E-012  0.5930194E+02  0.7816164E-02  0.1266605E+00
        -11   -1    0    0    0    0  0.00000000000E+00  0.00000000000E+00  0.45593999997E+02  0.45594000000E+02  0.51100000000E-03 0.  1.
         11   -1    0    0    0    0 -0.00000000000E+00 -0.00000000000E+00 -0.45593999997E+02  0.45594000000E+02  0.51100000000E-03 0. -1.
    9900012    2    1    2    0    0 -0.71821849464E+01 -0.26537634323E+02  0.16152125591E+02  0.59301937572E+02  0.49999988226E+02 0.  0.
         12    1    1    2    0    0  0.71821849464E+01  0.26537634323E+02 -0.16152125591E+02  0.31886062428E+02  0.00000000000E+00 0. -1.
         11    1    3    3    0    0  0.10687566390E+02  0.51413267445E+01  0.52830492278E+01  0.12983371112E+02  0.51100000000E-03 0. -1.
        -11    1    3    3    0    0 -0.17878725478E+02 -0.27840087061E+02  0.18405063077E+02  0.37861136003E+02  0.51100000000E-03 0.  1.
        -12    1    3    3    0    0  0.89741416002E-02 -0.38388740067E+01 -0.75359867142E+01  0.84574304568E+01  0.00000000000E+00 0.  1.
</event>
<event>
 7    1  0.7674040E-012  0.5930216E+02  0.7816164E-02  0.1266604E+00
        -11   -1    0    0    0    0  0.00000000000E+00  0.00000000000E+00  0.45593999997E+02  0.45594000000E+02  0.51100000000E-03 0. -1.
         11   -1    0    0    0    0 -0.00000000000E+00 -0.00000000000E+00 -0.45593999997E+02  0.45594000000E+02  0.51100000000E-03 0.  1.
    9900012    2    1    2    0    0  0.13760919812E+02  0.31852626925E+01 -0.28586676620E+02  0.59302158429E+02  0.50000391016E+02 0.  0.
         12    1    1    2    0    0 -0.13760919812E+02 -0.31852626925E+01  0.28586676620E+02  0.31885841571E+02  0.00000000000E+00 0. -1.
         11    1    3    3    0    0  0.18319863715E+01  0.11431398043E+02  0.88677961711E+01  0.14583238477E+02  0.51100000000E-03 0. -1.
        -11    1    3    3    0    0  0.16241004122E+02 -0.23129722459E+01 -0.30391929798E+02  0.34536784052E+02  0.51100000000E-03 0.  1.
         12    1    3    3    0    0 -0.43120706815E+01 -0.59331631042E+01 -0.70625429927E+01  0.10182135901E+02  0.00000000000E+00 0. -1.
</event>
<event>
 7    1  0.7674040E-012  0.5930194E+02  0.7816164E-02  0.1266605E+00
        -11   -1    0    0    0    0  0.00000000000E+00  0.00000000000E+00  0.45593999997E+02  0.45594000000E+02  0.51100000000E-03 0.  1.
         11   -1    0    0    0    0 -0.00000000000E+00 -0.00000000000E+00 -0.45593999997E+02  0.45594000000E+02  0.51100000000E-03 0. -1.
    9900012    2    1    2    0    0 -0.74590806423E+01 -0.13629695905E+02  0.27844469045E+02  0.59301937984E+02  0.49999988978E+02 0.  0.
         12    1    1    2    0    0  0.74590806423E+01  0.13629695905E+02 -0.27844469045E+02  0.31886062016E+02  0.00000000000E+00 0. -1.
         11    1    3    3    0    0 -0.93058964769E+01  0.37453957326E+01 -0.59941155608E+01  0.11685765702E+02  0.51100000000E-03 0. -1.
        -11    1    3    3    0    0 -0.21278775568E+01 -0.98679415737E+00  0.30293492901E+02  0.30384162618E+02  0.51100000000E-03 0.  1.
         12    1    3    3    0    0  0.39746933914E+01 -0.16388297480E+02  0.35450917044E+01  0.17232009664E+02  0.00000000000E+00 0. -1.
</event>
<event>
 7    1  0.7674040E-012  0.5930195E+02  0.7816164E-02  0.1266605E+00
        -11   -1    0    0    0    0  0.00000000000E+00  0.00000000000E+00  0.45593999997E+02  0.45594000000E+02  0.51100000000E-03 0.  1.
         11   -1    0    0    0    0 -0.00000000000E+00 -0.00000000000E+00 -0.45593999997E+02  0.45594000000E+02  0.51100000000E-03 0. -1.
    9900012    2    1    2    0    0  0.79187839296E+01 -0.10484921700E+02  0.29053048555E+02  0.59301947370E+02  0.50000006095E+02 0.  0.
         12    1    1    2    0    0 -0.79187839296E+01  0.10484921700E+02 -0.29053048555E+02  0.31886052630E+02  0.00000000000E+00 0. -1.
         11    1    3    3    0    0  0.43147435330E+01 -0.13848894004E+02  0.50466382778E+01  0.15358301829E+02  0.51100000000E-03 0. -1.
        -11    1    3    3    0    0 -0.16105281767E+02  0.42813624877E+01  0.77498108064E+01  0.18378512816E+02  0.51100000000E-03 0.  1.
        -12    1    3    3    0    0  0.19709322163E+02 -0.91739018332E+00  0.16256599471E+02  0.25565132725E+02  0.00000000000E+00 0.  1.
</event>
<event>
 7    1  0.7674040E-012  0.5930196E+02  0.7816164E-02  0.1266605E+00
        -11   -1    0    0    0    0  0.00000000000E+00  0.00000000000E+00  0.45593999997E+02  0.45594000000E+02  0.51100000000E-03 0.  1.
         11   -1    0    0    0    0 -0.00000000000E+00 -0.00000000000E+00 -0.45593999997E+02  0.45594000000E+02  0.51100000000E-03 0. -1.
    9900012    2    1    2    0    0  0.11545182529E+02 -0.26333771659E+02  0.13782635009E+02  0.59301956075E+02  0.50000021971E+02 0.  0.
         12    1    1    2    0    0 -0.11545182529E+02  0.26333771659E+02 -0.13782635009E+02  0.31886043925E+02  0.00000000000E+00 0. -1.
         11    1    3    3    0    0 -0.77815545911E+01  0.46808188850E+01  0.20213311801E+02  0.22159436625E+02  0.51100000000E-03 0. -1.
        -11    1    3    3    0    0  0.11087522221E+02 -0.16348292743E+02 -0.31387223162E+01  0.20001285025E+02  0.51100000000E-03 0.  1.
         12    1    3    3    0    0  0.82392148992E+01 -0.14666297801E+02 -0.32919544764E+01  0.17141234425E+02  0.00000000000E+00 0. -1.
</event>
<event>
 7    1  0.7674040E-012  0.5930200E+02  0.7816164E-02  0.1266605E+00
        -11   -1    0    0    0    0  0.00000000000E+00  0.00000000000E+00  0.45593999997E+02  0.45594000000E+02  0.51100000000E-03 0.  1.
         11   -1    0    0    0    0 -0.00000000000E+00 -0.00000000000E+00 -0.45593999997E+02  0.45594000000E+02  0.51100000000E-03 0. -1.
    9900012    2    1    2    0    0  0.10460711804E+02 -0.26064492842E+02  0.15097444447E+02  0.59301998253E+02  0.50000098894E+02 0.  0.
         12    1    1    2    0    0 -0.10460711804E+02  0.26064492842E+02 -0.15097444447E+02  0.31886001747E+02  0.00000000000E+00 0. -1.
         11    1    3    3    0    0 -0.12240980223E+02 -0.26765055125E+02  0.46611761287E+01  0.29798260617E+02  0.51100000000E-03 0. -1.
        -11    1    3    3    0    0  0.15163544816E+02 -0.51254428657E+01  0.91190604622E+00  0.16032305787E+02  0.51100000000E-03 0.  1.
         12    1    3    3    0    0  0.75381472111E+01  0.58260051481E+01  0.95243622721E+01  0.13471431849E+02  0.00000000000E+00 0. -1.
</event>
<event>
 7    1  0.7674040E-012  0.5930193E+02  0.7816164E-02  0.1266605E+00
        -11   -1    0    0    0    0  0.00000000000E+00  0.00000000000E+00  0.45593999997E+02  0.45594000000E+02  0.51100000000E-03 0.  1.
         11   -1    0    0    0    0 -0.00000000000E+00 -0.00000000000E+00 -0.45593999997E+02  0.45594000000E+02  0.51100000000E-03 0. -1.
    9900012    2    1    2    0    0 -0.28191403146E+02  0.12532939579E+02  0.80555215462E+01  0.59301933871E+02  0.49999981476E+02 0.  0.
         12    1    1    2    0    0  0.28191403146E+02 -0.12532939579E+02 -0.80555215462E+01  0.31886066129E+02  0.00000000000E+00 0. -1.
         11    1    3    3    0    0 -0.23748441160E+01  0.12155932300E+02  0.96184083679E+01  0.15681847928E+02  0.51100000000E-03 0. -1.
        -11    1    3    3    0    0 -0.95726188864E+01 -0.11842079711E+02  0.11825974271E+02  0.19280133608E+02  0.51100000000E-03 0.  1.
        -12    1    3    3    0    0 -0.16243940144E+02  0.12219086990E+02 -0.13388861093E+02  0.24339952334E+02  0.00000000000E+00 0.  1.
</event>
<event>
 7    1  0.7674040E-012  0.5930196E+02  0.7816164E-02  0.1266605E+00
        -11   -1    0    0    0    0  0.00000000000E+00  0.00000000000E+00  0.45593999997E+02  0.45594000000E+02  0.51100000000E-03 0.  1.
         11   -1    0    0    0    0 -0.00000000000E+00 -0.00000000000E+00 -0.45593999997E+02  0.45594000000E+02  0.51100000000E-03 0. -1.
    9900012    2    1    2    0    0 -0.17839268088E+02  0.25150564463E+02  0.81196911866E+01  0.59301956600E+02  0.50000022929E+02 0.  0.
         12    1    1    2    0    0  0.17839268088E+02 -0.25150564463E+02 -0.81196911866E+01  0.31886043400E+02  0.00000000000E+00 0. -1.
         11    1    3    3    0    0 -0.11120598306E+02 -0.58159021809E+01  0.70555803965E+01  0.14397001071E+02  0.51100000000E-03 0. -1.
        -11    1    3    3    0    0  0.10365961326E+02  0.19577566596E+02  0.74992566680E+01  0.23387456443E+02  0.51100000000E-03 0.  1.
        -12    1    3    3    0    0 -0.17084631109E+02  0.11388900048E+02 -0.64351458779E+01  0.21517499086E+02  0.00000000000E+00 0.  1.
</event>
<event>
 7    1  0.7674040E-012  0.5930197E+02  0.7816164E-02  0.1266605E+00
        -11   -1    0    0    0    0  0.00000000000E+00  0.00000000000E+00  0.45593999997E+02  0.45594000000E+02  0.51100000000E-03 0. -1.
         11   -1    0    0    0    0 -0.00000000000E+00 -0.00000000000E+00 -0.45593999997E+02  0.45594000000E+02  0.51100000000E-03 0.  1.
    9900012    2    1    2    0    0  0.74878192827E+01 -0.85982150088E+01 -0.29777885602E+02  0.59301965285E+02  0.50000038768E+02 0.  0.
         12    1    1    2    0    0 -0.74878192827E+01  0.85982150088E+01  0.29777885602E+02  0.31886034715E+02  0.00000000000E+00 0. -1.
         11    1    3    3    0    0 -0.92235595487E+01 -0.87043615904E+01  0.68316643470E+01  0.14405262908E+02  0.51100000000E-03 0. -1.
        -11    1    3    3    0    0  0.15186393364E+02 -0.60444758446E+01 -0.14342644743E+02  0.21745659110E+02  0.51100000000E-03 0.  1.
         12    1    3    3    0    0  0.15249854675E+01  0.61506224262E+01 -0.22266905205E+02  0.23151043266E+02  0.00000000000E+00 0. -1.
</event>
<event>
 7    1  0.7674040E-012  0.5930191E+02  0.7816164E-02  0.1266605E+00
        -11   -1    0    0    0    0  0.00000000000E+00  0.00000000000E+00  0.45593999997E+02  0.45594000000E+02  0.51100000000E-03 0.  1.
         11   -1    0    0    0    0 -0.00000000000E+00 -0.00000000000E+00 -0.45593999997E+02  0.45594000000E+02  0.51100000000E-03 0. -1.
    9900012    2    1    2    0    0 -0.19159066179E+02  0.23193781885E+02  0.10568887192E+02  0.59301910377E+02  0.49999938629E+02 0.  0.
         12    1    1    2    0    0  0.19159066179E+02 -0.23193781885E+02 -0.10568887192E+02  0.31886089623E+02  0.00000000000E+00 0. -1.
         11    1    3    3    0    0 -0.12791640180E+02  0.19825690356E+02 -0.11124495893E+02  0.26085215462E+02  0.51100000000E-03 0. -1.
        -11    1    3    3    0    0 -0.41603793019E+01  0.13665030170E+02  0.15131657285E+02  0.20808864889E+02  0.51100000000E-03 0.  1.
         12    1    3    3    0    0 -0.22070466975E+01 -0.10296938641E+02  0.65617257991E+01  0.12407830026E+02  0.00000000000E+00 0. -1.
</event>
<event>
 7    1  0.7674040E-012  0.5930195E+02  0.7816164E-02  0.1266605E+00
        -11   -1    0    0    0    0  0.00000000000E+00  0.00000000000E+00  0.45593999997E+02  0.45594000000E+02  0.51100000000E-03 0. -1.
         11   -1    0    0    0    0 -0.00000000000E+00 -0.00000000000E+00 -0.45593999997E+02  0.45594000000E+02  0.51100000000E-03 0.  1.
    9900012    2    1    2    0    0 -0.22582662883E+01  0.21012613272E+02 -0.23876571537E+02  0.59301947382E+02  0.50000006118E+02 0.  0.
         12    1    1    2    0    0  0.22582662883E+01 -0.21012613272E+02  0.23876571537E+02  0.31886052618E+02  0.00000000000E+00 0. -1.
         11    1    3    3    0    0  0.17735349251E+02  0.16884225537E+02  0.14991527798E+01  0.24532980747E+02  0.51100000000E-03 0. -1.
        -11    1    3    3    0    0 -0.10106829328E+02  0.80138958719E+01 -0.11399709600E+02  0.17214061268E+02  0.51100000000E-03 0.  1.
         12    1    3    3    0    0 -0.98867862117E+01 -0.38855081368E+01 -0.13976014717E+02  0.17554905367E+02  0.00000000000E+00 0. -1.
</event>
<event>
 7    1  0.7674040E-012  0.5930194E+02  0.7816164E-02  0.1266605E+00
        -11   -1    0    0    0    0  0.00000000000E+00  0.00000000000E+00  0.45593999997E+02  0.45594000000E+02  0.51100000000E-03 0. -1.
         11   -1    0    0    0    0 -0.00000000000E+00 -0.00000000000E+00 -0.45593999997E+02  0.45594000000E+02  0.51100000000E-03 0.  1.
    9900012    2    1    2    0    0  0.12382624029E+01  0.29825109346E+02 -0.11209392982E+02  0.59301938276E+02  0.49999989509E+02 0.  0.
         12    1    1    2    0    0 -0.12382624029E+01 -0.29825109346E+02  0.11209392982E+02  0.31886061724E+02  0.00000000000E+00 0. -1.
         11    1    3    3    0    0  0.70435246737E+01  0.62000747638E+01  0.34904256751E+01  0.10011755019E+02  0.51100000000E-03 0. -1.
        -11    1    3    3    0    0 -0.10006398191E+02  0.30357241431E+02 -0.21760757287E+02  0.38668083351E+02  0.51100000000E-03 0.  1.
        -12    1    3    3    0    0  0.42011359204E+01 -0.67322068489E+01  0.70609386297E+01  0.10622099906E+02  0.00000000000E+00 0.  1.
</event>
<event>
 7    1  0.7674040E-012  0.5930194E+02  0.7816164E-02  0.1266605E+00
        -11   -1    0    0    0    0  0.00000000000E+00  0.00000000000E+00  0.45593999997E+02  0.45594000000E+02  0.51100000000E-03 0.  1.
         11   -1    0    0    0    0 -0.00000000000E+00 -0.00000000000E+00 -0.45593999997E+02  0.45594000000E+02  0.51100000000E-03 0. -1.
    9900012    2    1    2    0    0  0.12334119699E+01  0.17519160916E+02  0.26613507447E+02  0.59301935914E+02  0.49999985202E+02 0.  0.
         12    1    1    2    0    0 -0.12334119699E+01 -0.17519160916E+02 -0.26613507447E+02  0.31886064086E+02  0.00000000000E+00 0. -1.
         11    1    3    3    0    0 -0.38626465862E+01  0.27695360488E+02  0.80528900035E+00  0.27975016029E+02  0.51100000000E-03 0. -1.
        -11    1    3    3    0    0 -0.34922237632E+01 -0.77269149531E+01  0.95027083027E+01  0.12735866945E+02  0.51100000000E-03 0.  1.
         12    1    3    3    0    0  0.85882823193E+01 -0.24492846190E+01  0.16305510144E+02  0.18591052939E+02  0.00000000000E+00 0. -1.
</event>
<event>
 7    1  0.7674040E-012  0.5930193E+02  0.7816164E-02  0.1266605E+00
        -11   -1    0    0    0    0  0.00000000000E+00  0.00000000000E+00  0.45593999997E+02  0.45594000000E+02  0.51100000000E-03 0. -1.
         11   -1    0    0    0    0 -0.00000000000E+00 -0.00000000000E+00 -0.45593999997E+02  0.45594000000E+02  0.51100000000E-03 0.  1.
    9900012    2    1    2    0    0 -0.66670579991E+01  0.30076390343E+02 -0.82269344387E+01  0.59301931432E+02  0.49999977029E+02 0.  0.
         12    1    1    2    0    0  0.66670579991E+01 -0.30076390343E+02  0.82269344387E+01  0.31886068568E+02  0.00000000000E+00 0. -1.
         11    1    3    3    0    0 -0.86469222769E+01  0.44124980440E+01 -0.24605605311E+00  0.97108160158E+01  0.51100000000E-03 0. -1.
        -11    1    3    3    0    0  0.25755588586E+01 -0.51296433277E+01 -0.16636344809E+02  0.17598713389E+02  0.51100000000E-03 0.  1.
        -12    1    3    3    0    0 -0.59569458078E+00  0.30793535627E+02  0.86554664232E+01  0.31992402027E+02  0.00000000000E+00 0.  1.
</event>
<event>
 7    1  0.7674040E-012  0.5930193E+02  0.7816164E-02  0.1266605E+00
        -11   -1    0    0    0    0  0.00000000000E+00  0.00000000000E+00  0.45593999997E+02  0.45594000000E+02  0.51100000000E-03 0.  1.
         11   -1    0    0    0    0 -0.00000000000E+00 -0.00000000000E+00 -0.45593999997E+02  0.45594000000E+02  0.51100000000E-03 0. -1.
    9900012    2    1    2    0    0  0.26472005123E+01  0.13844613176E+02  0.28601412443E+02  0.59301925010E+02  0.49999965317E+02 0.  0.
         12    1    1    2    0    0 -0.26472005123E+01 -0.13844613176E+02 -0.28601412443E+02  0.31886074990E+02  0.00000000000E+00 0. -1.
         11    1    3    3    0    0  0.78839024584E+01  0.19124671182E+02 -0.76920105878E+01  0.22069798208E+02  0.51100000000E-03 0. -1.
        -11    1    3    3    0    0 -0.27842348594E+01 -0.24497422314E+01  0.26297078692E+02  0.26557288053E+02  0.51100000000E-03 0.  1.
         12    1    3    3    0    0 -0.24524670867E+01 -0.28303157742E+01  0.99963443388E+01  0.10674838750E+02  0.00000000000E+00 0. -1.
</event>
<event>
 7    1  0.7674040E-012  0.5930195E+02  0.7816164E-02  0.1266605E+00
        -11   -1    0    0    0    0  0.00000000000E+00  0.00000000000E+00  0.45593999997E+02  0.45594000000E+02  0.51100000000E-03 0.  1.
         11   -1    0    0    0    0 -0.00000000000E+00 -0.00000000000E+00 -0.45593999997E+02  0.45594000000E+02  0.51100000000E-03 0. -1.
    9900012    2    1    2    0    0  0.96894441234E+01 -0.29403343992E+02  0.76339986135E+01  0.59301954461E+02  0.50000019027E+02 0.  0.
         12    1    1    2    0    0 -0.96894441234E+01  0.29403343992E+02 -0.76339986135E+01  0.31886045539E+02  0.00000000000E+00 0. -1.
         11    1    3    3    0    0  0.20963349442E+02  0.20210361870E+00 -0.56424254244E+01  0.21710362287E+02  0.51100000000E-03 0. -1.
        -11    1    3    3    0    0  0.13010533476E+01 -0.17959150493E+02  0.74850750007E+01  0.19500004468E+02  0.51100000000E-03 0.  1.
         12    1    3    3    0    0 -0.12574958667E+02 -0.11646297117E+02  0.57913490373E+01  0.18091587705E+02  0.00000000000E+00 0. -1.
</event>
<event>
 7    1  0.7674040E-012  0.5930196E+02  0.7816164E-02  0.1266605E+00
        -11   -1    0    0    0    0  0.00000000000E+00  0.00000000000E+00  0.45593999997E+02  0.45594000000E+02  0.51100000000E-03 0.  1.
         11   -1    0    0    0    0 -0.00000000000E+00 -0.00000000000E+00 -0.45593999997E+02  0.45594000000E+02  0.51100000000E-03 0. -1.
    9900012    2    1    2    0    0 -0.28668740034E+02  0.13850391215E+02 -0.17291087025E+01  0.59301955892E+02  0.50000021637E+02 0.  0.
         12    1    1    2    0    0  0.28668740034E+02 -0.13850391215E+02  0.17291087025E+01  0.31886044108E+02  0.00000000000E+00 0. -1.
         11    1    3    3    0    0 -0.69368471389E+01  0.16156003749E+02 -0.26604486027E+01  0.17782415257E+02  0.51100000000E-03 0. -1.
        -11    1    3    3    0    0 -0.17194707661E+02 -0.12598820664E+02  0.13042805346E+02  0.24990058528E+02  0.51100000000E-03 0.  1.
        -12    1    3    3    0    0 -0.45371852341E+01  0.10293208130E+02 -0.12111465446E+02  0.16529482106E+02  0.00000000000E+00 0.  1.
</event>
<event>
 7    1  0.7674040E-012  0.5930196E+02  0.7816164E-02  0.1266605E+00
        -11   -1    0    0    0    0  0.00000000000E+00  0.00000000000E+00  0.45593999997E+02  0.45594000000E+02  0.51100000000E-03 0.  1.
         11   -1    0    0    0    0 -0.00000000000E+00 -0.00000000000E+00 -0.45593999997E+02  0.45594000000E+02  0.51100000000E-03 0. -1.
    9900012    2    1    2    0    0  0.11853767622E+02 -0.21915967172E+02  0.19897189833E+02  0.59301959369E+02  0.50000027978E+02 0.  0.
         12    1    1    2    0    0 -0.11853767622E+02  0.21915967172E+02 -0.19897189833E+02  0.31886040631E+02  0.00000000000E+00 0. -1.
         11    1    3    3    0    0 -0.89646206574E+01  0.30578562602E+01 -0.64263228579E+01  0.11446070687E+02  0.51100000000E-03 0. -1.
        -11    1    3    3    0    0  0.24005925186E+02 -0.12449703140E+02  0.17750108376E+02  0.32347270363E+02  0.51100000000E-03 0.  1.
         12    1    3    3    0    0 -0.31875369065E+01 -0.12524120292E+02  0.85734043143E+01  0.15508618319E+02  0.00000000000E+00 0. -1.
</event>
<event>
 7    1  0.8547116E-012  0.5930206E+02  0.7816164E-02  0.1266604E+00
        -11   -1    0    0    0    0  0.00000000000E+00  0.00000000000E+00  0.45593999997E+02  0.45594000000E+02  0.51100000000E-03 0. -1.
         11   -1    0    0    0    0 -0.00000000000E+00 -0.00000000000E+00 -0.45593999997E+02  0.45594000000E+02  0.51100000000E-03 0.  1.
    9900012    2    1    2    0    0  0.11358065058E+02 -0.28965260135E+02 -0.69800813822E+01  0.59302055249E+02  0.50000202841E+02 0.  0.
         12    1    1    2    0    0 -0.11358065058E+02  0.28965260135E+02  0.69800813822E+01  0.31885944751E+02  0.00000000000E+00 0. -1.
         11    1    3    3    0    0 -0.86247608103E+00  0.94584095458E+01 -0.32457495191E+01  0.10036945070E+02  0.51100000000E-03 0. -1.
        -11    1    3    3    0    0  0.19957886592E+02 -0.25293687332E+02  0.34741437856E+01  0.32406134163E+02  0.51100000000E-03 0.  1.
        -12    1    3    3    0    0 -0.77373454536E+01 -0.13129982349E+02 -0.72084756486E+01  0.16858976017E+02  0.00000000000E+00 0.  1.
</event>
<event>
 7    1  0.7674040E-012  0.5930203E+02  0.7816164E-02  0.1266604E+00
        -11   -1    0    0    0    0  0.00000000000E+00  0.00000000000E+00  0.45593999997E+02  0.45594000000E+02  0.51100000000E-03 0.  1.
         11   -1    0    0    0    0 -0.00000000000E+00 -0.00000000000E+00 -0.45593999997E+02  0.45594000000E+02  0.51100000000E-03 0. -1.
    9900012    2    1    2    0    0  0.22304003648E+02 -0.22525906554E+02  0.34395044983E+01  0.59302027598E+02  0.50000152412E+02 0.  0.
         12    1    1    2    0    0 -0.22304003648E+02  0.22525906554E+02 -0.34395044983E+01  0.31885972402E+02  0.00000000000E+00 0. -1.
         11    1    3    3    0    0  0.11035765660E+02 -0.32565609206E+02 -0.77435339506E+01  0.35245841527E+02  0.51100000000E-03 0. -1.
        -11    1    3    3    0    0  0.10099444588E+02  0.13501631184E+02  0.63945267126E+01  0.18032825562E+02  0.51100000000E-03 0.  1.
         12    1    3    3    0    0  0.11687933999E+01 -0.34619285318E+01  0.47885117362E+01  0.60233605088E+01  0.00000000000E+00 0. -1.
</event>
<event>
 7    1  0.7674040E-012  0.5930196E+02  0.7816164E-02  0.1266605E+00
        -11   -1    0    0    0    0  0.00000000000E+00  0.00000000000E+00  0.45593999997E+02  0.45594000000E+02  0.51100000000E-03 0. -1.
         11   -1    0    0    0    0 -0.00000000000E+00 -0.00000000000E+00 -0.45593999997E+02  0.45594000000E+02  0.51100000000E-03 0.  1.
    9900012    2    1    2    0    0 -0.39099968919E+00 -0.31312072611E+02  0.60100713847E+01  0.59301957129E+02  0.50000023893E+02 0.  0.
         12    1    1    2    0    0  0.39099968919E+00  0.31312072611E+02 -0.60100713847E+01  0.31886042871E+02  0.00000000000E+00 0. -1.
         11    1    3    3    0    0  0.94588336553E+01 -0.22697356158E+02  0.17930362368E+02  0.30432505740E+02  0.51100000000E-03 0. -1.
        -11    1    3    3    0    0 -0.16456048247E+02 -0.93835725017E+01 -0.57491084767E+01  0.19796595802E+02  0.51100000000E-03 0.  1.
         12    1    3    3    0    0  0.66062149025E+01  0.76885604922E+00 -0.61711825070E+01  0.90728555867E+01  0.00000000000E+00 0. -1.
</event>
<event>
 7    1  0.7674040E-012  0.5930194E+02  0.7816164E-02  0.1266605E+00
        -11   -1    0    0    0    0  0.00000000000E+00  0.00000000000E+00  0.45593999997E+02  0.45594000000E+02  0.51100000000E-03 0. -1.
         11   -1    0    0    0    0 -0.00000000000E+00 -0.00000000000E+00 -0.45593999997E+02  0.45594000000E+02  0.51100000000E-03 0.  1.
    9900012    2    1    2    0    0 -0.17923576007E+02 -0.26341400400E+02 -0.12636447758E+01  0.59301941134E+02  0.49999994722E+02 0.  0.
         12    1    1    2    0    0  0.17923576007E+02  0.26341400400E+02  0.12636447758E+01  0.31886058866E+02  0.00000000000E+00 0. -1.
         11    1    3    3    0    0  0.12963973876E+02 -0.90519515124E+00  0.77397873822E+01  0.15125749764E+02  0.51100000000E-03 0. -1.
        -11    1    3    3    0    0 -0.21763672981E+02 -0.23247075484E+02 -0.10271912001E+01  0.31861247656E+02  0.51100000000E-03 0.  1.
         12    1    3    3    0    0 -0.91238769020E+01 -0.21891297648E+01 -0.79762409579E+01  0.12314943714E+02  0.00000000000E+00 0. -1.
</event>
<event>
 7    1  0.7674040E-012  0.5930210E+02  0.7816164E-02  0.1266604E+00
        -11   -1    0    0    0    0  0.00000000000E+00  0.00000000000E+00  0.45593999997E+02  0.45594000000E+02  0.51100000000E-03 0.  1.
         11   -1    0    0    0    0 -0.00000000000E+00 -0.00000000000E+00 -0.45593999997E+02  0.45594000000E+02  0.51100000000E-03 0. -1.
    9900012    2    1    2    0    0 -0.21735748051E+02  0.17693214587E+02  0.15205860607E+02  0.59302097433E+02  0.50000279773E+02 0.  0.
         12    1    1    2    0    0  0.21735748051E+02 -0.17693214587E+02 -0.15205860607E+02  0.31885902567E+02  0.00000000000E+00 0. -1.
         11    1    3    3    0    0 -0.44599250637E+01  0.54311749397E+01  0.24139814439E+02  0.25141981509E+02  0.51100000000E-03 0. -1.
        -11    1    3    3    0    0 -0.16434978244E+02  0.18709695685E+02 -0.25257355374E+01  0.25030792292E+02  0.51100000000E-03 0.  1.
         12    1    3    3    0    0 -0.84084474274E+00 -0.64476560373E+01 -0.64082182947E+01  0.91293236315E+01  0.00000000000E+00 0. -1.
</event>
<event>
 7    1  0.7674040E-012  0.5930196E+02  0.7816164E-02  0.1266605E+00
        -11   -1    0    0    0    0  0.00000000000E+00  0.00000000000E+00  0.45593999997E+02  0.45594000000E+02  0.51100000000E-03 0.  1.
         11   -1    0    0    0    0 -0.00000000000E+00 -0.00000000000E+00 -0.45593999997E+02  0.45594000000E+02  0.51100000000E-03 0. -1.
    9900012    2    1    2    0    0 -0.61955858012E+00 -0.31722086266E+02 -0.31694138623E+01  0.59301956123E+02  0.50000022059E+02 0.  0.
         12    1    1    2    0    0  0.61955858012E+00  0.31722086266E+02  0.31694138623E+01  0.31886043877E+02  0.00000000000E+00 0. -1.
         11    1    3    3    0    0  0.10196694976E+02 -0.14614137324E+01 -0.18878737200E+02  0.21506162770E+02  0.51100000000E-03 0. -1.
        -11    1    3    3    0    0 -0.11426758051E+01 -0.11386563415E+02  0.11401366354E+02  0.16153968225E+02  0.51100000000E-03 0.  1.
         12    1    3    3    0    0 -0.96735777515E+01 -0.18874109118E+02  0.43079569842E+01  0.21641825129E+02  0.00000000000E+00 0. -1.
</event>
<event>
 7    1  0.7674040E-012  0.5930192E+02  0.7816164E-02  0.1266605E+00
        -11   -1    0    0    0    0  0.00000000000E+00  0.00000000000E+00  0.45593999997E+02  0.45594000000E+02  0.51100000000E-03 0. -1.
         11   -1    0    0    0    0 -0.00000000000E+00 -0.00000000000E+00 -0.45593999997E+02  0.45594000000E+02  0.51100000000E-03 0.  1.
    9900012    2    1    2    0    0 -0.11395657726E+02 -0.26463503379E+02 -0.13658111398E+02  0.59301921014E+02  0.49999958029E+02 0.  0.
         12    1    1    2    0    0  0.11395657726E+02  0.26463503379E+02  0.13658111398E+02  0.31886078986E+02  0.00000000000E+00 0. -1.
         11    1    3    3    0    0  0.11101240526E+02 -0.68800838787E+01 -0.15521471721E+02  0.20285196081E+02  0.51100000000E-03 0. -1.
        -11    1    3    3    0    0 -0.17021965993E+02 -0.20804940128E+01 -0.71533086179E+01  0.18580785937E+02  0.51100000000E-03 0.  1.
        -12    1    3    3    0    0 -0.54749322601E+01 -0.17502925488E+02  0.90166689409E+01  0.20435938997E+02  0.00000000000E+00 0.  1.
</event>
<event>
 7    1  0.7674040E-012  0.5930194E+02  0.7816164E-02  0.1266605E+00
        -11   -1    0    0    0    0  0.00000000000E+00  0.00000000000E+00  0.45593999997E+02  0.45594000000E+02  0.51100000000E-03 0.  1.
         11   -1    0    0    0    0 -0.00000000000E+00 -0.00000000000E+00 -0.45593999997E+02  0.45594000000E+02  0.51100000000E-03 0. -1.
    9900012    2    1    2    0    0 -0.29943756997E+02  0.10907810585E+02  0.10544555462E+01  0.59301940485E+02  0.49999993540E+02 0.  0.
         12    1    1    2    0    0  0.29943756997E+02 -0.10907810585E+02 -0.10544555462E+01  0.31886059515E+02  0.00000000000E+00 0. -1.
         11    1    3    3    0    0 -0.22943357365E+02 -0.96156435089E+01 -0.13615553127E+02  0.28359152570E+02  0.51100000000E-03 0. -1.
        -11    1    3    3    0    0  0.41300235413E+01  0.82997927588E+01  0.10270034842E+02  0.13835363031E+02  0.51100000000E-03 0.  1.
         12    1    3    3    0    0 -0.11130423173E+02  0.12223661335E+02  0.43999738309E+01  0.17107424884E+02  0.00000000000E+00 0. -1.
</event>
<event>
 7    1  0.7674040E-012  0.5930195E+02  0.7816164E-02  0.1266605E+00
        -11   -1    0    0    0    0  0.00000000000E+00  0.00000000000E+00  0.45593999997E+02  0.45594000000E+02  0.51100000000E-03 0. -1.
         11   -1    0    0    0    0 -0.00000000000E+00 -0.00000000000E+00 -0.45593999997E+02  0.45594000000E+02  0.51100000000E-03 0.  1.
    9900012    2    1    2    0    0 -0.15900148017E+02  0.92828355736E+01 -0.26033328061E+02  0.59301954256E+02  0.50000018655E+02 0.  0.
         12    1    1    2    0    0  0.15900148017E+02 -0.92828355736E+01  0.26033328061E+02  0.31886045744E+02  0.00000000000E+00 0. -1.
         11    1    3    3    0    0 -0.24060451633E+02  0.18529295054E+02 -0.10632288461E+02  0.32175855329E+02  0.51100000000E-03 0. -1.
        -11    1    3    3    0    0  0.98216508372E+01 -0.59954769563E+01 -0.18862356136E+02  0.22095226823E+02  0.51100000000E-03 0.  1.
         12    1    3    3    0    0 -0.16613472210E+01 -0.32509825244E+01  0.34613165363E+01  0.50308721041E+01  0.00000000000E+00 0. -1.
</event>
<event>
 7    1  0.7674040E-012  0.5930192E+02  0.7816164E-02  0.1266605E+00
        -11   -1    0    0    0    0  0.00000000000E+00  0.00000000000E+00  0.45593999997E+02  0.45594000000E+02  0.51100000000E-03 0.  1.
         11   -1    0    0    0    0 -0.00000000000E+00 -0.00000000000E+00 -0.45593999997E+02  0.45594000000E+02  0.51100000000E-03 0. -1.
    9900012    2    1    2    0    0  0.25285433494E+02  0.15142068745E+02  0.12169091014E+02  0.59301918884E+02  0.49999954144E+02 0.  0.
         12    1    1    2    0    0 -0.25285433494E+02 -0.15142068745E+02 -0.12169091014E+02  0.31886081116E+02  0.00000000000E+00 0. -1.
         11    1    3    3    0    0  0.16500572062E+02  0.30185202495E+02 -0.21313522225E+01  0.34466766465E+02  0.51100000000E-03 0. -1.
        -11    1    3    3    0    0  0.88171822295E+01 -0.47584294551E+01  0.71618133928E+01  0.12315718602E+02  0.51100000000E-03 0.  1.
         12    1    3    3    0    0 -0.32320797591E-01 -0.10284704295E+02  0.71386298433E+01  0.12519433817E+02  0.00000000000E+00 0. -1.
</event>
<event>
 7    1  0.7674040E-012  0.5930196E+02  0.7816164E-02  0.1266605E+00
        -11   -1    0    0    0    0  0.00000000000E+00  0.00000000000E+00  0.45593999997E+02  0.45594000000E+02  0.51100000000E-03 0.  1.
         11   -1    0    0    0    0 -0.00000000000E+00 -0.00000000000E+00 -0.45593999997E+02  0.45594000000E+02  0.51100000000E-03 0. -1.
    9900012    2    1    2    0    0 -0.25023245614E+02 -0.68577683281E+01  0.18534506531E+02  0.59301956974E+02  0.50000023610E+02 0.  0.
         12    1    1    2    0    0  0.25023245614E+02  0.68577683281E+01 -0.18534506531E+02  0.31886043026E+02  0.00000000000E+00 0. -1.
         11    1    3    3    0    0 -0.14747318908E+02 -0.67463214285E+01 -0.13930872852E+02  0.21379089936E+02  0.51100000000E-03 0.  1.
        -11    1    3    3    0    0 -0.14604064659E+02  0.19832068281E+01  0.23231885368E+02  0.27512402874E+02  0.51100000000E-03 0. -1.
         12    1    3    3    0    0  0.43281379537E+01 -0.20946537278E+01  0.92334940147E+01  0.10410464164E+02  0.00000000000E+00 0. -1.
</event>
<event>
 7    1  0.7674040E-012  0.5930195E+02  0.7816164E-02  0.1266605E+00
        -11   -1    0    0    0    0  0.00000000000E+00  0.00000000000E+00  0.45593999997E+02  0.45594000000E+02  0.51100000000E-03 0.  1.
         11   -1    0    0    0    0 -0.00000000000E+00 -0.00000000000E+00 -0.45593999997E+02  0.45594000000E+02  0.51100000000E-03 0. -1.
    9900012    2    1    2    0    0 -0.16711404441E+02 -0.17571929950E+02  0.20704496136E+02  0.59301954137E+02  0.50000018436E+02 0.  0.
         12    1    1    2    0    0  0.16711404441E+02  0.17571929950E+02 -0.20704496136E+02  0.31886045863E+02  0.00000000000E+00 0. -1.
         11    1    3    3    0    0  0.42333479412E+01  0.13035258182E+01  0.82719773970E-01  0.44302660385E+01  0.51100000000E-03 0. -1.
        -11    1    3    3    0    0 -0.32148452850E+02 -0.92467513397E+01  0.58107503918E+01  0.33952765004E+02  0.51100000000E-03 0.  1.
        -12    1    3    3    0    0  0.11203700468E+02 -0.96287044289E+01  0.14811025970E+02  0.20918923095E+02  0.00000000000E+00 0.  1.
</event>
<event>
 7    1  0.7674040E-012  0.5930208E+02  0.7816164E-02  0.1266604E+00
        -11   -1    0    0    0    0  0.00000000000E+00  0.00000000000E+00  0.45593999997E+02  0.45594000000E+02  0.51100000000E-03 0.  1.
         11   -1    0    0    0    0 -0.00000000000E+00 -0.00000000000E+00 -0.45593999997E+02  0.45594000000E+02  0.51100000000E-03 0. -1.
    9900012    2    1    2    0    0 -0.45779649579E+01 -0.12341590292E+01  0.31531432490E+02  0.59302076044E+02  0.50000240766E+02 0.  0.
         12    1    1    2    0    0  0.45779649579E+01  0.12341590292E+01 -0.31531432490E+02  0.31885923956E+02  0.00000000000E+00 0. -1.
         11    1    3    3    0    0  0.14107165681E+01 -0.69794392044E+01 -0.79322686670E+01  0.10659436163E+02  0.51100000000E-03 0. -1.
        -11    1    3    3    0    0 -0.16258815700E+02  0.72190918426E+01  0.21579518629E+02  0.27966765983E+02  0.51100000000E-03 0.  1.
        -12    1    3    3    0    0  0.10270134174E+02 -0.14738116674E+01  0.17884182528E+02  0.20675873899E+02  0.00000000000E+00 0.  1.
</event>
<event>
 7    1  0.7674040E-012  0.5930199E+02  0.7816164E-02  0.1266605E+00
        -11   -1    0    0    0    0  0.00000000000E+00  0.00000000000E+00  0.45593999997E+02  0.45594000000E+02  0.51100000000E-03 0.  1.
         11   -1    0    0    0    0 -0.00000000000E+00 -0.00000000000E+00 -0.45593999997E+02  0.45594000000E+02  0.51100000000E-03 0. -1.
    9900012    2    1    2    0    0  0.14825303580E+02 -0.21693964110E+02  0.18063773262E+02  0.59301990380E+02  0.50000084535E+02 0.  0.
         12    1    1    2    0    0 -0.14825303580E+02  0.21693964110E+02 -0.18063773262E+02  0.31886009620E+02  0.00000000000E+00 0. -1.
         11    1    3    3    0    0 -0.28130866712E+01 -0.11104267144E+01 -0.58830451064E+01  0.66148865518E+01  0.51100000000E-03 0. -1.
        -11    1    3    3    0    0  0.25381336741E+02 -0.16890438053E+02  0.29535922272E+02  0.42448437629E+02  0.51100000000E-03 0.  1.
        -12    1    3    3    0    0 -0.77429464894E+01 -0.36930993423E+01 -0.55891039037E+01  0.10238666199E+02  0.00000000000E+00 0.  1.
</event>
<event>
 7    1  0.7674040E-012  0.5930193E+02  0.7816164E-02  0.1266605E+00
        -11   -1    0    0    0    0  0.00000000000E+00  0.00000000000E+00  0.45593999997E+02  0.45594000000E+02  0.51100000000E-03 0. -1.
         11   -1    0    0    0    0 -0.00000000000E+00 -0.00000000000E+00 -0.45593999997E+02  0.45594000000E+02  0.51100000000E-03 0.  1.
    9900012    2    1    2    0    0  0.68954837079E+01 -0.30911535842E+02 -0.36946982274E+01  0.59301928767E+02  0.49999972168E+02 0.  0.
         12    1    1    2    0    0 -0.68954837079E+01  0.30911535842E+02  0.36946982274E+01  0.31886071233E+02  0.00000000000E+00 0. -1.
         11    1    3    3    0    0  0.47754470269E+01 -0.23931304250E+02  0.33806184093E+01  0.24636168503E+02  0.51100000000E-03 0. -1.
        -11    1    3    3    0    0 -0.95940320717E+01 -0.97435042473E+01 -0.14967521111E+02  0.20273332604E+02  0.51100000000E-03 0.  1.
         12    1    3    3    0    0  0.11714068753E+02  0.27632726550E+01  0.78922044741E+01  0.14392427661E+02  0.00000000000E+00 0. -1.
</event>
<event>
 7    1  0.7674040E-012  0.5930195E+02  0.7816164E-02  0.1266605E+00
        -11   -1    0    0    0    0  0.00000000000E+00  0.00000000000E+00  0.45593999997E+02  0.45594000000E+02  0.51100000000E-03 0. -1.
         11   -1    0    0    0    0 -0.00000000000E+00 -0.00000000000E+00 -0.45593999997E+02  0.45594000000E+02  0.51100000000E-03 0.  1.
    9900012    2    1    2    0    0  0.70070751018E+01  0.17766876276E+02 -0.25533493135E+02  0.59301948728E+02  0.50000008572E+02 0.  0.
         12    1    1    2    0    0 -0.70070751018E+01 -0.17766876276E+02  0.25533493135E+02  0.31886051272E+02  0.00000000000E+00 0. -1.
         11    1    3    3    0    0  0.41265071071E+01 -0.19460690085E+01  0.49131642422E+01  0.67048063823E+01  0.51100000000E-03 0. -1.
        -11    1    3    3    0    0  0.77602539019E+01  0.19912542527E+02 -0.38002977594E+02  0.43599967853E+02  0.51100000000E-03 0.  1.
        -12    1    3    3    0    0 -0.48796859072E+01 -0.19959724270E+00  0.75563202176E+01  0.89971744922E+01  0.00000000000E+00 0.  1.
</event>
<event>
 7    1  0.7674040E-012  0.5930194E+02  0.7816164E-02  0.1266605E+00
        -11   -1    0    0    0    0  0.00000000000E+00  0.00000000000E+00  0.45593999997E+02  0.45594000000E+02  0.51100000000E-03 0.  1.
         11   -1    0    0    0    0 -0.00000000000E+00 -0.00000000000E+00 -0.45593999997E+02  0.45594000000E+02  0.51100000000E-03 0. -1.
    9900012    2    1    2    0    0 -0.62956129427E+01  0.25788912534E+02  0.17664027382E+02  0.59301943246E+02  0.49999998574E+02 0.  0.
         12    1    1    2    0    0  0.62956129427E+01 -0.25788912534E+02 -0.17664027382E+02  0.31886056754E+02  0.00000000000E+00 0. -1.
         11    1    3    3    0    0 -0.28473348401E+01  0.15248506692E+02 -0.13316329569E+02  0.20443798705E+02  0.51100000000E-03 0. -1.
        -11    1    3    3    0    0  0.18019109236E+01 -0.59145832328E+01  0.82814309775E+01  0.10334954141E+02  0.51100000000E-03 0.  1.
         12    1    3    3    0    0 -0.52501890262E+01  0.16454989074E+02  0.22698925973E+02  0.28523190400E+02  0.00000000000E+00 0. -1.
</event>
<event>
 7    1  0.7674040E-012  0.5930195E+02  0.7816164E-02  0.1266605E+00
        -11   -1    0    0    0    0  0.00000000000E+00  0.00000000000E+00  0.45593999997E+02  0.45594000000E+02  0.51100000000E-03 0.  1.
         11   -1    0    0    0    0 -0.00000000000E+00 -0.00000000000E+00 -0.45593999997E+02  0.45594000000E+02  0.51100000000E-03 0. -1.
    9900012    2    1    2    0    0  0.20345974325E+02  0.22467684575E+02  0.98977146372E+01  0.59301948560E+02  0.50000008266E+02 0.  0.
         12    1    1    2    0    0 -0.20345974325E+02 -0.22467684575E+02 -0.98977146372E+01  0.31886051440E+02  0.00000000000E+00 0. -1.
         11    1    3    3    0    0  0.15858079859E+02 -0.45523027498E+01 -0.80688509861E+01  0.18365960733E+02  0.51100000000E-03 0. -1.
        -11    1    3    3    0    0  0.28869558997E+01  0.26031674943E+02  0.23439834119E+02  0.35148377466E+02  0.51100000000E-03 0.  1.
         12    1    3    3    0    0  0.16009385657E+01  0.98831238174E+00 -0.54732684960E+01  0.57876103604E+01  0.00000000000E+00 0. -1.
</event>
<event>
 7    1  0.7674040E-012  0.5930194E+02  0.7816164E-02  0.1266605E+00
        -11   -1    0    0    0    0  0.00000000000E+00  0.00000000000E+00  0.45593999997E+02  0.45594000000E+02  0.51100000000E-03 0. -1.
         11   -1    0    0    0    0 -0.00000000000E+00 -0.00000000000E+00 -0.45593999997E+02  0.45594000000E+02  0.51100000000E-03 0.  1.
    9900012    2    1    2    0    0  0.86521876975E+01  0.29974618303E+02 -0.65865446665E+01  0.59301942467E+02  0.49999997154E+02 0.  0.
         12    1    1    2    0    0 -0.86521876975E+01 -0.29974618303E+02  0.65865446665E+01  0.31886057533E+02  0.00000000000E+00 0. -1.
         11    1    3    3    0    0  0.15088923601E+02 -0.66713867791E+00  0.37924677253E+00  0.15108425392E+02  0.51100000000E-03 0. -1.
        -11    1    3    3    0    0 -0.11548637965E+01  0.35481008226E+02 -0.21563376625E+01  0.35565228067E+02  0.51100000000E-03 0.  1.
        -12    1    3    3    0    0 -0.52818721071E+01 -0.48392512453E+01 -0.48094537766E+01  0.86282890077E+01  0.00000000000E+00 0.  1.
</event>
<event>
 7    1  0.7674040E-012  0.5930183E+02  0.7816164E-02  0.1266605E+00
        -11   -1    0    0    0    0  0.00000000000E+00  0.00000000000E+00  0.45593999997E+02  0.45594000000E+02  0.51100000000E-03 0.  1.
         11   -1    0    0    0    0 -0.00000000000E+00 -0.00000000000E+00 -0.45593999997E+02  0.45594000000E+02  0.51100000000E-03 0. -1.
    9900012    2    1    2    0    0 -0.22107556526E+02 -0.28447557664E+01  0.22801124106E+02  0.59301828210E+02  0.49999788776E+02 0.  0.
         12    1    1    2    0    0  0.22107556526E+02  0.28447557664E+01 -0.22801124106E+02  0.31886171790E+02  0.00000000000E+00 0. -1.
         11    1    3    3    0    0  0.13714946661E+02  0.22845329816E+01  0.11378960260E+01  0.13950400012E+02  0.51100000000E-03 0. -1.
        -11    1    3    3    0    0 -0.20625306748E+02  0.52966739879E+01  0.13351908723E+02  0.25134269446E+02  0.51100000000E-03 0.  1.
         12    1    3    3    0    0 -0.15197196438E+02 -0.10425962736E+02  0.83113193572E+01  0.20217158752E+02  0.00000000000E+00 0. -1.
</event>
<event>
 7    1  0.7674040E-012  0.5930183E+02  0.7816164E-02  0.1266605E+00
        -11   -1    0    0    0    0  0.00000000000E+00  0.00000000000E+00  0.45593999997E+02  0.45594000000E+02  0.51100000000E-03 0. -1.
         11   -1    0    0    0    0 -0.00000000000E+00 -0.00000000000E+00 -0.45593999997E+02  0.45594000000E+02  0.51100000000E-03 0.  1.
    9900012    2    1    2    0    0  0.38670989628E+01 -0.31473596993E+02 -0.33445400929E+01  0.59301831988E+02  0.49999795666E+02 0.  0.
         12    1    1    2    0    0 -0.38670989628E+01  0.31473596993E+02  0.33445400929E+01  0.31886168012E+02  0.00000000000E+00 0. -1.
         11    1    3    3    0    0  0.40399684902E+01 -0.24688730635E+02 -0.13617381198E+02  0.28483114941E+02  0.51100000000E-03 0.  1.
        -11    1    3    3    0    0 -0.40053822177E+01  0.74126710900E+01  0.13357621462E+02  0.15792936104E+02  0.51100000000E-03 0. -1.
         12    1    3    3    0    0  0.38325126903E+01 -0.14197537448E+02 -0.30847803570E+01  0.15025780943E+02  0.00000000000E+00 0. -1.
</event>
<event>
 7    1  0.7674040E-012  0.5930196E+02  0.7816164E-02  0.1266605E+00
        -11   -1    0    0    0    0  0.00000000000E+00  0.00000000000E+00  0.45593999997E+02  0.45594000000E+02  0.51100000000E-03 0. -1.
         11   -1    0    0    0    0 -0.00000000000E+00 -0.00000000000E+00 -0.45593999997E+02  0.45594000000E+02  0.51100000000E-03 0.  1.
    9900012    2    1    2    0    0  0.26194214386E+02  0.12929043113E+02 -0.12783689193E+02  0.59301957090E+02  0.50000023822E+02 0.  0.
         12    1    1    2    0    0 -0.26194214386E+02 -0.12929043113E+02  0.12783689193E+02  0.31886042910E+02  0.00000000000E+00 0. -1.
         11    1    3    3    0    0  0.11612449097E+02  0.58921880380E+01  0.12316853410E+02  0.17924054567E+02  0.51100000000E-03 0. -1.
        -11    1    3    3    0    0  0.17681125049E+02  0.15692121159E+02 -0.19187002422E+02  0.30446771778E+02  0.51100000000E-03 0.  1.
         12    1    3    3    0    0 -0.30993597605E+01 -0.86552660839E+01 -0.59135401803E+01  0.10931130745E+02  0.00000000000E+00 0. -1.
</event>
<event>
 7    1  0.7674040E-012  0.5930199E+02  0.7816164E-02  0.1266605E+00
        -11   -1    0    0    0    0  0.00000000000E+00  0.00000000000E+00  0.45593999997E+02  0.45594000000E+02  0.51100000000E-03 0.  1.
         11   -1    0    0    0    0 -0.00000000000E+00 -0.00000000000E+00 -0.45593999997E+02  0.45594000000E+02  0.51100000000E-03 0. -1.
    9900012    2    1    2    0    0 -0.31829139384E+01 -0.14089408549E+02  0.28426665032E+02  0.59301989600E+02  0.50000083113E+02 0.  0.
         12    1    1    2    0    0  0.31829139384E+01  0.14089408549E+02 -0.28426665032E+02  0.31886010400E+02  0.00000000000E+00 0. -1.
         11    1    3    3    0    0 -0.19415910683E+02 -0.54327846539E+01  0.19089140653E+02  0.27764870392E+02  0.51100000000E-03 0.  1.
        -11    1    3    3    0    0  0.22419865790E+02 -0.76639054473E+01  0.86934238487E+01  0.25238095158E+02  0.51100000000E-03 0. -1.
         12    1    3    3    0    0 -0.61868690450E+01 -0.99271844722E+00  0.64410053005E+00  0.62990240505E+01  0.00000000000E+00 0. -1.
</event>
<event>
 7    1  0.7674040E-012  0.5930196E+02  0.7816164E-02  0.1266605E+00
        -11   -1    0    0    0    0  0.00000000000E+00  0.00000000000E+00  0.45593999997E+02  0.45594000000E+02  0.51100000000E-03 0.  1.
         11   -1    0    0    0    0 -0.00000000000E+00 -0.00000000000E+00 -0.45593999997E+02  0.45594000000E+02  0.51100000000E-03 0. -1.
    9900012    2    1    2    0    0  0.85582517850E+01 -0.53260445441E+01  0.30250773773E+02  0.59301957004E+02  0.50000023665E+02 0.  0.
         12    1    1    2    0    0 -0.85582517850E+01  0.53260445441E+01 -0.30250773773E+02  0.31886042996E+02  0.00000000000E+00 0. -1.
         11    1    3    3    0    0  0.68820046339E+00  0.12437892391E+02 -0.73894820491E+01  0.14483757532E+02  0.51100000000E-03 0. -1.
        -11    1    3    3    0    0  0.29309135819E+01 -0.79987348065E+00  0.18586649511E+02  0.18833310711E+02  0.51100000000E-03 0.  1.
         12    1    3    3    0    0  0.49391377398E+01 -0.16964063455E+02  0.19053606310E+02  0.25984888761E+02  0.00000000000E+00 0. -1.
</event>
<event>
 7    1  0.7674040E-012  0.5930195E+02  0.7816164E-02  0.1266605E+00
        -11   -1    0    0    0    0  0.00000000000E+00  0.00000000000E+00  0.45593999997E+02  0.45594000000E+02  0.51100000000E-03 0. -1.
         11   -1    0    0    0    0 -0.00000000000E+00 -0.00000000000E+00 -0.45593999997E+02  0.45594000000E+02  0.51100000000E-03 0.  1.
    9900012    2    1    2    0    0 -0.29146022657E+02  0.11878338549E+02 -0.51121731068E+01  0.59301954819E+02  0.50000019681E+02 0.  0.
         12    1    1    2    0    0  0.29146022657E+02 -0.11878338549E+02  0.51121731068E+01  0.31886045181E+02  0.00000000000E+00 0. -1.
         11    1    3    3    0    0  0.45378249756E+01 -0.25188494086E+01  0.11219881087E+02  0.12362127233E+02  0.51100000000E-03 0. -1.
        -11    1    3    3    0    0 -0.26413630376E+02  0.16500533621E+02 -0.21438856887E+02  0.37809682151E+02  0.51100000000E-03 0.  1.
        -12    1    3    3    0    0 -0.72702172561E+01 -0.21033456633E+01  0.51068026933E+01  0.91301454357E+01  0.00000000000E+00 0.  1.
</event>
<event>
 7    1  0.7674040E-012  0.5930193E+02  0.7816164E-02  0.1266605E+00
        -11   -1    0    0    0    0  0.00000000000E+00  0.00000000000E+00  0.45593999997E+02  0.45594000000E+02  0.51100000000E-03 0. -1.
         11   -1    0    0    0    0 -0.00000000000E+00 -0.00000000000E+00 -0.45593999997E+02  0.45594000000E+02  0.51100000000E-03 0.  1.
    9900012    2    1    2    0    0  0.16267639641E+02 -0.27421463879E+02  0.38595263489E+00  0.59301925607E+02  0.49999966405E+02 0.  0.
         12    1    1    2    0    0 -0.16267639641E+02  0.27421463879E+02 -0.38595263489E+00  0.31886074393E+02  0.00000000000E+00 0. -1.
         11    1    3    3    0    0  0.14470067838E+02 -0.36589556600E+02  0.13608588627E+02  0.41633786762E+02  0.51100000000E-03 0. -1.
        -11    1    3    3    0    0 -0.22139572466E+01  0.15532055748E+01 -0.53913770509E+01  0.60316665204E+01  0.51100000000E-03 0.  1.
         12    1    3    3    0    0  0.40115290493E+01  0.76148871461E+01 -0.78312589411E+01  0.11636472325E+02  0.00000000000E+00 0. -1.
</event>
<event>
 7    1  0.7674040E-012  0.5930194E+02  0.7816164E-02  0.1266605E+00
        -11   -1    0    0    0    0  0.00000000000E+00  0.00000000000E+00  0.45593999997E+02  0.45594000000E+02  0.51100000000E-03 0. -1.
         11   -1    0    0    0    0 -0.00000000000E+00 -0.00000000000E+00 -0.45593999997E+02  0.45594000000E+02  0.51100000000E-03 0.  1.
    9900012    2    1    2    0    0 -0.13561606976E+02 -0.15825319166E+02 -0.24132190251E+02  0.59301944791E+02  0.50000001391E+02 0.  0.
         12    1    1    2    0    0  0.13561606976E+02  0.15825319166E+02  0.24132190251E+02  0.31886055209E+02  0.00000000000E+00 0. -1.
         11    1    3    3    0    0  0.40294631498E+01  0.62912514925E+01 -0.47196181362E+01  0.88369233464E+01  0.51100000000E-03 0. -1.
        -11    1    3    3    0    0 -0.22459230933E+02 -0.12411500071E+02  0.27283691948E+01  0.25805162019E+02  0.51100000000E-03 0.  1.
        -12    1    3    3    0    0  0.48681608071E+01 -0.97050705875E+01 -0.22140941310E+02  0.24659859425E+02  0.00000000000E+00 0.  1.
</event>
<event>
 7    1  0.7674040E-012  0.5930191E+02  0.7816164E-02  0.1266605E+00
        -11   -1    0    0    0    0  0.00000000000E+00  0.00000000000E+00  0.45593999997E+02  0.45594000000E+02  0.51100000000E-03 0.  1.
         11   -1    0    0    0    0 -0.00000000000E+00 -0.00000000000E+00 -0.45593999997E+02  0.45594000000E+02  0.51100000000E-03 0. -1.
    9900012    2    1    2    0    0 -0.22950552355E+02  0.19850342456E+01  0.22046648517E+02  0.59301907026E+02  0.49999932517E+02 0.  0.
         12    1    1    2    0    0  0.22950552355E+02 -0.19850342456E+01 -0.22046648517E+02  0.31886092974E+02  0.00000000000E+00 0. -1.
         11    1    3    3    0    0 -0.97341658594E+01  0.13014380611E+01 -0.42864430775E+01  0.10715471083E+02  0.51100000000E-03 0. -1.
        -11    1    3    3    0    0  0.14053147888E+01 -0.17160158749E+02  0.15218243359E+02  0.22979140305E+02  0.51100000000E-03 0.  1.
        -12    1    3    3    0    0 -0.14621701284E+02  0.17843754934E+02  0.11114848235E+02  0.25607295638E+02  0.00000000000E+00 0.  1.
</event>
<event>
 7    1  0.7674040E-012  0.5930196E+02  0.7816164E-02  0.1266605E+00
        -11   -1    0    0    0    0  0.00000000000E+00  0.00000000000E+00  0.45593999997E+02  0.45594000000E+02  0.51100000000E-03 0. -1.
         11   -1    0    0    0    0 -0.00000000000E+00 -0.00000000000E+00 -0.45593999997E+02  0.45594000000E+02  0.51100000000E-03 0.  1.
    9900012    2    1    2    0    0 -0.66048454597E+00  0.10698211476E+02 -0.30030515624E+02  0.59301955446E+02  0.50000020825E+02 0.  0.
         12    1    1    2    0    0  0.66048454597E+00 -0.10698211476E+02  0.30030515624E+02  0.31886044554E+02  0.00000000000E+00 0. -1.
         11    1    3    3    0    0  0.31582784701E+01 -0.65842549093E+01 -0.24626507897E+02  0.25686417170E+02  0.51100000000E-03 0. -1.
        -11    1    3    3    0    0  0.11809295633E+02  0.48407834836E+01  0.53940171832E+00  0.12774333742E+02  0.51100000000E-03 0.  1.
        -12    1    3    3    0    0 -0.15628058649E+02  0.12441682901E+02 -0.59434094459E+01  0.20841204533E+02  0.00000000000E+00 0.  1.
</event>
<event>
 7    1  0.7674040E-012  0.5930201E+02  0.7816164E-02  0.1266605E+00
        -11   -1    0    0    0    0  0.00000000000E+00  0.00000000000E+00  0.45593999997E+02  0.45594000000E+02  0.51100000000E-03 0. -1.
         11   -1    0    0    0    0 -0.00000000000E+00 -0.00000000000E+00 -0.45593999997E+02  0.45594000000E+02  0.51100000000E-03 0.  1.
    9900012    2    1    2    0    0 -0.29462487772E+02 -0.14354708350E+01 -0.12108571485E+02  0.59302011452E+02  0.50000122966E+02 0.  0.
         12    1    1    2    0    0  0.29462487772E+02  0.14354708350E+01  0.12108571485E+02  0.31885988548E+02  0.00000000000E+00 0. -1.
         11    1    3    3    0    0 -0.29324282167E+02 -0.95519646838E+01 -0.15506772388E+02  0.34519755852E+02  0.51100000000E-03 0.  1.
        -11    1    3    3    0    0  0.63462319311E+01 -0.35543111354E+01  0.78561817862E+01  0.10706417696E+02  0.51100000000E-03 0. -1.
        -12    1    3    3    0    0 -0.64844375362E+01  0.11670804984E+02 -0.44579808831E+01  0.14075837904E+02  0.00000000000E+00 0.  1.
</event>
<event>
 7    1  0.7674040E-012  0.5930196E+02  0.7816164E-02  0.1266605E+00
        -11   -1    0    0    0    0  0.00000000000E+00  0.00000000000E+00  0.45593999997E+02  0.45594000000E+02  0.51100000000E-03 0.  1.
         11   -1    0    0    0    0 -0.00000000000E+00 -0.00000000000E+00 -0.45593999997E+02  0.45594000000E+02  0.51100000000E-03 0. -1.
    9900012    2    1    2    0    0  0.70347272671E+01  0.29022232832E+02  0.11177753097E+02  0.59301959942E+02  0.50000029024E+02 0.  0.
         12    1    1    2    0    0 -0.70347272671E+01 -0.29022232832E+02 -0.11177753097E+02  0.31886040058E+02  0.00000000000E+00 0. -1.
         11    1    3    3    0    0  0.10799502773E+02 -0.11397014467E+02  0.27696553676E+01  0.15943405848E+02  0.51100000000E-03 0. -1.
        -11    1    3    3    0    0 -0.31451560577E+01  0.39535666150E+02  0.52320805954E+01  0.40004194432E+02  0.51100000000E-03 0.  1.
        -12    1    3    3    0    0 -0.61961944856E+00  0.88358114838E+00  0.31760171344E+01  0.33543596624E+01  0.00000000000E+00 0.  1.
</event>
<event>
 7    1  0.7674040E-012  0.5930197E+02  0.7816164E-02  0.1266605E+00
        -11   -1    0    0    0    0  0.00000000000E+00  0.00000000000E+00  0.45593999997E+02  0.45594000000E+02  0.51100000000E-03 0. -1.
         11   -1    0    0    0    0 -0.00000000000E+00 -0.00000000000E+00 -0.45593999997E+02  0.45594000000E+02  0.51100000000E-03 0.  1.
    9900012    2    1    2    0    0 -0.20997616078E+02 -0.11473989830E+02 -0.21075265838E+02  0.59301966165E+02  0.50000040374E+02 0.  0.
         12    1    1    2    0    0  0.20997616078E+02  0.11473989830E+02  0.21075265838E+02  0.31886033835E+02  0.00000000000E+00 0. -1.
         11    1    3    3    0    0 -0.52668929941E+00 -0.16911963952E+02 -0.78640456112E+01  0.18658379886E+02  0.51100000000E-03 0. -1.
        -11    1    3    3    0    0 -0.28046569043E+02  0.95897368416E+01 -0.86632222724E+01  0.30880811326E+02  0.51100000000E-03 0.  1.
        -12    1    3    3    0    0  0.75756422643E+01 -0.41517627191E+01 -0.45479979546E+01  0.97627749532E+01  0.00000000000E+00 0.  1.
</event>
<event>
 7    1  0.7674040E-012  0.5930192E+02  0.7816164E-02  0.1266605E+00
        -11   -1    0    0    0    0  0.00000000000E+00  0.00000000000E+00  0.45593999997E+02  0.45594000000E+02  0.51100000000E-03 0. -1.
         11   -1    0    0    0    0 -0.00000000000E+00 -0.00000000000E+00 -0.45593999997E+02  0.45594000000E+02  0.51100000000E-03 0.  1.
    9900012    2    1    2    0    0 -0.99695801729E+01 -0.30047724212E+02 -0.38031088125E+01  0.59301923167E+02  0.49999961955E+02 0.  0.
         12    1    1    2    0    0  0.99695801729E+01  0.30047724212E+02  0.38031088125E+01  0.31886076833E+02  0.00000000000E+00 0. -1.
         11    1    3    3    0    0 -0.65248199954E+01  0.20762477950E+01  0.15481674941E+02  0.16928270441E+02  0.51100000000E-03 0. -1.
        -11    1    3    3    0    0  0.55784416357E+01 -0.59667577735E+01 -0.10581263237E+02  0.13367286238E+02  0.51100000000E-03 0.  1.
         12    1    3    3    0    0 -0.90232018132E+01 -0.26157214234E+02 -0.87035205168E+01  0.29006366488E+02  0.00000000000E+00 0. -1.
</event>
<event>
 7    1  0.7674040E-012  0.5930195E+02  0.7816164E-02  0.1266605E+00
        -11   -1    0    0    0    0  0.00000000000E+00  0.00000000000E+00  0.45593999997E+02  0.45594000000E+02  0.51100000000E-03 0.  1.
         11   -1    0    0    0    0 -0.00000000000E+00 -0.00000000000E+00 -0.45593999997E+02  0.45594000000E+02  0.51100000000E-03 0. -1.
    9900012    2    1    2    0    0 -0.12266175060E+02 -0.38133570398E+01  0.29184228672E+02  0.59301953746E+02  0.50000017724E+02 0.  0.
         12    1    1    2    0    0  0.12266175060E+02  0.38133570398E+01 -0.29184228672E+02  0.31886046254E+02  0.00000000000E+00 0. -1.
         11    1    3    3    0    0 -0.29355119699E+01  0.15784362887E+01 -0.70658040090E+01  0.78124438044E+01  0.51100000000E-03 0. -1.
        -11    1    3    3    0    0  0.38510317331E+01  0.19267212315E+01  0.36156641955E+02  0.36412160851E+02  0.51100000000E-03 0.  1.
        -12    1    3    3    0    0 -0.13181694823E+02 -0.73185145600E+01  0.93390725824E-01  0.15077349091E+02  0.00000000000E+00 0.  1.
</event>
<event>
 7    1  0.7674040E-012  0.5930195E+02  0.7816164E-02  0.1266605E+00
        -11   -1    0    0    0    0  0.00000000000E+00  0.00000000000E+00  0.45593999997E+02  0.45594000000E+02  0.51100000000E-03 0. -1.
         11   -1    0    0    0    0 -0.00000000000E+00 -0.00000000000E+00 -0.45593999997E+02  0.45594000000E+02  0.51100000000E-03 0.  1.
    9900012    2    1    2    0    0 -0.18671590198E+02  0.88972595810E+01  0.24267897978E+02  0.59301946923E+02  0.50000005280E+02 0.  0.
         12    1    1    2    0    0  0.18671590198E+02 -0.88972595810E+01 -0.24267897978E+02  0.31886053077E+02  0.00000000000E+00 0. -1.
         11    1    3    3    0    0  0.77087615722E+01  0.10098154617E+02  0.43887355085E+01  0.13440934911E+02  0.51100000000E-03 0. -1.
        -11    1    3    3    0    0 -0.28518662816E+02 -0.11325217937E+02  0.12411631860E+02  0.33100200842E+02  0.51100000000E-03 0.  1.
        -12    1    3    3    0    0  0.21383110452E+01  0.10124322900E+02  0.74675306089E+01  0.12760811170E+02  0.00000000000E+00 0.  1.
</event>
<event>
 7    1  0.7674040E-012  0.5930203E+02  0.7816164E-02  0.1266604E+00
        -11   -1    0    0    0    0  0.00000000000E+00  0.00000000000E+00  0.45593999997E+02  0.45594000000E+02  0.51100000000E-03 0. -1.
         11   -1    0    0    0    0 -0.00000000000E+00 -0.00000000000E+00 -0.45593999997E+02  0.45594000000E+02  0.51100000000E-03 0.  1.
    9900012    2    1    2    0    0  0.29644943887E+02 -0.11583800861E+02 -0.19255723674E+01  0.59302031779E+02  0.50000160037E+02 0.  0.
         12    1    1    2    0    0 -0.29644943887E+02  0.11583800861E+02  0.19255723674E+01  0.31885968221E+02  0.00000000000E+00 0. -1.
         11    1    3    3    0    0 -0.85804842101E+01  0.15562198856E+01 -0.79128802476E+01  0.11775406731E+02  0.51100000000E-03 0. -1.
        -11    1    3    3    0    0  0.21836212535E+02 -0.14609705198E+01 -0.76869156616E+01  0.23195760074E+02  0.51100000000E-03 0.  1.
        -12    1    3    3    0    0  0.16389215562E+02 -0.11679050226E+02  0.13674223542E+02  0.24330864974E+02  0.00000000000E+00 0.  1.
</event>
<event>
 7    1  0.7674040E-012  0.5930196E+02  0.7816164E-02  0.1266605E+00
        -11   -1    0    0    0    0  0.00000000000E+00  0.00000000000E+00  0.45593999997E+02  0.45594000000E+02  0.51100000000E-03 0.  1.
         11   -1    0    0    0    0 -0.00000000000E+00 -0.00000000000E+00 -0.45593999997E+02  0.45594000000E+02  0.51100000000E-03 0. -1.
    9900012    2    1    2    0    0 -0.23182552682E+02  0.63910717442E+01  0.20939025991E+02  0.59301962988E+02  0.50000034579E+02 0.  0.
         12    1    1    2    0    0  0.23182552682E+02 -0.63910717442E+01 -0.20939025991E+02  0.31886037012E+02  0.00000000000E+00 0. -1.
         11    1    3    3    0    0  0.74071748193E+01  0.13637290454E+02  0.25207813403E+01  0.15722476541E+02  0.51100000000E-03 0. -1.
        -11    1    3    3    0    0 -0.27344737515E+02  0.85613925232E+00  0.20987642489E+02  0.34481136607E+02  0.51100000000E-03 0.  1.
        -12    1    3    3    0    0 -0.32449899856E+01 -0.81023579626E+01 -0.25693978387E+01  0.90983498402E+01  0.00000000000E+00 0.  1.
</event>
<event>
 7    1  0.7674040E-012  0.5930200E+02  0.7816164E-02  0.1266605E+00
        -11   -1    0    0    0    0  0.00000000000E+00  0.00000000000E+00  0.45593999997E+02  0.45594000000E+02  0.51100000000E-03 0. -1.
         11   -1    0    0    0    0 -0.00000000000E+00 -0.00000000000E+00 -0.45593999997E+02  0.45594000000E+02  0.51100000000E-03 0.  1.
    9900012    2    1    2    0    0  0.24946974961E+02 -0.55235634836E+01 -0.19075000924E+02  0.59302000353E+02  0.50000102723E+02 0.  0.
         12    1    1    2    0    0 -0.24946974961E+02  0.55235634836E+01  0.19075000924E+02  0.31885999647E+02  0.00000000000E+00 0. -1.
         11    1    3    3    0    0  0.56736652712E+01 -0.24267260710E+02 -0.17892926613E+02  0.30679752982E+02  0.51100000000E-03 0. -1.
        -11    1    3    3    0    0  0.49200061354E+01  0.11496508223E+02 -0.78845465800E-01  0.12505294021E+02  0.51100000000E-03 0.  1.
         12    1    3    3    0    0  0.14353303555E+02  0.72471890033E+01 -0.11032288447E+01  0.16116953349E+02  0.00000000000E+00 0. -1.
</event>
<event>
 7    1  0.7674040E-012  0.5930193E+02  0.7816164E-02  0.1266605E+00
        -11   -1    0    0    0    0  0.00000000000E+00  0.00000000000E+00  0.45593999997E+02  0.45594000000E+02  0.51100000000E-03 0. -1.
         11   -1    0    0    0    0 -0.00000000000E+00 -0.00000000000E+00 -0.45593999997E+02  0.45594000000E+02  0.51100000000E-03 0.  1.
    9900012    2    1    2    0    0 -0.24119198088E+02 -0.87017828991E+01 -0.18954281994E+02  0.59301928622E+02  0.49999971904E+02 0.  0.
         12    1    1    2    0    0  0.24119198088E+02  0.87017828991E+01  0.18954281994E+02  0.31886071378E+02  0.00000000000E+00 0. -1.
         11    1    3    3    0    0 -0.15694091771E+02 -0.25843202466E+01  0.30704124675E+01  0.16199094439E+02  0.51100000000E-03 0. -1.
        -11    1    3    3    0    0 -0.10563848271E+02 -0.10663702881E+02 -0.30075371614E+02  0.33613054419E+02  0.51100000000E-03 0.  1.
        -12    1    3    3    0    0  0.21387419545E+01  0.45462402282E+01  0.80506771521E+01  0.94897797639E+01  0.00000000000E+00 0.  1.
</event>
<event>
 7    1  0.7674040E-012  0.5930196E+02  0.7816164E-02  0.1266605E+00
        -11   -1    0    0    0    0  0.00000000000E+00  0.00000000000E+00  0.45593999997E+02  0.45594000000E+02  0.51100000000E-03 0.  1.
         11   -1    0    0    0    0 -0.00000000000E+00 -0.00000000000E+00 -0.45593999997E+02  0.45594000000E+02  0.51100000000E-03 0. -1.
    9900012    2    1    2    0    0 -0.87704286130E+01  0.25364102712E+02  0.17218056817E+02  0.59301959089E+02  0.50000027468E+02 0.  0.
         12    1    1    2    0    0  0.87704286130E+01 -0.25364102712E+02 -0.17218056817E+02  0.31886040911E+02  0.00000000000E+00 0. -1.
         11    1    3    3    0    0 -0.10970391506E+02 -0.11838567004E+02  0.90936433429E+01  0.18525536646E+02  0.51100000000E-03 0. -1.
        -11    1    3    3    0    0  0.83766435167E+01  0.22394895694E+02  0.45698943758E+01  0.24343036882E+02  0.51100000000E-03 0.  1.
        -12    1    3    3    0    0 -0.61766806238E+01  0.14807774022E+02  0.35545190981E+01  0.16433385562E+02  0.00000000000E+00 0.  1.
</event>
<event>
 7    1  0.7674040E-012  0.5930193E+02  0.7816164E-02  0.1266605E+00
        -11   -1    0    0    0    0  0.00000000000E+00  0.00000000000E+00  0.45593999997E+02  0.45594000000E+02  0.51100000000E-03 0.  1.
         11   -1    0    0    0    0 -0.00000000000E+00 -0.00000000000E+00 -0.45593999997E+02  0.45594000000E+02  0.51100000000E-03 0. -1.
    9900012    2    1    2    0    0  0.26672951029E+02  0.28211468534E+01  0.17242863545E+02  0.59301928912E+02  0.49999972433E+02 0.  0.
         12    1    1    2    0    0 -0.26672951029E+02 -0.28211468534E+01 -0.17242863545E+02  0.31886071088E+02  0.00000000000E+00 0. -1.
         11    1    3    3    0    0  0.12836645419E+02 -0.54270476009E+00 -0.16339622424E+02  0.20785986994E+02  0.51100000000E-03 0. -1.
        -11    1    3    3    0    0  0.41957629832E+01 -0.38470877881E+01  0.53003198101E+01  0.77780397152E+01  0.51100000000E-03 0.  1.
         12    1    3    3    0    0  0.96405426268E+01  0.72109394015E+01  0.28282166159E+02  0.30737902203E+02  0.00000000000E+00 0. -1.
</event>
<event>
 7    1  0.7674040E-012  0.5930194E+02  0.7816164E-02  0.1266605E+00
        -11   -1    0    0    0    0  0.00000000000E+00  0.00000000000E+00  0.45593999997E+02  0.45594000000E+02  0.51100000000E-03 0.  1.
         11   -1    0    0    0    0 -0.00000000000E+00 -0.00000000000E+00 -0.45593999997E+02  0.45594000000E+02  0.51100000000E-03 0. -1.
    9900012    2    1    2    0    0  0.12624035841E+02  0.27868264791E+02  0.89841311818E+01  0.59301936015E+02  0.49999985387E+02 0.  0.
         12    1    1    2    0    0 -0.12624035841E+02 -0.27868264791E+02 -0.89841311818E+01  0.31886063985E+02  0.00000000000E+00 0. -1.
         11    1    3    3    0    0 -0.28600296381E+01  0.32912708718E+02  0.98288916892E-02  0.33036741085E+02  0.51100000000E-03 0. -1.
        -11    1    3    3    0    0  0.16996258736E+02  0.15406684106E+01  0.94215490903E+01  0.19493897961E+02  0.51100000000E-03 0.  1.
         12    1    3    3    0    0 -0.15121932573E+01 -0.65851123373E+01 -0.44724680027E+00  0.67712969690E+01  0.00000000000E+00 0. -1.
</event>
<event>
 7    1  0.7674040E-012  0.5930195E+02  0.7816164E-02  0.1266605E+00
        -11   -1    0    0    0    0  0.00000000000E+00  0.00000000000E+00  0.45593999997E+02  0.45594000000E+02  0.51100000000E-03 0.  1.
         11   -1    0    0    0    0 -0.00000000000E+00 -0.00000000000E+00 -0.45593999997E+02  0.45594000000E+02  0.51100000000E-03 0. -1.
    9900012    2    1    2    0    0 -0.61618213887E+01 -0.22499889878E+02  0.21737224360E+02  0.59301952735E+02  0.50000015879E+02 0.  0.
         12    1    1    2    0    0  0.61618213887E+01  0.22499889878E+02 -0.21737224360E+02  0.31886047265E+02  0.00000000000E+00 0. -1.
         11    1    3    3    0    0  0.10698977795E+02 -0.19464758293E+02  0.14524449440E+02  0.26538737216E+02  0.51100000000E-03 0. -1.
        -11    1    3    3    0    0 -0.71218110452E+01  0.79441945148E+01  0.13147994454E+02  0.16932223052E+02  0.51100000000E-03 0.  1.
        -12    1    3    3    0    0 -0.97389881380E+01 -0.10979326100E+02 -0.59352195340E+01  0.15830992467E+02  0.00000000000E+00 0.  1.
</event>
<event>
 7    1  0.7674040E-012  0.5930194E+02  0.7816164E-02  0.1266605E+00
        -11   -1    0    0    0    0  0.00000000000E+00  0.00000000000E+00  0.45593999997E+02  0.45594000000E+02  0.51100000000E-03 0. -1.
         11   -1    0    0    0    0 -0.00000000000E+00 -0.00000000000E+00 -0.45593999997E+02  0.45594000000E+02  0.51100000000E-03 0.  1.
    9900012    2    1    2    0    0 -0.24353560167E+02 -0.18572918765E+02  0.88696915488E+01  0.59301942978E+02  0.49999998086E+02 0.  0.
         12    1    1    2    0    0  0.24353560167E+02  0.18572918765E+02 -0.88696915488E+01  0.31886057022E+02  0.00000000000E+00 0. -1.
         11    1    3    3    0    0 -0.51783494241E+01 -0.27991016063E+02  0.18216288527E+02  0.33795642484E+02  0.51100000000E-03 0. -1.
        -11    1    3    3    0    0 -0.77905495479E+01  0.71043112327E+01 -0.90344362281E+01  0.13884701602E+02  0.51100000000E-03 0.  1.
         12    1    3    3    0    0 -0.11384661195E+02  0.23137860650E+01 -0.31216074958E+00  0.11621598892E+02  0.00000000000E+00 0. -1.
</event>
<event>
 7    1  0.7674040E-012  0.5930194E+02  0.7816164E-02  0.1266605E+00
        -11   -1    0    0    0    0  0.00000000000E+00  0.00000000000E+00  0.45593999997E+02  0.45594000000E+02  0.51100000000E-03 0. -1.
         11   -1    0    0    0    0 -0.00000000000E+00 -0.00000000000E+00 -0.45593999997E+02  0.45594000000E+02  0.51100000000E-03 0.  1.
    9900012    2    1    2    0    0 -0.11766902211E+02  0.64306605977E+01 -0.28929354748E+02  0.59301938006E+02  0.49999989018E+02 0.  0.
         12    1    1    2    0    0  0.11766902211E+02 -0.64306605977E+01  0.28929354748E+02  0.31886061994E+02  0.00000000000E+00 0. -1.
         11    1    3    3    0    0 -0.14902337169E+02  0.22868583326E+02 -0.65133125209E+01  0.28061984903E+02  0.51100000000E-03 0. -1.
        -11    1    3    3    0    0 -0.22700272712E+01 -0.46691649486E+00 -0.10093266869E+02  0.10355919619E+02  0.51100000000E-03 0.  1.
         12    1    3    3    0    0  0.54054622289E+01 -0.15971006233E+02 -0.12322775358E+02  0.20884033484E+02  0.00000000000E+00 0. -1.
</event>
<event>
 7    1  0.7674040E-012  0.5930186E+02  0.7816164E-02  0.1266605E+00
        -11   -1    0    0    0    0  0.00000000000E+00  0.00000000000E+00  0.45593999997E+02  0.45594000000E+02  0.51100000000E-03 0. -1.
         11   -1    0    0    0    0 -0.00000000000E+00 -0.00000000000E+00 -0.45593999997E+02  0.45594000000E+02  0.51100000000E-03 0.  1.
    9900012    2    1    2    0    0 -0.26402230571E+02  0.17677112830E+02  0.26772319436E+01  0.59301864016E+02  0.49999854077E+02 0.  0.
         12    1    1    2    0    0  0.26402230571E+02 -0.17677112830E+02 -0.26772319436E+01  0.31886135984E+02  0.00000000000E+00 0. -1.
         11    1    3    3    0    0  0.65097574421E+01  0.47253125488E+01  0.11478767962E+02  0.14016691294E+02  0.51100000000E-03 0. -1.
        -11    1    3    3    0    0 -0.36353287210E+02  0.15981146767E+02 -0.68276722195E+01  0.40293617995E+02  0.51100000000E-03 0.  1.
         12    1    3    3    0    0  0.34412991966E+01 -0.30293464859E+01 -0.19738637991E+01  0.49915547267E+01  0.00000000000E+00 0. -1.
</event>
<event>
 7    1  0.7674040E-012  0.5930196E+02  0.7816164E-02  0.1266605E+00
        -11   -1    0    0    0    0  0.00000000000E+00  0.00000000000E+00  0.45593999997E+02  0.45594000000E+02  0.51100000000E-03 0.  1.
         11   -1    0    0    0    0 -0.00000000000E+00 -0.00000000000E+00 -0.45593999997E+02  0.45594000000E+02  0.51100000000E-03 0. -1.
    9900012    2    1    2    0    0  0.19446000399E+02 -0.84076445566E+01  0.23830320423E+02  0.59301959325E+02  0.50000027898E+02 0.  0.
         12    1    1    2    0    0 -0.19446000399E+02  0.84076445566E+01 -0.23830320423E+02  0.31886040675E+02  0.00000000000E+00 0. -1.
         11    1    3    3    0    0  0.23098194985E+01  0.11487372537E+02 -0.65711534174E+01  0.13434100320E+02  0.51100000000E-03 0. -1.
        -11    1    3    3    0    0  0.17131834844E+02 -0.41181515828E+01  0.21339385172E+02  0.27673602899E+02  0.51100000000E-03 0.  1.
         12    1    3    3    0    0  0.43460559445E-02 -0.15776865511E+02  0.90620886675E+01  0.18194256106E+02  0.00000000000E+00 0. -1.
</event>
<event>
 7    1  0.7674040E-012  0.5930202E+02  0.7816164E-02  0.1266604E+00
        -11   -1    0    0    0    0  0.00000000000E+00  0.00000000000E+00  0.45593999997E+02  0.45594000000E+02  0.51100000000E-03 0.  1.
         11   -1    0    0    0    0 -0.00000000000E+00 -0.00000000000E+00 -0.45593999997E+02  0.45594000000E+02  0.51100000000E-03 0. -1.
    9900012    2    1    2    0    0 -0.17553214825E+02  0.13134797966E+02  0.23153345172E+02  0.59302020935E+02  0.50000140260E+02 0.  0.
         12    1    1    2    0    0  0.17553214825E+02 -0.13134797966E+02 -0.23153345172E+02  0.31885979065E+02  0.00000000000E+00 0. -1.
         11    1    3    3    0    0 -0.75404195087E+01  0.25877991645E+02  0.64069767728E+01  0.27705193188E+02  0.51100000000E-03 0. -1.
        -11    1    3    3    0    0 -0.16070230810E+02 -0.12092447175E+02  0.98479503443E+01  0.22393341046E+02  0.51100000000E-03 0.  1.
        -12    1    3    3    0    0  0.60574354944E+01 -0.65074650414E+00  0.68984180550E+01  0.92034867003E+01  0.00000000000E+00 0.  1.
</event>
<event>
 7    1  0.7674040E-012  0.5930194E+02  0.7816164E-02  0.1266605E+00
        -11   -1    0    0    0    0  0.00000000000E+00  0.00000000000E+00  0.45593999997E+02  0.45594000000E+02  0.51100000000E-03 0. -1.
         11   -1    0    0    0    0 -0.00000000000E+00 -0.00000000000E+00 -0.45593999997E+02  0.45594000000E+02  0.51100000000E-03 0.  1.
    9900012    2    1    2    0    0  0.18996682456E+02  0.10439809329E+02 -0.23384972628E+02  0.59301944929E+02  0.50000001644E+02 0.  0.
         12    1    1    2    0    0 -0.18996682456E+02 -0.10439809329E+02  0.23384972628E+02  0.31886055071E+02  0.00000000000E+00 0. -1.
         11    1    3    3    0    0 -0.10227516217E+02 -0.11680896457E+02 -0.88451316916E+01  0.17868457821E+02  0.51100000000E-03 0. -1.
        -11    1    3    3    0    0  0.58784999967E+01  0.10640141257E+02 -0.81785013425E+01  0.14651186050E+02  0.51100000000E-03 0.  1.
         12    1    3    3    0    0  0.23345698676E+02  0.11480564529E+02 -0.63613395939E+01  0.26782301059E+02  0.00000000000E+00 0. -1.
</event>
<event>
 7    1  0.7674040E-012  0.5930191E+02  0.7816164E-02  0.1266605E+00
        -11   -1    0    0    0    0  0.00000000000E+00  0.00000000000E+00  0.45593999997E+02  0.45594000000E+02  0.51100000000E-03 0. -1.
         11   -1    0    0    0    0 -0.00000000000E+00 -0.00000000000E+00 -0.45593999997E+02  0.45594000000E+02  0.51100000000E-03 0.  1.
    9900012    2    1    2    0    0 -0.18005113004E+01 -0.19444409212E+02 -0.25207064180E+02  0.59301906242E+02  0.49999931089E+02 0.  0.
         12    1    1    2    0    0  0.18005113004E+01  0.19444409212E+02  0.25207064180E+02  0.31886093758E+02  0.00000000000E+00 0. -1.
         11    1    3    3    0    0  0.18518594647E+02  0.18905135255E+01 -0.19629913504E+01  0.18718058777E+02  0.51100000000E-03 0. -1.
        -11    1    3    3    0    0 -0.16525895499E+02 -0.62002000716E+01 -0.11739522430E+02  0.21198209597E+02  0.51100000000E-03 0.  1.
        -12    1    3    3    0    0 -0.37932104481E+01 -0.15134722666E+02 -0.11504550399E+02  0.19385637869E+02  0.00000000000E+00 0.  1.
</event>
<event>
 7    1  0.7674040E-012  0.5930194E+02  0.7816164E-02  0.1266605E+00
        -11   -1    0    0    0    0  0.00000000000E+00  0.00000000000E+00  0.45593999997E+02  0.45594000000E+02  0.51100000000E-03 0.  1.
         11   -1    0    0    0    0 -0.00000000000E+00 -0.00000000000E+00 -0.45593999997E+02  0.45594000000E+02  0.51100000000E-03 0. -1.
    9900012    2    1    2    0    0  0.13709313652E+01 -0.17426502295E+02 -0.26667558026E+02  0.59301935863E+02  0.49999985110E+02 0.  0.
         12    1    1    2    0    0 -0.13709313652E+01  0.17426502295E+02  0.26667558026E+02  0.31886064137E+02  0.00000000000E+00 0. -1.
         11    1    3    3    0    0 -0.31369501984E+01 -0.18520462859E+02  0.54849121487E+01  0.19568655104E+02  0.51100000000E-03 0.  1.
        -11    1    3    3    0    0  0.76930764156E+01  0.10189357085E+02 -0.23675110945E+02  0.26898276916E+02  0.51100000000E-03 0. -1.
         12    1    3    3    0    0 -0.31851948519E+01 -0.90953965215E+01 -0.84773592306E+01  0.12835003843E+02  0.00000000000E+00 0. -1.
</event>
<event>
 7    1  0.7674040E-012  0.5930199E+02  0.7816164E-02  0.1266605E+00
        -11   -1    0    0    0    0  0.00000000000E+00  0.00000000000E+00  0.45593999997E+02  0.45594000000E+02  0.51100000000E-03 0.  1.
         11   -1    0    0    0    0 -0.00000000000E+00 -0.00000000000E+00 -0.45593999997E+02  0.45594000000E+02  0.51100000000E-03 0. -1.
    9900012    2    1    2    0    0 -0.11413931347E+02 -0.19089429000E+02  0.22848045924E+02  0.59301994749E+02  0.50000092503E+02 0.  0.
         12    1    1    2    0    0  0.11413931347E+02  0.19089429000E+02 -0.22848045924E+02  0.31886005251E+02  0.00000000000E+00 0. -1.
         11    1    3    3    0    0 -0.31175385637E+01 -0.67608789679E+01 -0.51626741945E+01  0.90598971415E+01  0.51100000000E-03 0. -1.
        -11    1    3    3    0    0 -0.21590647985E+02 -0.13072233632E+02  0.26890444147E+02  0.36880013005E+02  0.51100000000E-03 0.  1.
        -12    1    3    3    0    0  0.13294255202E+02  0.74368360028E+00  0.11202759716E+01  0.13362084602E+02  0.00000000000E+00 0.  1.
</event>
<event>
 7    1  0.7674040E-012  0.5930194E+02  0.7816164E-02  0.1266605E+00
        -11   -1    0    0    0    0  0.00000000000E+00  0.00000000000E+00  0.45593999997E+02  0.45594000000E+02  0.51100000000E-03 0.  1.
         11   -1    0    0    0    0 -0.00000000000E+00 -0.00000000000E+00 -0.45593999997E+02  0.45594000000E+02  0.51100000000E-03 0. -1.
    9900012    2    1    2    0    0  0.96091730303E+01  0.28944337320E+02  0.93064298351E+01  0.59301944968E+02  0.50000001715E+02 0.  0.
         12    1    1    2    0    0 -0.96091730303E+01 -0.28944337320E+02 -0.93064298351E+01  0.31886055032E+02  0.00000000000E+00 0. -1.
         11    1    3    3    0    0  0.16971582943E+02  0.14142523647E+01  0.60458629378E+01  0.18071723666E+02  0.51100000000E-03 0. -1.
        -11    1    3    3    0    0 -0.18979942639E+01  0.18105935356E+02 -0.12491167455E+02  0.22078418014E+02  0.51100000000E-03 0.  1.
        -12    1    3    3    0    0 -0.54644156489E+01  0.94241495999E+01  0.15751734353E+02  0.19151803288E+02  0.00000000000E+00 0.  1.
</event>
<event>
 7    1  0.7674040E-012  0.5930195E+02  0.7816164E-02  0.1266605E+00
        -11   -1    0    0    0    0  0.00000000000E+00  0.00000000000E+00  0.45593999997E+02  0.45594000000E+02  0.51100000000E-03 0.  1.
         11   -1    0    0    0    0 -0.00000000000E+00 -0.00000000000E+00 -0.45593999997E+02  0.45594000000E+02  0.51100000000E-03 0. -1.
    9900012    2    1    2    0    0  0.18962525420E+02  0.15303652525E+02  0.20565536820E+02  0.59301945750E+02  0.50000003142E+02 0.  0.
         12    1    1    2    0    0 -0.18962525420E+02 -0.15303652525E+02 -0.20565536820E+02  0.31886054250E+02  0.00000000000E+00 0. -1.
         11    1    3    3    0    0  0.20522280990E+02  0.10556439357E+02 -0.10232164866E+02  0.25244794058E+02  0.51100000000E-03 0. -1.
        -11    1    3    3    0    0 -0.75262096984E+01  0.38327309262E+01  0.19429752200E+02  0.21186055074E+02  0.51100000000E-03 0.  1.
        -12    1    3    3    0    0  0.59664541291E+01  0.91448224146E+00  0.11367949486E+02  0.12871096619E+02  0.00000000000E+00 0.  1.
</event>
<event>
 7    1  0.7674040E-012  0.5930194E+02  0.7816164E-02  0.1266605E+00
        -11   -1    0    0    0    0  0.00000000000E+00  0.00000000000E+00  0.45593999997E+02  0.45594000000E+02  0.51100000000E-03 0. -1.
         11   -1    0    0    0    0 -0.00000000000E+00 -0.00000000000E+00 -0.45593999997E+02  0.45594000000E+02  0.51100000000E-03 0.  1.
    9900012    2    1    2    0    0 -0.19976273884E+02  0.23074775574E+02 -0.92316882575E+01  0.59301939501E+02  0.49999991744E+02 0.  0.
         12    1    1    2    0    0  0.19976273884E+02 -0.23074775574E+02  0.92316882575E+01  0.31886060499E+02  0.00000000000E+00 0. -1.
         11    1    3    3    0    0 -0.53422785096E+01 -0.12000394780E+02  0.80053458639E+00  0.13160177447E+02  0.51100000000E-03 0. -1.
        -11    1    3    3    0    0 -0.20852459287E+02  0.28103949616E+02 -0.44958079702E+01  0.35282705848E+02  0.51100000000E-03 0.  1.
        -12    1    3    3    0    0  0.62184639132E+01  0.69712207387E+01 -0.55364148737E+01  0.10859056206E+02  0.00000000000E+00 0.  1.
</event>
<event>
 7    1  0.7674040E-012  0.5930194E+02  0.7816164E-02  0.1266605E+00
        -11   -1    0    0    0    0  0.00000000000E+00  0.00000000000E+00  0.45593999997E+02  0.45594000000E+02  0.51100000000E-03 0.  1.
         11   -1    0    0    0    0 -0.00000000000E+00 -0.00000000000E+00 -0.45593999997E+02  0.45594000000E+02  0.51100000000E-03 0. -1.
    9900012    2    1    2    0    0  0.88128354571E+01  0.12838884568E+02  0.27824775042E+02  0.59301935146E+02  0.49999983802E+02 0.  0.
         12    1    1    2    0    0 -0.88128354571E+01 -0.12838884568E+02 -0.27824775042E+02  0.31886064854E+02  0.00000000000E+00 0. -1.
         11    1    3    3    0    0 -0.34303061324E+00  0.13222395426E+01 -0.66688327501E+01  0.68072988711E+01  0.51100000000E-03 0. -1.
        -11    1    3    3    0    0  0.38190126699E+00  0.85360234369E+01  0.40539577214E+02  0.41430265092E+02  0.51100000000E-03 0.  1.
        -12    1    3    3    0    0  0.87739648034E+01  0.29806215885E+01 -0.60459694216E+01  0.11064371183E+02  0.00000000000E+00 0.  1.
</event>
<event>
 7    1  0.7674040E-012  0.5930211E+02  0.7816164E-02  0.1266604E+00
        -11   -1    0    0    0    0  0.00000000000E+00  0.00000000000E+00  0.45593999997E+02  0.45594000000E+02  0.51100000000E-03 0.  1.
         11   -1    0    0    0    0 -0.00000000000E+00 -0.00000000000E+00 -0.45593999997E+02  0.45594000000E+02  0.51100000000E-03 0. -1.
    9900012    2    1    2    0    0 -0.10979445336E+02 -0.29661953512E+02  0.40410889050E+01  0.59302108048E+02  0.50000299133E+02 0.  0.
         12    1    1    2    0    0  0.10979445336E+02  0.29661953512E+02 -0.40410889050E+01  0.31885891952E+02  0.00000000000E+00 0. -1.
         11    1    3    3    0    0 -0.11162349438E+02  0.82850583464E+01 -0.97272038846E+01  0.16966400103E+02  0.51100000000E-03 0. -1.
        -11    1    3    3    0    0 -0.36772834237E+01 -0.11729698226E+02  0.94075241329E+01  0.15479332816E+02  0.51100000000E-03 0.  1.
         12    1    3    3    0    0  0.38601875254E+01 -0.26217313632E+02  0.43607686567E+01  0.26856375129E+02  0.00000000000E+00 0. -1.
</event>
<event>
 7    1  0.7674040E-012  0.5930196E+02  0.7816164E-02  0.1266605E+00
        -11   -1    0    0    0    0  0.00000000000E+00  0.00000000000E+00  0.45593999997E+02  0.45594000000E+02  0.51100000000E-03 0.  1.
         11   -1    0    0    0    0 -0.00000000000E+00 -0.00000000000E+00 -0.45593999997E+02  0.45594000000E+02  0.51100000000E-03 0. -1.
    9900012    2    1    2    0    0 -0.23741691015E+02  0.10612502460E+02  0.18450641258E+02  0.59301964443E+02  0.50000037232E+02 0.  0.
         12    1    1    2    0    0  0.23741691015E+02 -0.10612502460E+02 -0.18450641258E+02  0.31886035557E+02  0.00000000000E+00 0. -1.
         11    1    3    3    0    0  0.10796508728E+02  0.13268942658E+02  0.64453368689E-01  0.17106536601E+02  0.51100000000E-03 0. -1.
        -11    1    3    3    0    0 -0.20261505714E+01 -0.17924930480E+01  0.73798132011E+01  0.78600229395E+01  0.51100000000E-03 0.  1.
         12    1    3    3    0    0 -0.32512049172E+02 -0.86394714957E+00  0.11006374688E+02  0.34335404902E+02  0.00000000000E+00 0. -1.
</event>
<event>
 7    1  0.7674040E-012  0.5930194E+02  0.7816164E-02  0.1266605E+00
        -11   -1    0    0    0    0  0.00000000000E+00  0.00000000000E+00  0.45593999997E+02  0.45594000000E+02  0.51100000000E-03 0.  1.
         11   -1    0    0    0    0 -0.00000000000E+00 -0.00000000000E+00 -0.45593999997E+02  0.45594000000E+02  0.51100000000E-03 0. -1.
    9900012    2    1    2    0    0 -0.22656852690E+02 -0.10756772630E+02  0.19689590648E+02  0.59301935471E+02  0.49999984395E+02 0.  0.
         12    1    1    2    0    0  0.22656852690E+02  0.10756772630E+02 -0.19689590648E+02  0.31886064529E+02  0.00000000000E+00 0. -1.
         11    1    3    3    0    0 -0.11805071023E+02 -0.12620144150E+02 -0.92962433756E+01  0.19622636963E+02  0.51100000000E-03 0. -1.
        -11    1    3    3    0    0 -0.15884824776E+02  0.88480198491E+01  0.16776766089E+02  0.24740149435E+02  0.51100000000E-03 0.  1.
        -12    1    3    3    0    0  0.50330431079E+01 -0.69846483284E+01  0.12209067935E+02  0.14939149073E+02  0.00000000000E+00 0.  1.
</event>
<event>
 7    1  0.7674040E-012  0.5930176E+02  0.7816164E-02  0.1266605E+00
        -11   -1    0    0    0    0  0.00000000000E+00  0.00000000000E+00  0.45593999997E+02  0.45594000000E+02  0.51100000000E-03 0.  1.
         11   -1    0    0    0    0 -0.00000000000E+00 -0.00000000000E+00 -0.45593999997E+02  0.45594000000E+02  0.51100000000E-03 0. -1.
    9900012    2    1    2    0    0  0.65846335756E-01 -0.10921311280E+02  0.29957518273E+02  0.59301760383E+02  0.49999665075E+02 0.  0.
         12    1    1    2    0    0 -0.65846335756E-01  0.10921311280E+02 -0.29957518273E+02  0.31886239617E+02  0.00000000000E+00 0. -1.
         11    1    3    3    0    0  0.15919111498E+02 -0.43985815628E+01 -0.20558850002E+01  0.16643085472E+02  0.51100000000E-03 0. -1.
        -11    1    3    3    0    0  0.35587400829E+01  0.17873625055E+01  0.15064385518E+02  0.15581880727E+02  0.51100000000E-03 0.  1.
        -12    1    3    3    0    0 -0.19412005245E+02 -0.83100922230E+01  0.16949017756E+02  0.27076794183E+02  0.00000000000E+00 0.  1.
</event>
<event>
 7    1  0.7674040E-012  0.5930203E+02  0.7816164E-02  0.1266604E+00
        -11   -1    0    0    0    0  0.00000000000E+00  0.00000000000E+00  0.45593999997E+02  0.45594000000E+02  0.51100000000E-03 0. -1.
         11   -1    0    0    0    0 -0.00000000000E+00 -0.00000000000E+00 -0.45593999997E+02  0.45594000000E+02  0.51100000000E-03 0.  1.
    9900012    2    1    2    0    0 -0.31709209203E+01 -0.30742296447E+02 -0.78467693901E+01  0.59302026278E+02  0.50000150005E+02 0.  0.
         12    1    1    2    0    0  0.31709209203E+01  0.30742296447E+02  0.78467693901E+01  0.31885973722E+02  0.00000000000E+00 0. -1.
         11    1    3    3    0    0 -0.29795732582E+01 -0.33528216960E+02  0.12862438311E+02  0.36034171406E+02  0.51100000000E-03 0. -1.
        -11    1    3    3    0    0 -0.51554760554E+01  0.22128937370E+01 -0.11025213793E+02  0.12370576846E+02  0.51100000000E-03 0.  1.
         12    1    3    3    0    0  0.49641283933E+01  0.57302677615E+00 -0.96839939076E+01  0.10897278027E+02  0.00000000000E+00 0. -1.
</event>
<event>
 7    1  0.7674040E-012  0.5930193E+02  0.7816164E-02  0.1266605E+00
        -11   -1    0    0    0    0  0.00000000000E+00  0.00000000000E+00  0.45593999997E+02  0.45594000000E+02  0.51100000000E-03 0.  1.
         11   -1    0    0    0    0 -0.00000000000E+00 -0.00000000000E+00 -0.45593999997E+02  0.45594000000E+02  0.51100000000E-03 0. -1.
    9900012    2    1    2    0    0  0.78634904146E+01  0.26762245841E+02  0.15448930018E+02  0.59301925882E+02  0.49999966907E+02 0.  0.
         12    1    1    2    0    0 -0.78634904146E+01 -0.26762245841E+02 -0.15448930018E+02  0.31886074118E+02  0.00000000000E+00 0. -1.
         11    1    3    3    0    0  0.99329922336E+01 -0.84554310384E+01  0.14723278848E+02  0.19670627571E+02  0.51100000000E-03 0. -1.
        -11    1    3    3    0    0  0.67506888872E+01  0.22084833311E+02  0.41023893701E+01  0.23455090314E+02  0.51100000000E-03 0.  1.
         12    1    3    3    0    0 -0.88201907062E+01  0.13132843568E+02 -0.33767382005E+01  0.16176207997E+02  0.00000000000E+00 0. -1.
</event>
<event>
 7    1  0.7674040E-012  0.5930193E+02  0.7816164E-02  0.1266605E+00
        -11   -1    0    0    0    0  0.00000000000E+00  0.00000000000E+00  0.45593999997E+02  0.45594000000E+02  0.51100000000E-03 0.  1.
         11   -1    0    0    0    0 -0.00000000000E+00 -0.00000000000E+00 -0.45593999997E+02  0.45594000000E+02  0.51100000000E-03 0. -1.
    9900012    2    1    2    0    0  0.31742541620E+02  0.22365476175E+01  0.20322907880E+01  0.59301932516E+02  0.49999979005E+02 0.  0.
         12    1    1    2    0    0 -0.31742541620E+02 -0.22365476175E+01 -0.20322907880E+01  0.31886067484E+02  0.00000000000E+00 0. -1.
         11    1    3    3    0    0 -0.56414396614E+01 -0.33503606831E+00 -0.28455005272E+00  0.56585386465E+01  0.51100000000E-03 0. -1.
        -11    1    3    3    0    0  0.30521949202E+02  0.63286889296E+01  0.18087553661E+02  0.36038885726E+02  0.51100000000E-03 0.  1.
        -12    1    3    3    0    0  0.68620320794E+01 -0.37571052438E+01 -0.15770712821E+02  0.17604508143E+02  0.00000000000E+00 0.  1.
</event>
<event>
 7    1  0.7674040E-012  0.5930195E+02  0.7816164E-02  0.1266605E+00
        -11   -1    0    0    0    0  0.00000000000E+00  0.00000000000E+00  0.45593999997E+02  0.45594000000E+02  0.51100000000E-03 0.  1.
         11   -1    0    0    0    0 -0.00000000000E+00 -0.00000000000E+00 -0.45593999997E+02  0.45594000000E+02  0.51100000000E-03 0. -1.
    9900012    2    1    2    0    0 -0.21830554141E+02  0.31143018504E-01  0.23241044944E+02  0.59301949224E+02  0.50000009477E+02 0.  0.
         12    1    1    2    0    0  0.21830554141E+02 -0.31143018504E-01 -0.23241044944E+02  0.31886050776E+02  0.00000000000E+00 0. -1.
         11    1    3    3    0    0 -0.60638126666E+01 -0.16292245868E+02 -0.46122305792E+00  0.17390222151E+02  0.51100000000E-03 0. -1.
        -11    1    3    3    0    0  0.51229519872E+01  0.11997572274E+02  0.11140652783E+02  0.17155189367E+02  0.51100000000E-03 0.  1.
        -12    1    3    3    0    0 -0.20889693462E+02  0.43258166129E+01  0.12561615219E+02  0.24756537706E+02  0.00000000000E+00 0.  1.
</event>
<event>
 7    1  0.7674040E-012  0.5930194E+02  0.7816164E-02  0.1266605E+00
        -11   -1    0    0    0    0  0.00000000000E+00  0.00000000000E+00  0.45593999997E+02  0.45594000000E+02  0.51100000000E-03 0.  1.
         11   -1    0    0    0    0 -0.00000000000E+00 -0.00000000000E+00 -0.45593999997E+02  0.45594000000E+02  0.51100000000E-03 0. -1.
    9900012    2    1    2    0    0 -0.29808073050E+02  0.10787923257E+02 -0.34380229047E+01  0.59301944919E+02  0.50000001626E+02 0.  0.
         12    1    1    2    0    0  0.29808073050E+02 -0.10787923257E+02  0.34380229047E+01  0.31886055081E+02  0.00000000000E+00 0. -1.
         11    1    3    3    0    0 -0.40282151611E+01 -0.79454443367E+01 -0.16496262967E+02  0.18747887753E+02  0.51100000000E-03 0. -1.
        -11    1    3    3    0    0 -0.11741436915E+02 -0.65116167504E+00  0.11689387016E+02  0.16580926435E+02  0.51100000000E-03 0.  1.
         12    1    3    3    0    0 -0.14038420974E+02  0.19384529268E+02  0.13688530458E+01  0.23973130731E+02  0.00000000000E+00 0. -1.
</event>
<event>
 7    1  0.7674040E-012  0.5930197E+02  0.7816164E-02  0.1266605E+00
        -11   -1    0    0    0    0  0.00000000000E+00  0.00000000000E+00  0.45593999997E+02  0.45594000000E+02  0.51100000000E-03 0. -1.
         11   -1    0    0    0    0 -0.00000000000E+00 -0.00000000000E+00 -0.45593999997E+02  0.45594000000E+02  0.51100000000E-03 0.  1.
    9900012    2    1    2    0    0  0.71027635690E+01 -0.21935778223E+02 -0.22024781732E+02  0.59301974426E+02  0.50000055438E+02 0.  0.
         12    1    1    2    0    0 -0.71027635690E+01  0.21935778223E+02  0.22024781732E+02  0.31886025574E+02  0.00000000000E+00 0. -1.
         11    1    3    3    0    0 -0.84933084912E+01  0.11413883157E+02  0.93710941205E+00  0.14258022029E+02  0.51100000000E-03 0. -1.
        -11    1    3    3    0    0  0.11089726085E+02 -0.31338222909E+02 -0.22381857123E+02  0.40075101601E+02  0.51100000000E-03 0.  1.
         12    1    3    3    0    0  0.45063459752E+01 -0.20114384713E+01 -0.58003402122E+00  0.49688507965E+01  0.00000000000E+00 0. -1.
</event>
<event>
 7    1  0.7674040E-012  0.5930196E+02  0.7816164E-02  0.1266605E+00
        -11   -1    0    0    0    0  0.00000000000E+00  0.00000000000E+00  0.45593999997E+02  0.45594000000E+02  0.51100000000E-03 0. -1.
         11   -1    0    0    0    0 -0.00000000000E+00 -0.00000000000E+00 -0.45593999997E+02  0.45594000000E+02  0.51100000000E-03 0.  1.
    9900012    2    1    2    0    0  0.26201475401E+02  0.15067257355E+02 -0.10157757251E+02  0.59301959328E+02  0.50000027904E+02 0.  0.
         12    1    1    2    0    0 -0.26201475401E+02 -0.15067257355E+02  0.10157757251E+02  0.31886040672E+02  0.00000000000E+00 0. -1.
         11    1    3    3    0    0 -0.13605254336E+00 -0.14432140942E+02  0.15075063128E+01  0.14511298288E+02  0.51100000000E-03 0. -1.
        -11    1    3    3    0    0  0.24177727786E+02  0.14727959786E+02 -0.79949579409E+01  0.29417591218E+02  0.51100000000E-03 0.  1.
         12    1    3    3    0    0  0.21598001583E+01  0.14771438510E+02 -0.36703056232E+01  0.15373069822E+02  0.00000000000E+00 0. -1.
</event>
<event>
 7    1  0.7674040E-012  0.5930194E+02  0.7816164E-02  0.1266605E+00
        -11   -1    0    0    0    0  0.00000000000E+00  0.00000000000E+00  0.45593999997E+02  0.45594000000E+02  0.51100000000E-03 0.  1.
         11   -1    0    0    0    0 -0.00000000000E+00 -0.00000000000E+00 -0.45593999997E+02  0.45594000000E+02  0.51100000000E-03 0. -1.
    9900012    2    1    2    0    0 -0.16847521872E+02 -0.14500770461E+02  0.22860656665E+02  0.59301937836E+02  0.49999988707E+02 0.  0.
         12    1    1    2    0    0  0.16847521872E+02  0.14500770461E+02 -0.22860656665E+02  0.31886062164E+02  0.00000000000E+00 0. -1.
         11    1    3    3    0    0 -0.18348962841E+02 -0.13386303716E+02 -0.10455105182E+02  0.25003735504E+02  0.51100000000E-03 0. -1.
        -11    1    3    3    0    0  0.78187317590E+00 -0.15621341319E+01  0.33400835454E+02  0.33446485585E+02  0.51100000000E-03 0.  1.
        -12    1    3    3    0    0  0.71956779307E+00  0.44766738656E+00 -0.85073607250E-01  0.85171674661E+00  0.00000000000E+00 0.  1.
</event>
<event>
 7    1  0.7674040E-012  0.5930198E+02  0.7816164E-02  0.1266605E+00
        -11   -1    0    0    0    0  0.00000000000E+00  0.00000000000E+00  0.45593999997E+02  0.45594000000E+02  0.51100000000E-03 0. -1.
         11   -1    0    0    0    0 -0.00000000000E+00 -0.00000000000E+00 -0.45593999997E+02  0.45594000000E+02  0.51100000000E-03 0.  1.
    9900012    2    1    2    0    0 -0.28789341928E+02  0.13706040180E+02 -0.19063849964E+00  0.59301982860E+02  0.50000070820E+02 0.  0.
         12    1    1    2    0    0  0.28789341928E+02 -0.13706040180E+02  0.19063849964E+00  0.31886017140E+02  0.00000000000E+00 0. -1.
         11    1    3    3    0    0 -0.37514392903E+01 -0.10725470109E+02  0.79029352119E+01  0.13840714975E+02  0.51100000000E-03 0. -1.
        -11    1    3    3    0    0 -0.17326098707E+01  0.20149291991E+02  0.57003301403E+00  0.20231679184E+02  0.51100000000E-03 0.  1.
         12    1    3    3    0    0 -0.23305292767E+02  0.42822182981E+01 -0.86636067256E+01  0.25229588700E+02  0.00000000000E+00 0. -1.
</event>
<event>
 7    1  0.7674040E-012  0.5930195E+02  0.7816164E-02  0.1266605E+00
        -11   -1    0    0    0    0  0.00000000000E+00  0.00000000000E+00  0.45593999997E+02  0.45594000000E+02  0.51100000000E-03 0. -1.
         11   -1    0    0    0    0 -0.00000000000E+00 -0.00000000000E+00 -0.45593999997E+02  0.45594000000E+02  0.51100000000E-03 0.  1.
    9900012    2    1    2    0    0 -0.94402846854E+01  0.12753602577E+02 -0.27657673505E+02  0.59301948860E+02  0.50000008812E+02 0.  0.
         12    1    1    2    0    0  0.94402846854E+01 -0.12753602577E+02  0.27657673505E+02  0.31886051140E+02  0.00000000000E+00 0. -1.
         11    1    3    3    0    0 -0.24836198170E+02 -0.64991883353E+01 -0.22006736783E+02  0.33813793822E+02  0.51100000000E-03 0. -1.
        -11    1    3    3    0    0  0.57716504770E+01  0.81404691455E+01 -0.81361579381E+00  0.10012050642E+02  0.51100000000E-03 0.  1.
         12    1    3    3    0    0  0.96242630076E+01  0.11112321767E+02 -0.48373209275E+01  0.15476104395E+02  0.00000000000E+00 0. -1.
</event>
<event>
 7    1  0.7674040E-012  0.5930195E+02  0.7816164E-02  0.1266605E+00
        -11   -1    0    0    0    0  0.00000000000E+00  0.00000000000E+00  0.45593999997E+02  0.45594000000E+02  0.51100000000E-03 0. -1.
         11   -1    0    0    0    0 -0.00000000000E+00 -0.00000000000E+00 -0.45593999997E+02  0.45594000000E+02  0.51100000000E-03 0.  1.
    9900012    2    1    2    0    0  0.12275745216E+02  0.97018939378E+01 -0.27783080673E+02  0.59301949159E+02  0.50000009357E+02 0.  0.
         12    1    1    2    0    0 -0.12275745216E+02 -0.97018939378E+01  0.27783080673E+02  0.31886050841E+02  0.00000000000E+00 0. -1.
         11    1    3    3    0    0 -0.36727300282E+01  0.11528031661E+01  0.67910323276E+01  0.78061527871E+01  0.51100000000E-03 0. -1.
        -11    1    3    3    0    0  0.13952733130E+02  0.77787219575E+01 -0.41382754766E+02  0.44358986343E+02  0.51100000000E-03 0.  1.
        -12    1    3    3    0    0  0.19957421139E+01  0.77036881420E+00  0.68086417654E+01  0.71368100287E+01  0.00000000000E+00 0.  1.
</event>
<event>
 7    1  0.7674040E-012  0.5930193E+02  0.7816164E-02  0.1266605E+00
        -11   -1    0    0    0    0  0.00000000000E+00  0.00000000000E+00  0.45593999997E+02  0.45594000000E+02  0.51100000000E-03 0.  1.
         11   -1    0    0    0    0 -0.00000000000E+00 -0.00000000000E+00 -0.45593999997E+02  0.45594000000E+02  0.51100000000E-03 0. -1.
    9900012    2    1    2    0    0 -0.10323025895E+01  0.17845390357E+02  0.26404505603E+02  0.59301929032E+02  0.49999972651E+02 0.  0.
         12    1    1    2    0    0  0.10323025895E+01 -0.17845390357E+02 -0.26404505603E+02  0.31886070968E+02  0.00000000000E+00 0. -1.
         11    1    3    3    0    0  0.31642088288E+01  0.24156707846E+02  0.12434482528E+02  0.27352789756E+02  0.51100000000E-03 0. -1.
        -11    1    3    3    0    0 -0.75416925490E+01 -0.10942851676E+02 -0.33545745915E+01  0.13706797593E+02  0.51100000000E-03 0.  1.
        -12    1    3    3    0    0  0.33451811307E+01  0.46315341871E+01  0.17324597667E+02  0.18242341682E+02  0.00000000000E+00 0.  1.
</event>
<event>
 7    1  0.7674040E-012  0.5930195E+02  0.7816164E-02  0.1266605E+00
        -11   -1    0    0    0    0  0.00000000000E+00  0.00000000000E+00  0.45593999997E+02  0.45594000000E+02  0.51100000000E-03 0. -1.
         11   -1    0    0    0    0 -0.00000000000E+00 -0.00000000000E+00 -0.45593999997E+02  0.45594000000E+02  0.51100000000E-03 0.  1.
    9900012    2    1    2    0    0 -0.88138874727E+00  0.27540075481E+02  0.16046421090E+02  0.59301949235E+02  0.50000009496E+02 0.  0.
         12    1    1    2    0    0  0.88138874727E+00 -0.27540075481E+02 -0.16046421090E+02  0.31886050765E+02  0.00000000000E+00 0. -1.
         11    1    3    3    0    0  0.15743413266E+02  0.60155156385E+01  0.17112943245E+02  0.24018624365E+02  0.51100000000E-03 0. -1.
        -11    1    3    3    0    0 -0.10987327762E+02  0.23420005245E+02  0.54749349060E+01  0.26442256513E+02  0.51100000000E-03 0.  1.
         12    1    3    3    0    0 -0.56374742511E+01 -0.18954454026E+01 -0.65414570608E+01  0.88410683565E+01  0.00000000000E+00 0. -1.
</event>
<event>
 7    1  0.7674040E-012  0.5930194E+02  0.7816164E-02  0.1266605E+00
        -11   -1    0    0    0    0  0.00000000000E+00  0.00000000000E+00  0.45593999997E+02  0.45594000000E+02  0.51100000000E-03 0. -1.
         11   -1    0    0    0    0 -0.00000000000E+00 -0.00000000000E+00 -0.45593999997E+02  0.45594000000E+02  0.51100000000E-03 0.  1.
    9900012    2    1    2    0    0 -0.25814601269E+01 -0.19428593487E+02 -0.25151280437E+02  0.59301935820E+02  0.49999985031E+02 0.  0.
         12    1    1    2    0    0  0.25814601269E+01  0.19428593487E+02  0.25151280437E+02  0.31886064180E+02  0.00000000000E+00 0. -1.
         11    1    3    3    0    0  0.61716833093E+01 -0.31547872234E+01 -0.25593479405E+02  0.26515439759E+02  0.51100000000E-03 0. -1.
        -11    1    3    3    0    0 -0.12456063872E+02 -0.19863648283E+02  0.69765844795E+01  0.24462027340E+02  0.51100000000E-03 0.  1.
        -12    1    3    3    0    0  0.37029204362E+01  0.35898420194E+01 -0.65343855110E+01  0.83244687211E+01  0.00000000000E+00 0.  1.
</event>
<event>
 7    1  0.7674040E-012  0.5930195E+02  0.7816164E-02  0.1266605E+00
        -11   -1    0    0    0    0  0.00000000000E+00  0.00000000000E+00  0.45593999997E+02  0.45594000000E+02  0.51100000000E-03 0.  1.
         11   -1    0    0    0    0 -0.00000000000E+00 -0.00000000000E+00 -0.45593999997E+02  0.45594000000E+02  0.51100000000E-03 0. -1.
    9900012    2    1    2    0    0 -0.29606538945E+02  0.10428590519E+02  0.56051102338E+01  0.59301954317E+02  0.50000018766E+02 0.  0.
         12    1    1    2    0    0  0.29606538945E+02 -0.10428590519E+02 -0.56051102338E+01  0.31886045683E+02  0.00000000000E+00 0. -1.
         11    1    3    3    0    0 -0.76957776745E+01  0.14669980804E+02 -0.17208837614E+02  0.23886762508E+02  0.51100000000E-03 0. -1.
        -11    1    3    3    0    0  0.91298819119E+00  0.23829048245E+00  0.75183583424E+01  0.75773374095E+01  0.51100000000E-03 0.  1.
         12    1    3    3    0    0 -0.22823749462E+02 -0.44796807671E+01  0.15295589506E+02  0.27837854400E+02  0.00000000000E+00 0. -1.
</event>
<event>
 7    1  0.7674040E-012  0.5930195E+02  0.7816164E-02  0.1266605E+00
        -11   -1    0    0    0    0  0.00000000000E+00  0.00000000000E+00  0.45593999997E+02  0.45594000000E+02  0.51100000000E-03 0. -1.
         11   -1    0    0    0    0 -0.00000000000E+00 -0.00000000000E+00 -0.45593999997E+02  0.45594000000E+02  0.51100000000E-03 0.  1.
    9900012    2    1    2    0    0  0.10119276185E+02  0.27125083956E+02 -0.13362263619E+02  0.59301952595E+02  0.50000015624E+02 0.  0.
         12    1    1    2    0    0 -0.10119276185E+02 -0.27125083956E+02  0.13362263619E+02  0.31886047405E+02  0.00000000000E+00 0. -1.
         11    1    3    3    0    0  0.19269987262E+02  0.29134926860E+02  0.90289743387E+00  0.34942690169E+02  0.51100000000E-03 0. -1.
        -11    1    3    3    0    0 -0.10160444320E+02 -0.82520243165E+01 -0.74438503553E+01  0.15057936196E+02  0.51100000000E-03 0.  1.
        -12    1    3    3    0    0  0.10097332437E+01  0.62421814125E+01 -0.68213106972E+01  0.93013262301E+01  0.00000000000E+00 0.  1.
</event>
<event>
 7    1  0.7674040E-012  0.5930195E+02  0.7816164E-02  0.1266605E+00
        -11   -1    0    0    0    0  0.00000000000E+00  0.00000000000E+00  0.45593999997E+02  0.45594000000E+02  0.51100000000E-03 0. -1.
         11   -1    0    0    0    0 -0.00000000000E+00 -0.00000000000E+00 -0.45593999997E+02  0.45594000000E+02  0.51100000000E-03 0.  1.
    9900012    2    1    2    0    0 -0.17536473370E+02 -0.24980687891E+01 -0.26513239049E+02  0.59301951471E+02  0.50000013575E+02 0.  0.
         12    1    1    2    0    0  0.17536473370E+02  0.24980687891E+01  0.26513239049E+02  0.31886048529E+02  0.00000000000E+00 0. -1.
         11    1    3    3    0    0 -0.39080196987E+01  0.34325670463E-01  0.39239174900E+01  0.55381337061E+01  0.51100000000E-03 0. -1.
        -11    1    3    3    0    0 -0.27687509257E+02  0.44967767722E+01 -0.23455341949E+02  0.36564630948E+02  0.51100000000E-03 0.  1.
        -12    1    3    3    0    0  0.14059055586E+02 -0.70291712318E+01 -0.69818145903E+01  0.17199186817E+02  0.00000000000E+00 0.  1.
</event>
<event>
 7    1  0.7674040E-012  0.5930193E+02  0.7816164E-02  0.1266605E+00
        -11   -1    0    0    0    0  0.00000000000E+00  0.00000000000E+00  0.45593999997E+02  0.45594000000E+02  0.51100000000E-03 0.  1.
         11   -1    0    0    0    0 -0.00000000000E+00 -0.00000000000E+00 -0.45593999997E+02  0.45594000000E+02  0.51100000000E-03 0. -1.
    9900012    2    1    2    0    0 -0.81230792392E+01 -0.11555902443E+02  0.28586676979E+02  0.59301930968E+02  0.49999976182E+02 0.  0.
         12    1    1    2    0    0  0.81230792392E+01  0.11555902443E+02 -0.28586676979E+02  0.31886069032E+02  0.00000000000E+00 0. -1.
         11    1    3    3    0    0  0.16057141035E+02  0.47366534705E+00  0.25440773879E+01  0.16264331129E+02  0.51100000000E-03 0. -1.
        -11    1    3    3    0    0 -0.19015756456E+02 -0.35170060276E+01  0.53350291085E+01  0.20060679471E+02  0.51100000000E-03 0.  1.
        -12    1    3    3    0    0 -0.51644638177E+01 -0.85125617621E+01  0.20707570483E+02  0.22976920368E+02  0.00000000000E+00 0.  1.
</event>
<event>
 7    1  0.7674040E-012  0.5930193E+02  0.7816164E-02  0.1266605E+00
        -11   -1    0    0    0    0  0.00000000000E+00  0.00000000000E+00  0.45593999997E+02  0.45594000000E+02  0.51100000000E-03 0.  1.
         11   -1    0    0    0    0 -0.00000000000E+00 -0.00000000000E+00 -0.45593999997E+02  0.45594000000E+02  0.51100000000E-03 0. -1.
    9900012    2    1    2    0    0 -0.60075225338E+01  0.27202029779E+02 -0.15513893267E+02  0.59301927250E+02  0.49999969402E+02 0.  0.
         12    1    1    2    0    0  0.60075225338E+01 -0.27202029779E+02  0.15513893267E+02  0.31886072750E+02  0.00000000000E+00 0. -1.
         11    1    3    3    0    0 -0.22211508005E+01 -0.74506941242E+01  0.10884650014E+02  0.13376171350E+02  0.51100000000E-03 0.  1.
        -11    1    3    3    0    0  0.35779151011E+01  0.17458746684E+02 -0.18297024119E+02  0.25541934228E+02  0.51100000000E-03 0. -1.
        -12    1    3    3    0    0 -0.73642868344E+01  0.17193977220E+02 -0.81015191622E+01  0.20383821672E+02  0.00000000000E+00 0.  1.
</event>
<event>
 7    1  0.7674040E-012  0.5930185E+02  0.7816164E-02  0.1266605E+00
        -11   -1    0    0    0    0  0.00000000000E+00  0.00000000000E+00  0.45593999997E+02  0.45594000000E+02  0.51100000000E-03 0. -1.
         11   -1    0    0    0    0 -0.00000000000E+00 -0.00000000000E+00 -0.45593999997E+02  0.45594000000E+02  0.51100000000E-03 0.  1.
    9900012    2    1    2    0    0 -0.97057262910E+00 -0.19771591581E+02 -0.24997367872E+02  0.59301854961E+02  0.49999837564E+02 0.  0.
         12    1    1    2    0    0  0.97057262910E+00  0.19771591581E+02  0.24997367872E+02  0.31886145039E+02  0.00000000000E+00 0. -1.
         11    1    3    3    0    0 -0.13935765868E+02 -0.14736187694E+02 -0.56759685492E+01  0.21061277675E+02  0.51100000000E-03 0. -1.
        -11    1    3    3    0    0  0.15956372580E+02 -0.14410093940E+02 -0.73008614931E+01  0.22705929007E+02  0.51100000000E-03 0.  1.
        -12    1    3    3    0    0 -0.29911793415E+01  0.93746900528E+01 -0.12020537830E+02  0.15534648279E+02  0.00000000000E+00 0.  1.
</event>
<event>
 7    1  0.7674040E-012  0.5930201E+02  0.7816164E-02  0.1266605E+00
        -11   -1    0    0    0    0  0.00000000000E+00  0.00000000000E+00  0.45593999997E+02  0.45594000000E+02  0.51100000000E-03 0.  1.
         11   -1    0    0    0    0 -0.00000000000E+00 -0.00000000000E+00 -0.45593999997E+02  0.45594000000E+02  0.51100000000E-03 0. -1.
    9900012    2    1    2    0    0 -0.25218738525E+02  0.19148742907E+02  0.37493060616E+01  0.59302008975E+02  0.50000118448E+02 0.  0.
         12    1    1    2    0    0  0.25218738525E+02 -0.19148742907E+02 -0.37493060616E+01  0.31885991025E+02  0.00000000000E+00 0. -1.
         11    1    3    3    0    0 -0.32855494795E+02  0.12648627112E+02  0.11850490200E+02  0.37147078274E+02  0.51100000000E-03 0.  1.
        -11    1    3    3    0    0  0.48710904029E+01  0.96789948502E+01 -0.12171900329E+02  0.16296184244E+02  0.51100000000E-03 0. -1.
        -12    1    3    3    0    0  0.27656658671E+01 -0.31788790556E+01  0.40707161914E+01  0.58587464572E+01  0.00000000000E+00 0.  1.
</event>
<event>
 7    1  0.7674040E-012  0.5930194E+02  0.7816164E-02  0.1266605E+00
        -11   -1    0    0    0    0  0.00000000000E+00  0.00000000000E+00  0.45593999997E+02  0.45594000000E+02  0.51100000000E-03 0. -1.
         11   -1    0    0    0    0 -0.00000000000E+00 -0.00000000000E+00 -0.45593999997E+02  0.45594000000E+02  0.51100000000E-03 0.  1.
    9900012    2    1    2    0    0 -0.20888883518E+02 -0.17710766887E+02 -0.16331086908E+02  0.59301935365E+02  0.49999984201E+02 0.  0.
         12    1    1    2    0    0  0.20888883518E+02  0.17710766887E+02  0.16331086908E+02  0.31886064635E+02  0.00000000000E+00 0. -1.
         11    1    3    3    0    0 -0.19364472841E+01  0.14802795453E+02  0.99323233750E+00  0.14961921402E+02  0.51100000000E-03 0. -1.
        -11    1    3    3    0    0  0.11260292467E+01 -0.12144109160E+02 -0.45865753478E+01  0.13030119065E+02  0.51100000000E-03 0.  1.
         12    1    3    3    0    0 -0.20078465481E+02 -0.20369453180E+02 -0.12737743897E+02  0.31309894897E+02  0.00000000000E+00 0. -1.
</event>
<event>
 7    1  0.7674040E-012  0.5930204E+02  0.7816164E-02  0.1266604E+00
        -11   -1    0    0    0    0  0.00000000000E+00  0.00000000000E+00  0.45593999997E+02  0.45594000000E+02  0.51100000000E-03 0. -1.
         11   -1    0    0    0    0 -0.00000000000E+00 -0.00000000000E+00 -0.45593999997E+02  0.45594000000E+02  0.51100000000E-03 0.  1.
    9900012    2    1    2    0    0 -0.29624269409E+02  0.11017056009E+02  0.42121110284E+01  0.59302035369E+02  0.50000166585E+02 0.  0.
         12    1    1    2    0    0  0.29624269409E+02 -0.11017056009E+02 -0.42121110284E+01  0.31885964631E+02  0.00000000000E+00 0. -1.
         11    1    3    3    0    0  0.25033590482E+00 -0.14600911214E+02 -0.36787951705E+01  0.15059309762E+02  0.51100000000E-03 0. -1.
        -11    1    3    3    0    0 -0.28034095722E+02  0.13740962609E+02  0.79774052771E+01  0.32223649260E+02  0.51100000000E-03 0.  1.
        -12    1    3    3    0    0 -0.18405095916E+01  0.11877004614E+02 -0.86499078248E-01  0.12019076347E+02  0.00000000000E+00 0.  1.
</event>
<event>
 7    1  0.7674040E-012  0.5930194E+02  0.7816164E-02  0.1266605E+00
        -11   -1    0    0    0    0  0.00000000000E+00  0.00000000000E+00  0.45593999997E+02  0.45594000000E+02  0.51100000000E-03 0. -1.
         11   -1    0    0    0    0 -0.00000000000E+00 -0.00000000000E+00 -0.45593999997E+02  0.45594000000E+02  0.51100000000E-03 0.  1.
    9900012    2    1    2    0    0 -0.62838989071E+01  0.11599317743E+02 -0.29029106289E+02  0.59301943964E+02  0.49999999884E+02 0.  0.
         12    1    1    2    0    0  0.62838989071E+01 -0.11599317743E+02  0.29029106289E+02  0.31886056036E+02  0.00000000000E+00 0. -1.
         11    1    3    3    0    0 -0.65250795597E+01  0.71358337902E+01  0.12129102159E+02  0.15511670013E+02  0.51100000000E-03 0. -1.
        -11    1    3    3    0    0 -0.51618687917E+01 -0.11461236357E+01 -0.28040004237E+02  0.28534195743E+02  0.51100000000E-03 0.  1.
         12    1    3    3    0    0  0.54030494443E+01  0.56096075884E+01 -0.13118204211E+02  0.15256078208E+02  0.00000000000E+00 0. -1.
</event>
<event>
 7    1  0.7674040E-012  0.5930193E+02  0.7816164E-02  0.1266605E+00
        -11   -1    0    0    0    0  0.00000000000E+00  0.00000000000E+00  0.45593999997E+02  0.45594000000E+02  0.51100000000E-03 0. -1.
         11   -1    0    0    0    0 -0.00000000000E+00 -0.00000000000E+00 -0.45593999997E+02  0.45594000000E+02  0.51100000000E-03 0.  1.
    9900012    2    1    2    0    0 -0.30994846792E+02 -0.17762618574E+00 -0.74839381047E+01  0.59301930812E+02  0.49999975897E+02 0.  0.
         12    1    1    2    0    0  0.30994846792E+02  0.17762618574E+00  0.74839381047E+01  0.31886069188E+02  0.00000000000E+00 0. -1.
         11    1    3    3    0    0 -0.77892930248E+01 -0.23553561383E+02  0.15695329733E+00  0.24808627012E+02  0.51100000000E-03 0. -1.
        -11    1    3    3    0    0 -0.66578123461E+01  0.11231538601E+02 -0.20222045940E+01  0.13212238125E+02  0.51100000000E-03 0.  1.
         12    1    3    3    0    0 -0.16547741421E+02  0.12144396596E+02 -0.56186868081E+01  0.21281065675E+02  0.00000000000E+00 0. -1.
</event>
<event>
 7    1  0.7674040E-012  0.5930194E+02  0.7816164E-02  0.1266605E+00
        -11   -1    0    0    0    0  0.00000000000E+00  0.00000000000E+00  0.45593999997E+02  0.45594000000E+02  0.51100000000E-03 0.  1.
         11   -1    0    0    0    0 -0.00000000000E+00 -0.00000000000E+00 -0.45593999997E+02  0.45594000000E+02  0.51100000000E-03 0. -1.
    9900012    2    1    2    0    0  0.15926736011E+02 -0.23659970428E+01  0.27522024211E+02  0.59301942253E+02  0.49999996763E+02 0.  0.
         12    1    1    2    0    0 -0.15926736011E+02  0.23659970428E+01 -0.27522024211E+02  0.31886057747E+02  0.00000000000E+00 0. -1.
         11    1    3    3    0    0  0.26291274258E+02 -0.18236123860E+02  0.10464882513E+02  0.33664537452E+02  0.51100000000E-03 0.  1.
        -11    1    3    3    0    0 -0.73094140353E+01  0.91680237351E+01  0.95738970924E+01  0.15137361016E+02  0.51100000000E-03 0. -1.
        -12    1    3    3    0    0 -0.30551242111E+01  0.67021030823E+01  0.74832446050E+01  0.10500043785E+02  0.00000000000E+00 0.  1.
</event>
<event>
 7    1  0.7674040E-012  0.5930215E+02  0.7816164E-02  0.1266604E+00
        -11   -1    0    0    0    0  0.00000000000E+00  0.00000000000E+00  0.45593999997E+02  0.45594000000E+02  0.51100000000E-03 0.  1.
         11   -1    0    0    0    0 -0.00000000000E+00 -0.00000000000E+00 -0.45593999997E+02  0.45594000000E+02  0.51100000000E-03 0. -1.
    9900012    2    1    2    0    0  0.85564942880E+01 -0.30481770855E+02  0.37888592691E+01  0.59302150419E+02  0.50000376407E+02 0.  0.
         12    1    1    2    0    0 -0.85564942880E+01  0.30481770855E+02 -0.37888592691E+01  0.31885849581E+02  0.00000000000E+00 0. -1.
         11    1    3    3    0    0 -0.54337116949E+01 -0.49456738364E+01 -0.12077474396E+02  0.14136841958E+02  0.51100000000E-03 0. -1.
        -11    1    3    3    0    0  0.18881117138E+02 -0.27182703157E+02  0.54524836610E+01  0.33542890657E+02  0.51100000000E-03 0.  1.
        -12    1    3    3    0    0 -0.48909111554E+01  0.16466061385E+01  0.10413850004E+02  0.11622417804E+02  0.00000000000E+00 0.  1.
</event>
<event>
 7    1  0.7674040E-012  0.5930194E+02  0.7816164E-02  0.1266605E+00
        -11   -1    0    0    0    0  0.00000000000E+00  0.00000000000E+00  0.45593999997E+02  0.45594000000E+02  0.51100000000E-03 0.  1.
         11   -1    0    0    0    0 -0.00000000000E+00 -0.00000000000E+00 -0.45593999997E+02  0.45594000000E+02  0.51100000000E-03 0. -1.
    9900012    2    1    2    0    0 -0.24686452750E+01  0.25333133266E+02  0.19205708926E+02  0.59301935553E+02  0.49999984545E+02 0.  0.
         12    1    1    2    0    0  0.24686452750E+01 -0.25333133266E+02 -0.19205708926E+02  0.31886064447E+02  0.00000000000E+00 0. -1.
         11    1    3    3    0    0 -0.79691950761E+01  0.10273946397E+02 -0.54678308297E+01  0.14105290461E+02  0.51100000000E-03 0. -1.
        -11    1    3    3    0    0  0.59883871555E+01  0.23723546555E+02  0.26771902441E+02  0.36268473947E+02  0.51100000000E-03 0.  1.
        -12    1    3    3    0    0 -0.48783735443E+00 -0.86643596862E+01 -0.20983626850E+01  0.89281711461E+01  0.00000000000E+00 0.  1.
</event>
<event>
 7    1  0.7674040E-012  0.5930197E+02  0.7816164E-02  0.1266605E+00
        -11   -1    0    0    0    0  0.00000000000E+00  0.00000000000E+00  0.45593999997E+02  0.45594000000E+02  0.51100000000E-03 0.  1.
         11   -1    0    0    0    0 -0.00000000000E+00 -0.00000000000E+00 -0.45593999997E+02  0.45594000000E+02  0.51100000000E-03 0. -1.
    9900012    2    1    2    0    0 -0.85524948030E+01  0.17242675209E+02  0.25421718127E+02  0.59301972210E+02  0.50000051397E+02 0.  0.
         12    1    1    2    0    0  0.85524948030E+01 -0.17242675209E+02 -0.25421718127E+02  0.31886027790E+02  0.00000000000E+00 0. -1.
         11    1    3    3    0    0  0.33299342509E+00 -0.12198330348E+02 -0.74009862165E+01  0.14271816463E+02  0.51100000000E-03 0. -1.
        -11    1    3    3    0    0 -0.25389745929E+01  0.64313052806E+01  0.84153162329E+01  0.10891539246E+02  0.51100000000E-03 0.  1.
         12    1    3    3    0    0 -0.63465136352E+01  0.23009700277E+02  0.24407388111E+02  0.34138616500E+02  0.00000000000E+00 0. -1.
</event>
<event>
 7    1  0.7674040E-012  0.5930194E+02  0.7816164E-02  0.1266605E+00
        -11   -1    0    0    0    0  0.00000000000E+00  0.00000000000E+00  0.45593999997E+02  0.45594000000E+02  0.51100000000E-03 0. -1.
         11   -1    0    0    0    0 -0.00000000000E+00 -0.00000000000E+00 -0.45593999997E+02  0.45594000000E+02  0.51100000000E-03 0.  1.
    9900012    2    1    2    0    0 -0.64152637344E-01  0.29516803602E+02 -0.12061315332E+02  0.59301935050E+02  0.49999983628E+02 0.  0.
         12    1    1    2    0    0  0.64152637344E-01 -0.29516803602E+02  0.12061315332E+02  0.31886064950E+02  0.00000000000E+00 0. -1.
         11    1    3    3    0    0 -0.31532732731E+01  0.21595585438E+02  0.14050206331E+02  0.25956131086E+02  0.51100000000E-03 0. -1.
        -11    1    3    3    0    0 -0.42395704066E+01  0.59603062053E+01 -0.24528606850E+02  0.25595932519E+02  0.51100000000E-03 0.  1.
        -12    1    3    3    0    0  0.73286910423E+01  0.19609119586E+01 -0.15829148139E+01  0.77498714448E+01  0.00000000000E+00 0.  1.
</event>
<event>
 7    1  0.7674040E-012  0.5930191E+02  0.7816164E-02  0.1266605E+00
        -11   -1    0    0    0    0  0.00000000000E+00  0.00000000000E+00  0.45593999997E+02  0.45594000000E+02  0.51100000000E-03 0.  1.
         11   -1    0    0    0    0 -0.00000000000E+00 -0.00000000000E+00 -0.45593999997E+02  0.45594000000E+02  0.51100000000E-03 0. -1.
    9900012    2    1    2    0    0  0.36940983813E+01  0.24943859893E+02  0.19516161038E+02  0.59301905055E+02  0.49999928922E+02 0.  0.
         12    1    1    2    0    0 -0.36940983813E+01 -0.24943859893E+02 -0.19516161038E+02  0.31886094945E+02  0.00000000000E+00 0. -1.
         11    1    3    3    0    0  0.99145738816E+01  0.75650496698E+01 -0.85953933491E+01  0.15146271450E+02  0.51100000000E-03 0. -1.
        -11    1    3    3    0    0 -0.13685728100E+02  0.13545112691E+02  0.29910813983E+02  0.35572827057E+02  0.51100000000E-03 0.  1.
        -12    1    3    3    0    0  0.74652525993E+01  0.38336975322E+01 -0.17992595956E+01  0.85828065475E+01  0.00000000000E+00 0.  1.
</event>
<event>
 7    1  0.7674040E-012  0.5930194E+02  0.7816164E-02  0.1266605E+00
        -11   -1    0    0    0    0  0.00000000000E+00  0.00000000000E+00  0.45593999997E+02  0.45594000000E+02  0.51100000000E-03 0.  1.
         11   -1    0    0    0    0 -0.00000000000E+00 -0.00000000000E+00 -0.45593999997E+02  0.45594000000E+02  0.51100000000E-03 0. -1.
    9900012    2    1    2    0    0 -0.99826650124E+01  0.30050122097E+02  0.37492900596E+01  0.59301943255E+02  0.49999998590E+02 0.  0.
         12    1    1    2    0    0  0.99826650124E+01 -0.30050122097E+02 -0.37492900596E+01  0.31886056745E+02  0.00000000000E+00 0. -1.
         11    1    3    3    0    0  0.56192472934E+01  0.13716258312E+02 -0.13676926319E+02  0.20168539759E+02  0.51100000000E-03 0. -1.
        -11    1    3    3    0    0 -0.21680084234E+02  0.51557537649E+01  0.11877578632E+02  0.25252420156E+02  0.51100000000E-03 0.  1.
        -12    1    3    3    0    0  0.60781719284E+01  0.11178110021E+02  0.55486377465E+01  0.13880983339E+02  0.00000000000E+00 0.  1.
</event>
<event>
 7    1  0.7674040E-012  0.5930195E+02  0.7816164E-02  0.1266605E+00
        -11   -1    0    0    0    0  0.00000000000E+00  0.00000000000E+00  0.45593999997E+02  0.45594000000E+02  0.51100000000E-03 0.  1.
         11   -1    0    0    0    0 -0.00000000000E+00 -0.00000000000E+00 -0.45593999997E+02  0.45594000000E+02  0.51100000000E-03 0. -1.
    9900012    2    1    2    0    0  0.29336830743E+02 -0.96012126323E+01  0.79929379162E+01  0.59301953231E+02  0.50000016784E+02 0.  0.
         12    1    1    2    0    0 -0.29336830743E+02  0.96012126323E+01 -0.79929379162E+01  0.31886046769E+02  0.00000000000E+00 0. -1.
         11    1    3    3    0    0  0.11035864991E+02 -0.64657151576E+01 -0.85787638829E+01  0.15401005766E+02  0.51100000000E-03 0. -1.
        -11    1    3    3    0    0  0.72377471792E+01 -0.16909514798E+02  0.18550613526E+02  0.26123589673E+02  0.51100000000E-03 0.  1.
        -12    1    3    3    0    0  0.11063218573E+02  0.13774017324E+02 -0.19789117268E+01  0.17777357791E+02  0.00000000000E+00 0.  1.
</event>
<event>
 7    1  0.7674040E-012  0.5930196E+02  0.7816164E-02  0.1266605E+00
        -11   -1    0    0    0    0  0.00000000000E+00  0.00000000000E+00  0.45593999997E+02  0.45594000000E+02  0.51100000000E-03 0. -1.
         11   -1    0    0    0    0 -0.00000000000E+00 -0.00000000000E+00 -0.45593999997E+02  0.45594000000E+02  0.51100000000E-03 0.  1.
    9900012    2    1    2    0    0  0.34326252369E+01 -0.31661813162E+02 -0.15704937788E+01  0.59301956354E+02  0.50000022479E+02 0.  0.
         12    1    1    2    0    0 -0.34326252369E+01  0.31661813162E+02  0.15704937788E+01  0.31886043646E+02  0.00000000000E+00 0. -1.
         11    1    3    3    0    0 -0.11033539525E+02 -0.20774751981E+02  0.18493249117E+02  0.29922058376E+02  0.51100000000E-03 0. -1.
        -11    1    3    3    0    0  0.18559119170E+01 -0.37351104391E+01 -0.12187252085E+02  0.12881171247E+02  0.51100000000E-03 0.  1.
         12    1    3    3    0    0  0.12610252845E+02 -0.71519507421E+01 -0.78764908108E+01  0.16498726731E+02  0.00000000000E+00 0. -1.
</event>
<event>
 7    1  0.7674040E-012  0.5930193E+02  0.7816164E-02  0.1266605E+00
        -11   -1    0    0    0    0  0.00000000000E+00  0.00000000000E+00  0.45593999997E+02  0.45594000000E+02  0.51100000000E-03 0. -1.
         11   -1    0    0    0    0 -0.00000000000E+00 -0.00000000000E+00 -0.45593999997E+02  0.45594000000E+02  0.51100000000E-03 0.  1.
    9900012    2    1    2    0    0  0.22630078532E+02 -0.16403827883E+02 -0.15346512369E+02  0.59301929915E+02  0.49999974261E+02 0.  0.
         12    1    1    2    0    0 -0.22630078532E+02  0.16403827883E+02  0.15346512369E+02  0.31886070085E+02  0.00000000000E+00 0. -1.
         11    1    3    3    0    0 -0.25912012374E+01 -0.12080268590E+02  0.85337353958E+01  0.15015720200E+02  0.51100000000E-03 0. -1.
        -11    1    3    3    0    0  0.73077391050E+01  0.32015114421E+01 -0.23537899348E+02  0.24853278100E+02  0.51100000000E-03 0.  1.
        -12    1    3    3    0    0  0.17913540665E+02 -0.75250707350E+01 -0.34234841713E+00  0.19432931615E+02  0.00000000000E+00 0.  1.
</event>
<event>
 7    1  0.7674040E-012  0.5930209E+02  0.7816164E-02  0.1266604E+00
        -11   -1    0    0    0    0  0.00000000000E+00  0.00000000000E+00  0.45593999997E+02  0.45594000000E+02  0.51100000000E-03 0. -1.
         11   -1    0    0    0    0 -0.00000000000E+00 -0.00000000000E+00 -0.45593999997E+02  0.45594000000E+02  0.51100000000E-03 0.  1.
    9900012    2    1    2    0    0  0.43792829440E+01  0.30448049304E+02 -0.83934343824E+01  0.59302085143E+02  0.50000257360E+02 0.  0.
         12    1    1    2    0    0 -0.43792829440E+01 -0.30448049304E+02  0.83934343824E+01  0.31885914857E+02  0.00000000000E+00 0. -1.
         11    1    3    3    0    0 -0.30411857690E+01 -0.72576319726E+01  0.33448272005E+01  0.85504328542E+01  0.51100000000E-03 0. -1.
        -11    1    3    3    0    0  0.70727254416E+01  0.28829828502E+02  0.65693439402E+01  0.30402939606E+02  0.51100000000E-03 0.  1.
         12    1    3    3    0    0  0.34774327131E+00  0.88758527750E+01 -0.18307605523E+02  0.20348712683E+02  0.00000000000E+00 0. -1.
</event>
<event>
 7    1  0.7674040E-012  0.5930195E+02  0.7816164E-02  0.1266605E+00
        -11   -1    0    0    0    0  0.00000000000E+00  0.00000000000E+00  0.45593999997E+02  0.45594000000E+02  0.51100000000E-03 0.  1.
         11   -1    0    0    0    0 -0.00000000000E+00 -0.00000000000E+00 -0.45593999997E+02  0.45594000000E+02  0.51100000000E-03 0. -1.
    9900012    2    1    2    0    0  0.21655092647E+02 -0.39139496872E+01  0.23075047746E+02  0.59301954962E+02  0.50000019941E+02 0.  0.
         12    1    1    2    0    0 -0.21655092647E+02  0.39139496872E+01 -0.23075047746E+02  0.31886045038E+02  0.00000000000E+00 0. -1.
         11    1    3    3    0    0 -0.66426734469E+01  0.99210166368E+01  0.51167199270E+01  0.12989707645E+02  0.51100000000E-03 0. -1.
        -11    1    3    3    0    0  0.21552886506E+02 -0.19776981985E+02  0.37385248014E+01  0.29489532060E+02  0.51100000000E-03 0.  1.
        -12    1    3    3    0    0  0.67448795879E+01  0.59420156607E+01  0.14219803018E+02  0.16822715257E+02  0.00000000000E+00 0.  1.
</event>
<event>
 7    1  0.7674040E-012  0.5930192E+02  0.7816164E-02  0.1266605E+00
        -11   -1    0    0    0    0  0.00000000000E+00  0.00000000000E+00  0.45593999997E+02  0.45594000000E+02  0.51100000000E-03 0.  1.
         11   -1    0    0    0    0 -0.00000000000E+00 -0.00000000000E+00 -0.45593999997E+02  0.45594000000E+02  0.51100000000E-03 0. -1.
    9900012    2    1    2    0    0 -0.23671962716E+02 -0.18654638694E+02  0.10409826980E+02  0.59301923707E+02  0.49999962940E+02 0.  0.
         12    1    1    2    0    0  0.23671962716E+02  0.18654638694E+02 -0.10409826980E+02  0.31886076293E+02  0.00000000000E+00 0. -1.
         11    1    3    3    0    0  0.21865290767E+00 -0.77316412229E+01  0.34707710205E+01  0.84777554123E+01  0.51100000000E-03 0. -1.
        -11    1    3    3    0    0 -0.36363492131E+02 -0.95733670993E+01  0.32267013598E+01  0.37740754093E+02  0.51100000000E-03 0.  1.
        -12    1    3    3    0    0  0.12472876507E+02 -0.13496303718E+01  0.37123545998E+01  0.13083414202E+02  0.00000000000E+00 0.  1.
</event>
<event>
 7    1  0.7674040E-012  0.5930195E+02  0.7816164E-02  0.1266605E+00
        -11   -1    0    0    0    0  0.00000000000E+00  0.00000000000E+00  0.45593999997E+02  0.45594000000E+02  0.51100000000E-03 0. -1.
         11   -1    0    0    0    0 -0.00000000000E+00 -0.00000000000E+00 -0.45593999997E+02  0.45594000000E+02  0.51100000000E-03 0.  1.
    9900012    2    1    2    0    0 -0.17595953622E+02 -0.19542019375E+02 -0.18033629308E+02  0.59301954601E+02  0.50000019284E+02 0.  0.
         12    1    1    2    0    0  0.17595953622E+02  0.19542019375E+02  0.18033629308E+02  0.31886045399E+02  0.00000000000E+00 0. -1.
         11    1    3    3    0    0 -0.69660983242E+01 -0.23532743619E+02 -0.59805074047E+01  0.25260305168E+02  0.51100000000E-03 0. -1.
        -11    1    3    3    0    0  0.50373678527E+01  0.20724115007E+00 -0.16556209908E+02  0.17306822659E+02  0.51100000000E-03 0.  1.
        -12    1    3    3    0    0 -0.15667223151E+02  0.37834830941E+01  0.45030880045E+01  0.16734826774E+02  0.00000000000E+00 0.  1.
</event>
<event>
 7    1  0.7674040E-012  0.5930194E+02  0.7816164E-02  0.1266605E+00
        -11   -1    0    0    0    0  0.00000000000E+00  0.00000000000E+00  0.45593999997E+02  0.45594000000E+02  0.51100000000E-03 0.  1.
         11   -1    0    0    0    0 -0.00000000000E+00 -0.00000000000E+00 -0.45593999997E+02  0.45594000000E+02  0.51100000000E-03 0. -1.
    9900012    2    1    2    0    0  0.16907425938E+01  0.30628737489E+02  0.87030091381E+01  0.59301944447E+02  0.50000000765E+02 0.  0.
         12    1    1    2    0    0 -0.16907425938E+01 -0.30628737489E+02 -0.87030091381E+01  0.31886055553E+02  0.00000000000E+00 0. -1.
         11    1    3    3    0    0 -0.46227816285E+01  0.10701630455E+01  0.14565903196E+02  0.15319298127E+02  0.51100000000E-03 0. -1.
        -11    1    3    3    0    0  0.12267522784E+02  0.31847650301E+02  0.15986803665E+01  0.34166075633E+02  0.51100000000E-03 0.  1.
         12    1    3    3    0    0 -0.59539985614E+01 -0.22890758584E+01 -0.74615744248E+01  0.98165706869E+01  0.00000000000E+00 0. -1.
</event>
<event>
 7    1  0.7674040E-012  0.5930180E+02  0.7816164E-02  0.1266605E+00
        -11   -1    0    0    0    0  0.00000000000E+00  0.00000000000E+00  0.45593999997E+02  0.45594000000E+02  0.51100000000E-03 0.  1.
         11   -1    0    0    0    0 -0.00000000000E+00 -0.00000000000E+00 -0.45593999997E+02  0.45594000000E+02  0.51100000000E-03 0. -1.
    9900012    2    1    2    0    0 -0.17653606812E+01  0.31818293976E+02 -0.10996073622E+01  0.59301804456E+02  0.49999745455E+02 0.  0.
         12    1    1    2    0    0  0.17653606812E+01 -0.31818293976E+02  0.10996073622E+01  0.31886195544E+02  0.00000000000E+00 0. -1.
         11    1    3    3    0    0  0.97607563259E+01 -0.23518320788E+01 -0.59858755786E+01  0.11689062618E+02  0.51100000000E-03 0.  1.
        -11    1    3    3    0    0 -0.13947036342E+02  0.27043826471E+02 -0.90742944967E+01  0.31752656484E+02  0.51100000000E-03 0. -1.
        -12    1    3    3    0    0  0.24209193349E+01  0.71262995842E+01  0.13960562713E+02  0.15860085355E+02  0.00000000000E+00 0.  1.
</event>
<event>
 7    1  0.7674040E-012  0.5930194E+02  0.7816164E-02  0.1266605E+00
        -11   -1    0    0    0    0  0.00000000000E+00  0.00000000000E+00  0.45593999997E+02  0.45594000000E+02  0.51100000000E-03 0.  1.
         11   -1    0    0    0    0 -0.00000000000E+00 -0.00000000000E+00 -0.45593999997E+02  0.45594000000E+02  0.51100000000E-03 0. -1.
    9900012    2    1    2    0    0  0.28517988417E+02  0.10710666245E+02 -0.94195010969E+01  0.59301936655E+02  0.49999986554E+02 0.  0.
         12    1    1    2    0    0 -0.28517988417E+02 -0.10710666245E+02  0.94195010969E+01  0.31886063345E+02  0.00000000000E+00 0. -1.
         11    1    3    3    0    0  0.85400193876E+01  0.87519338958E+01 -0.15388529169E+02  0.19655409136E+02  0.51100000000E-03 0. -1.
        -11    1    3    3    0    0  0.20436090071E+02  0.69100954104E+01  0.17052602793E+02  0.27498626480E+02  0.51100000000E-03 0.  1.
         12    1    3    3    0    0 -0.45812104209E+00 -0.49513630614E+01 -0.11083574721E+02  0.12147901039E+02  0.00000000000E+00 0. -1.
</event>
<event>
 7    1  0.7674040E-012  0.5930194E+02  0.7816164E-02  0.1266605E+00
        -11   -1    0    0    0    0  0.00000000000E+00  0.00000000000E+00  0.45593999997E+02  0.45594000000E+02  0.51100000000E-03 0.  1.
         11   -1    0    0    0    0 -0.00000000000E+00 -0.00000000000E+00 -0.45593999997E+02  0.45594000000E+02  0.51100000000E-03 0. -1.
    9900012    2    1    2    0    0 -0.31111579102E+02 -0.54032808582E+01 -0.44266338023E+01  0.59301939016E+02  0.49999990860E+02 0.  0.
         12    1    1    2    0    0  0.31111579102E+02  0.54032808582E+01  0.44266338023E+01  0.31886060984E+02  0.00000000000E+00 0. -1.
         11    1    3    3    0    0  0.63527787156E+01 -0.80378843007E+01 -0.10880367188E+02  0.14944824250E+02  0.51100000000E-03 0. -1.
        -11    1    3    3    0    0 -0.21070840644E+02 -0.15810262319E+01  0.14488342533E+02  0.25620149082E+02  0.51100000000E-03 0.  1.
        -12    1    3    3    0    0 -0.16393517174E+02  0.42156296744E+01 -0.80346091477E+01  0.18736965684E+02  0.00000000000E+00 0.  1.
</event>
<event>
 7    1  0.7674040E-012  0.5930194E+02  0.7816164E-02  0.1266605E+00
        -11   -1    0    0    0    0  0.00000000000E+00  0.00000000000E+00  0.45593999997E+02  0.45594000000E+02  0.51100000000E-03 0. -1.
         11   -1    0    0    0    0 -0.00000000000E+00 -0.00000000000E+00 -0.45593999997E+02  0.45594000000E+02  0.51100000000E-03 0.  1.
    9900012    2    1    2    0    0 -0.31585122717E+02  0.43617297901E+01  0.27540781423E+00  0.59301944846E+02  0.50000001493E+02 0.  0.
         12    1    1    2    0    0  0.31585122717E+02 -0.43617297901E+01 -0.27540781423E+00  0.31886055154E+02  0.00000000000E+00 0. -1.
         11    1    3    3    0    0  0.56291797218E+01  0.82079830109E+01  0.12708312094E+02  0.16141866249E+02  0.51100000000E-03 0. -1.
        -11    1    3    3    0    0 -0.29178260127E+02  0.32915734825E+01 -0.42890164945E+01  0.29674921782E+02  0.51100000000E-03 0.  1.
         12    1    3    3    0    0 -0.80360423117E+01 -0.71378267033E+01 -0.81438877852E+01  0.13485156816E+02  0.00000000000E+00 0. -1.
</event>
<event>
 7    1  0.7674040E-012  0.5930195E+02  0.7816164E-02  0.1266605E+00
        -11   -1    0    0    0    0  0.00000000000E+00  0.00000000000E+00  0.45593999997E+02  0.45594000000E+02  0.51100000000E-03 0. -1.
         11   -1    0    0    0    0 -0.00000000000E+00 -0.00000000000E+00 -0.45593999997E+02  0.45594000000E+02  0.51100000000E-03 0.  1.
    9900012    2    1    2    0    0  0.24408073802E+01  0.31281792232E+02 -0.56755514001E+01  0.59301953685E+02  0.50000017613E+02 0.  0.
         12    1    1    2    0    0 -0.24408073802E+01 -0.31281792232E+02  0.56755514001E+01  0.31886046315E+02  0.00000000000E+00 0. -1.
         11    1    3    3    0    0 -0.95296885630E+01  0.22030190995E+01  0.16701446110E+02  0.19354755480E+02  0.51100000000E-03 0. -1.
        -11    1    3    3    0    0  0.30952238383E+01  0.18641097194E+02 -0.95222469376E+01  0.21159964608E+02  0.51100000000E-03 0.  1.
         12    1    3    3    0    0  0.88752721050E+01  0.10437675938E+02 -0.12854750573E+02  0.18787233597E+02  0.00000000000E+00 0. -1.
</event>
<event>
 7    1  0.7674040E-012  0.5930193E+02  0.7816164E-02  0.1266605E+00
        -11   -1    0    0    0    0  0.00000000000E+00  0.00000000000E+00  0.45593999997E+02  0.45594000000E+02  0.51100000000E-03 0.  1.
         11   -1    0    0    0    0 -0.00000000000E+00 -0.00000000000E+00 -0.45593999997E+02  0.45594000000E+02  0.51100000000E-03 0. -1.
    9900012    2    1    2    0    0  0.28594245519E+02 -0.12425998606E+02 -0.66846732411E+01  0.59301934478E+02  0.49999982584E+02 0.  0.
         12    1    1    2    0    0 -0.28594245519E+02  0.12425998606E+02  0.66846732411E+01  0.31886065522E+02  0.00000000000E+00 0. -1.
         11    1    3    3    0    0 -0.24746565900E+01  0.54246272983E+01 -0.44701641978E+01  0.74520382970E+01  0.51100000000E-03 0. -1.
        -11    1    3    3    0    0  0.16950626898E+02 -0.27069320788E+02 -0.97321937311E+01  0.33388433256E+02  0.51100000000E-03 0.  1.
        -12    1    3    3    0    0  0.14118275210E+02  0.92186948844E+01  0.75176846877E+01  0.18461462925E+02  0.00000000000E+00 0.  1.
</event>
<event>
 7    1  0.7674040E-012  0.5930190E+02  0.7816164E-02  0.1266605E+00
        -11   -1    0    0    0    0  0.00000000000E+00  0.00000000000E+00  0.45593999997E+02  0.45594000000E+02  0.51100000000E-03 0. -1.
         11   -1    0    0    0    0 -0.00000000000E+00 -0.00000000000E+00 -0.45593999997E+02  0.45594000000E+02  0.51100000000E-03 0.  1.
    9900012    2    1    2    0    0 -0.24964213315E+02 -0.19570287010E+02  0.32427726189E+01  0.59301895592E+02  0.49999911664E+02 0.  0.
         12    1    1    2    0    0  0.24964213315E+02  0.19570287010E+02 -0.32427726189E+01  0.31886104408E+02  0.00000000000E+00 0. -1.
         11    1    3    3    0    0  0.43271563383E+01 -0.20775289737E+02 -0.50616470972E+01  0.21816443735E+02  0.51100000000E-03 0. -1.
        -11    1    3    3    0    0 -0.12640085171E+02 -0.93619223415E+00 -0.72476678627E+01  0.14600578712E+02  0.51100000000E-03 0.  1.
         12    1    3    3    0    0 -0.16651284482E+02  0.21411949620E+01  0.15552087579E+02  0.22884873144E+02  0.00000000000E+00 0. -1.
</event>
<event>
 7    1  0.7674040E-012  0.5930193E+02  0.7816164E-02  0.1266605E+00
        -11   -1    0    0    0    0  0.00000000000E+00  0.00000000000E+00  0.45593999997E+02  0.45594000000E+02  0.51100000000E-03 0.  1.
         11   -1    0    0    0    0 -0.00000000000E+00 -0.00000000000E+00 -0.45593999997E+02  0.45594000000E+02  0.51100000000E-03 0. -1.
    9900012    2    1    2    0    0  0.30977654792E+02 -0.64965355478E+01  0.38602667929E+01  0.59301925763E+02  0.49999966689E+02 0.  0.
         12    1    1    2    0    0 -0.30977654792E+02  0.64965355478E+01 -0.38602667929E+01  0.31886074237E+02  0.00000000000E+00 0. -1.
         11    1    3    3    0    0  0.23579562913E+02  0.12846868560E+02  0.63466271327E+01  0.27591982444E+02  0.51100000000E-03 0. -1.
        -11    1    3    3    0    0 -0.57407684187E+01 -0.56098111672E+01  0.68335469644E+01  0.10541525874E+02  0.51100000000E-03 0.  1.
         12    1    3    3    0    0  0.13138860298E+02 -0.13733592940E+02 -0.93199073042E+01  0.21168417445E+02  0.00000000000E+00 0. -1.
</event>
<event>
 7    1  0.7674040E-012  0.5930194E+02  0.7816164E-02  0.1266605E+00
        -11   -1    0    0    0    0  0.00000000000E+00  0.00000000000E+00  0.45593999997E+02  0.45594000000E+02  0.51100000000E-03 0.  1.
         11   -1    0    0    0    0 -0.00000000000E+00 -0.00000000000E+00 -0.45593999997E+02  0.45594000000E+02  0.51100000000E-03 0. -1.
    9900012    2    1    2    0    0 -0.27369244397E+01 -0.20517247814E+02  0.24254325828E+02  0.59301944512E+02  0.50000000882E+02 0.  0.
         12    1    1    2    0    0  0.27369244397E+01  0.20517247814E+02 -0.24254325828E+02  0.31886055488E+02  0.00000000000E+00 0. -1.
         11    1    3    3    0    0 -0.24388415710E+02 -0.13606492972E+02  0.16877999415E+02  0.32631247852E+02  0.51100000000E-03 0. -1.
        -11    1    3    3    0    0  0.94474937929E+01  0.11878641363E+01 -0.13567890776E+01  0.96180578619E+01  0.51100000000E-03 0.  1.
         12    1    3    3    0    0  0.12203997478E+02 -0.80986189788E+01  0.87331154905E+01  0.17052638798E+02  0.00000000000E+00 0. -1.
</event>
<event>
 7    1  0.7674040E-012  0.5930204E+02  0.7816164E-02  0.1266604E+00
        -11   -1    0    0    0    0  0.00000000000E+00  0.00000000000E+00  0.45593999997E+02  0.45594000000E+02  0.51100000000E-03 0.  1.
         11   -1    0    0    0    0 -0.00000000000E+00 -0.00000000000E+00 -0.45593999997E+02  0.45594000000E+02  0.51100000000E-03 0. -1.
    9900012    2    1    2    0    0 -0.24654660342E+02 -0.19902041650E+02 -0.35736671865E+01  0.59302037013E+02  0.50000169583E+02 0.  0.
         12    1    1    2    0    0  0.24654660342E+02  0.19902041650E+02  0.35736671865E+01  0.31885962987E+02  0.00000000000E+00 0. -1.
         11    1    3    3    0    0  0.80494420026E+01  0.97424719963E+01 -0.54131178359E+01  0.13748131586E+02  0.51100000000E-03 0. -1.
        -11    1    3    3    0    0 -0.38990756286E+01 -0.15648499736E+01  0.32355585205E+01  0.53028657722E+01  0.51100000000E-03 0.  1.
         12    1    3    3    0    0 -0.28805026716E+02 -0.28079663673E+02 -0.13961078711E+01  0.40251039655E+02  0.00000000000E+00 0. -1.
</event>
<event>
 7    1  0.7674040E-012  0.5930192E+02  0.7816164E-02  0.1266605E+00
        -11   -1    0    0    0    0  0.00000000000E+00  0.00000000000E+00  0.45593999997E+02  0.45594000000E+02  0.51100000000E-03 0. -1.
         11   -1    0    0    0    0 -0.00000000000E+00 -0.00000000000E+00 -0.45593999997E+02  0.45594000000E+02  0.51100000000E-03 0.  1.
    9900012    2    1    2    0    0 -0.11275961382E+02 -0.29118404907E+02 -0.64570182055E+01  0.59301923202E+02  0.49999962019E+02 0.  0.
         12    1    1    2    0    0  0.11275961382E+02  0.29118404907E+02  0.64570182055E+01  0.31886076798E+02  0.00000000000E+00 0. -1.
         11    1    3    3    0    0  0.77914319779E+01 -0.11427217641E+02  0.17020405581E+02  0.21931300045E+02  0.51100000000E-03 0. -1.
        -11    1    3    3    0    0 -0.70651685695E+01 -0.15227935125E+02 -0.12651247469E+02  0.21020482342E+02  0.51100000000E-03 0.  1.
         12    1    3    3    0    0 -0.12002224791E+02 -0.24632521407E+01 -0.10826176317E+02  0.16350140815E+02  0.00000000000E+00 0. -1.
</event>
<event>
 7    1  0.7674040E-012  0.5930194E+02  0.7816164E-02  0.1266605E+00
        -11   -1    0    0    0    0  0.00000000000E+00  0.00000000000E+00  0.45593999997E+02  0.45594000000E+02  0.51100000000E-03 0. -1.
         11   -1    0    0    0    0 -0.00000000000E+00 -0.00000000000E+00 -0.45593999997E+02  0.45594000000E+02  0.51100000000E-03 0.  1.
    9900012    2    1    2    0    0  0.31667025238E+00  0.22764790696E+02 -0.22324531223E+02  0.59301942391E+02  0.49999997016E+02 0.  0.
         12    1    1    2    0    0 -0.31667025238E+00 -0.22764790696E+02  0.22324531223E+02  0.31886057609E+02  0.00000000000E+00 0. -1.
         11    1    3    3    0    0 -0.16946105034E+02  0.15255997292E+01 -0.81191228159E+01  0.18852535265E+02  0.51100000000E-03 0. -1.
        -11    1    3    3    0    0  0.14276726525E+02  0.40962281659E+01  0.38808569938E+01  0.15351386150E+02  0.51100000000E-03 0.  1.
        -12    1    3    3    0    0  0.29860487614E+01  0.17142962801E+02 -0.18086265401E+02  0.25098020977E+02  0.00000000000E+00 0.  1.
</event>
<event>
 7    1  0.7674040E-012  0.5930191E+02  0.7816164E-02  0.1266605E+00
        -11   -1    0    0    0    0  0.00000000000E+00  0.00000000000E+00  0.45593999997E+02  0.45594000000E+02  0.51100000000E-03 0.  1.
         11   -1    0    0    0    0 -0.00000000000E+00 -0.00000000000E+00 -0.45593999997E+02  0.45594000000E+02  0.51100000000E-03 0. -1.
    9900012    2    1    2    0    0  0.19122389819E+01 -0.27597997054E+02  0.15856115391E+02  0.59301913777E+02  0.49999944830E+02 0.  0.
         12    1    1    2    0    0 -0.19122389819E+01  0.27597997054E+02 -0.15856115391E+02  0.31886086223E+02  0.00000000000E+00 0. -1.
         11    1    3    3    0    0  0.40795818884E+01  0.55862275311E+01 -0.30119936913E+01  0.75446028836E+01  0.51100000000E-03 0. -1.
        -11    1    3    3    0    0 -0.15716735762E+02 -0.29554524866E+02  0.17191807211E+02  0.37630359532E+02  0.51100000000E-03 0.  1.
        -12    1    3    3    0    0  0.13549392856E+02 -0.36296997187E+01  0.16763018712E+01  0.14126951361E+02  0.00000000000E+00 0.  1.
</event>
<event>
 7    1  0.7674040E-012  0.5930194E+02  0.7816164E-02  0.1266605E+00
        -11   -1    0    0    0    0  0.00000000000E+00  0.00000000000E+00  0.45593999997E+02  0.45594000000E+02  0.51100000000E-03 0.  1.
         11   -1    0    0    0    0 -0.00000000000E+00 -0.00000000000E+00 -0.45593999997E+02  0.45594000000E+02  0.51100000000E-03 0. -1.
    9900012    2    1    2    0    0  0.17045490193E+02  0.24165666666E+02  0.11924457484E+02  0.59301939290E+02  0.49999991360E+02 0.  0.
         12    1    1    2    0    0 -0.17045490193E+02 -0.24165666666E+02 -0.11924457484E+02  0.31886060710E+02  0.00000000000E+00 0. -1.
         11    1    3    3    0    0  0.22147511957E+02  0.13980275380E+02 -0.12089757163E+02  0.28846535565E+02  0.51100000000E-03 0. -1.
        -11    1    3    3    0    0  0.51951313200E+01  0.44731734713E+01  0.73540943390E+01  0.10053923321E+02  0.51100000000E-03 0.  1.
         12    1    3    3    0    0 -0.10297153084E+02  0.57122178147E+01  0.16660120308E+02  0.20401480404E+02  0.00000000000E+00 0. -1.
</event>
<event>
 7    1  0.7674040E-012  0.5930196E+02  0.7816164E-02  0.1266605E+00
        -11   -1    0    0    0    0  0.00000000000E+00  0.00000000000E+00  0.45593999997E+02  0.45594000000E+02  0.51100000000E-03 0. -1.
         11   -1    0    0    0    0 -0.00000000000E+00 -0.00000000000E+00 -0.45593999997E+02  0.45594000000E+02  0.51100000000E-03 0.  1.
    9900012    2    1    2    0    0  0.22405074967E+02  0.20524895120E+02  0.96675297488E+01  0.59301955476E+02  0.50000020878E+02 0.  0.
         12    1    1    2    0    0 -0.22405074967E+02 -0.20524895120E+02 -0.96675297488E+01  0.31886044524E+02  0.00000000000E+00 0. -1.
         11    1    3    3    0    0  0.92403487192E+00  0.13731140908E+02  0.72090513130E+01  0.15536038497E+02  0.51100000000E-03 0. -1.
        -11    1    3    3    0    0 -0.37773688772E+01 -0.36349384398E+00 -0.12834351949E+02  0.13383618107E+02  0.51100000000E-03 0.  1.
        -12    1    3    3    0    0  0.25258408972E+02  0.71572480557E+01  0.15292830385E+02  0.30382298872E+02  0.00000000000E+00 0.  1.
</event>
<event>
 7    1  0.7674040E-012  0.5930193E+02  0.7816164E-02  0.1266605E+00
        -11   -1    0    0    0    0  0.00000000000E+00  0.00000000000E+00  0.45593999997E+02  0.45594000000E+02  0.51100000000E-03 0.  1.
         11   -1    0    0    0    0 -0.00000000000E+00 -0.00000000000E+00 -0.45593999997E+02  0.45594000000E+02  0.51100000000E-03 0. -1.
    9900012    2    1    2    0    0 -0.12820988433E+02 -0.46513547840E+01  0.28822014862E+02  0.59301931154E+02  0.49999976522E+02 0.  0.
         12    1    1    2    0    0  0.12820988433E+02  0.46513547840E+01 -0.28822014862E+02  0.31886068846E+02  0.00000000000E+00 0. -1.
         11    1    3    3    0    0 -0.12153511906E+02 -0.18855038616E+02  0.42446154231E+01  0.22830617451E+02  0.51100000000E-03 0. -1.
        -11    1    3    3    0    0 -0.11283621235E+01  0.19266966942E+02  0.11562171649E+02  0.22498289485E+02  0.51100000000E-03 0.  1.
        -12    1    3    3    0    0  0.46088559616E+00 -0.50632831107E+01  0.13015227790E+02  0.13973024218E+02  0.00000000000E+00 0.  1.
</event>
<event>
 7    1  0.7674040E-012  0.5930199E+02  0.7816164E-02  0.1266605E+00
        -11   -1    0    0    0    0  0.00000000000E+00  0.00000000000E+00  0.45593999997E+02  0.45594000000E+02  0.51100000000E-03 0.  1.
         11   -1    0    0    0    0 -0.00000000000E+00 -0.00000000000E+00 -0.45593999997E+02  0.45594000000E+02  0.51100000000E-03 0. -1.
    9900012    2    1    2    0    0 -0.10745641696E+02 -0.28885613934E+02 -0.81774228590E+01  0.59301988138E+02  0.50000080447E+02 0.  0.
         12    1    1    2    0    0  0.10745641696E+02  0.28885613934E+02  0.81774228590E+01  0.31886011862E+02  0.00000000000E+00 0. -1.
         11    1    3    3    0    0 -0.20800906334E+02 -0.17075690036E+02  0.98664856360E+00  0.26930101563E+02  0.51100000000E-03 0. -1.
        -11    1    3    3    0    0  0.16218979372E+02 -0.10529677654E+02  0.21173956061E+01  0.19452834440E+02  0.51100000000E-03 0.  1.
        -12    1    3    3    0    0 -0.61637147337E+01 -0.12802462449E+01 -0.11281467029E+02  0.12919052136E+02  0.00000000000E+00 0.  1.
</event>
<event>
 7    1  0.7674040E-012  0.5930193E+02  0.7816164E-02  0.1266605E+00
        -11   -1    0    0    0    0  0.00000000000E+00  0.00000000000E+00  0.45593999997E+02  0.45594000000E+02  0.51100000000E-03 0. -1.
         11   -1    0    0    0    0 -0.00000000000E+00 -0.00000000000E+00 -0.45593999997E+02  0.45594000000E+02  0.51100000000E-03 0.  1.
    9900012    2    1    2    0    0 -0.31850726330E+02  0.15003048425E+01  0.38892737714E-01  0.59301934156E+02  0.49999981997E+02 0.  0.
         12    1    1    2    0    0  0.31850726330E+02 -0.15003048425E+01 -0.38892737714E-01  0.31886065844E+02  0.00000000000E+00 0. -1.
         11    1    3    3    0    0 -0.26605876237E+02 -0.14685742291E+02  0.10173598614E+02  0.32047555070E+02  0.51100000000E-03 0. -1.
        -11    1    3    3    0    0  0.62594072578E+01  0.10719026706E+02 -0.64842250425E+01  0.14004388148E+02  0.51100000000E-03 0.  1.
        -12    1    3    3    0    0 -0.11504257350E+02  0.54670204274E+01 -0.36504808333E+01  0.13249990938E+02  0.00000000000E+00 0.  1.
</event>
<event>
 7    1  0.7674040E-012  0.5930197E+02  0.7816164E-02  0.1266605E+00
        -11   -1    0    0    0    0  0.00000000000E+00  0.00000000000E+00  0.45593999997E+02  0.45594000000E+02  0.51100000000E-03 0. -1.
         11   -1    0    0    0    0 -0.00000000000E+00 -0.00000000000E+00 -0.45593999997E+02  0.45594000000E+02  0.51100000000E-03 0.  1.
    9900012    2    1    2    0    0  0.68644350334E+01 -0.28219817947E+02 -0.13162076974E+02  0.59301970715E+02  0.50000048672E+02 0.  0.
         12    1    1    2    0    0 -0.68644350334E+01  0.28219817947E+02  0.13162076974E+02  0.31886029285E+02  0.00000000000E+00 0. -1.
         11    1    3    3    0    0  0.78265909139E+01 -0.28489548769E+02 -0.12702464347E+02  0.32159952038E+02  0.51100000000E-03 0. -1.
        -11    1    3    3    0    0 -0.46264385148E+01  0.52136563714E+01 -0.12106276944E+02  0.13969541431E+02  0.51100000000E-03 0.  1.
         12    1    3    3    0    0  0.36642826343E+01 -0.49439255497E+01  0.11646664317E+02  0.13172477246E+02  0.00000000000E+00 0. -1.
</event>
<event>
 7    1  0.7674040E-012  0.5930195E+02  0.7816164E-02  0.1266605E+00
        -11   -1    0    0    0    0  0.00000000000E+00  0.00000000000E+00  0.45593999997E+02  0.45594000000E+02  0.51100000000E-03 0.  1.
         11   -1    0    0    0    0 -0.00000000000E+00 -0.00000000000E+00 -0.45593999997E+02  0.45594000000E+02  0.51100000000E-03 0. -1.
    9900012    2    1    2    0    0  0.18992004304E+02  0.84841316312E+01  0.24166987464E+02  0.59301952893E+02  0.50000016168E+02 0.  0.
         12    1    1    2    0    0 -0.18992004304E+02 -0.84841316312E+01 -0.24166987464E+02  0.31886047107E+02  0.00000000000E+00 0. -1.
         11    1    3    3    0    0 -0.60352253846E+01  0.36857176900E+01 -0.30364544163E+01  0.76960064980E+01  0.51100000000E-03 0. -1.
        -11    1    3    3    0    0  0.22888921722E+02  0.55776592908E+01 -0.73965413941E+00  0.23570322638E+02  0.51100000000E-03 0.  1.
        -12    1    3    3    0    0  0.21383079669E+01 -0.77924534959E+00  0.27943096020E+02  0.28035623757E+02  0.00000000000E+00 0.  1.
</event>
<event>
 7    1  0.7674040E-012  0.5930157E+02  0.7816164E-02  0.1266606E+00
        -11   -1    0    0    0    0  0.00000000000E+00  0.00000000000E+00  0.45593999997E+02  0.45594000000E+02  0.51100000000E-03 0.  1.
         11   -1    0    0    0    0 -0.00000000000E+00 -0.00000000000E+00 -0.45593999997E+02  0.45594000000E+02  0.51100000000E-03 0. -1.
    9900012    2    1    2    0    0  0.13506130003E+02  0.27753575171E+02  0.80042528727E+01  0.59301567987E+02  0.49999314187E+02 0.  0.
         12    1    1    2    0    0 -0.13506130003E+02 -0.27753575171E+02 -0.80042528727E+01  0.31886432013E+02  0.00000000000E+00 0. -1.
         11    1    3    3    0    0  0.12794922012E+02  0.94965310189E+01  0.10588747990E+02  0.19131537182E+02  0.51100000000E-03 0. -1.
        -11    1    3    3    0    0  0.12198065486E+02  0.52300552822E+01 -0.14074535336E+02  0.19345253295E+02  0.51100000000E-03 0.  1.
        -12    1    3    3    0    0 -0.11486857494E+02  0.13026988870E+02  0.11490040219E+02  0.20824777510E+02  0.00000000000E+00 0.  1.
</event>
<event>
 7    1  0.7674040E-012  0.5930195E+02  0.7816164E-02  0.1266605E+00
        -11   -1    0    0    0    0  0.00000000000E+00  0.00000000000E+00  0.45593999997E+02  0.45594000000E+02  0.51100000000E-03 0.  1.
         11   -1    0    0    0    0 -0.00000000000E+00 -0.00000000000E+00 -0.45593999997E+02  0.45594000000E+02  0.51100000000E-03 0. -1.
    9900012    2    1    2    0    0 -0.26251574421E+02  0.15645307772E+02  0.90994149211E+01  0.59301950280E+02  0.50000011402E+02 0.  0.
         12    1    1    2    0    0  0.26251574421E+02 -0.15645307772E+02 -0.90994149211E+01  0.31886049720E+02  0.00000000000E+00 0. -1.
         11    1    3    3    0    0 -0.12809096072E+02  0.22406580110E+02 -0.84432667827E+01  0.27155414352E+02  0.51100000000E-03 0. -1.
        -11    1    3    3    0    0  0.41089940150E+01 -0.22753000085E+01  0.12483209867E+02  0.13337591641E+02  0.51100000000E-03 0.  1.
         12    1    3    3    0    0 -0.17551472364E+02 -0.44859723300E+01  0.50594718370E+01  0.18808944286E+02  0.00000000000E+00 0. -1.
</event>
<event>
 7    1  0.7674040E-012  0.5930195E+02  0.7816164E-02  0.1266605E+00
        -11   -1    0    0    0    0  0.00000000000E+00  0.00000000000E+00  0.45593999997E+02  0.45594000000E+02  0.51100000000E-03 0. -1.
         11   -1    0    0    0    0 -0.00000000000E+00 -0.00000000000E+00 -0.45593999997E+02  0.45594000000E+02  0.51100000000E-03 0.  1.
    9900012    2    1    2    0    0 -0.16887862702E+02  0.82818052965E+01 -0.25747469228E+02  0.59301946979E+02  0.50000005382E+02 0.  0.
         12    1    1    2    0    0  0.16887862702E+02 -0.82818052965E+01  0.25747469228E+02  0.31886053021E+02  0.00000000000E+00 0. -1.
         11    1    3    3    0    0 -0.22970965905E+02 -0.98145581103E+01 -0.35068112738E+01  0.25224760674E+02  0.51100000000E-03 0. -1.
        -11    1    3    3    0    0  0.11053523933E+02  0.58913630127E+01 -0.92349181972E+01  0.15561884971E+02  0.51100000000E-03 0.  1.
         12    1    3    3    0    0 -0.49704207293E+01  0.12205000394E+02 -0.13005739757E+02  0.18515301334E+02  0.00000000000E+00 0. -1.
</event>
<event>
 7    1  0.7674040E-012  0.5930194E+02  0.7816164E-02  0.1266605E+00
        -11   -1    0    0    0    0  0.00000000000E+00  0.00000000000E+00  0.45593999997E+02  0.45594000000E+02  0.51100000000E-03 0. -1.
         11   -1    0    0    0    0 -0.00000000000E+00 -0.00000000000E+00 -0.45593999997E+02  0.45594000000E+02  0.51100000000E-03 0.  1.
    9900012    2    1    2    0    0 -0.31156438816E+02  0.34748967214E+00  0.67731889310E+01  0.59301944787E+02  0.50000001385E+02 0.  0.
         12    1    1    2    0    0  0.31156438816E+02 -0.34748967214E+00 -0.67731889310E+01  0.31886055213E+02  0.00000000000E+00 0. -1.
         11    1    3    3    0    0 -0.33791789104E+02  0.12068941899E+02 -0.79241232260E+01  0.36746919580E+02  0.51100000000E-03 0. -1.
        -11    1    3    3    0    0  0.16512242394E+01 -0.11557323025E+02  0.48250461302E+01  0.12632471152E+02  0.51100000000E-03 0.  1.
         12    1    3    3    0    0  0.98412604911E+00 -0.16412920193E+00  0.98722660268E+01  0.99225540553E+01  0.00000000000E+00 0. -1.
</event>
<event>
 7    1  0.7674040E-012  0.5930195E+02  0.7816164E-02  0.1266605E+00
        -11   -1    0    0    0    0  0.00000000000E+00  0.00000000000E+00  0.45593999997E+02  0.45594000000E+02  0.51100000000E-03 0. -1.
         11   -1    0    0    0    0 -0.00000000000E+00 -0.00000000000E+00 -0.45593999997E+02  0.45594000000E+02  0.51100000000E-03 0.  1.
    9900012    2    1    2    0    0  0.11218135822E+02 -0.15496301493E+02 -0.25509568283E+02  0.59301952812E+02  0.50000016020E+02 0.  0.
         12    1    1    2    0    0 -0.11218135822E+02  0.15496301493E+02  0.25509568283E+02  0.31886047188E+02  0.00000000000E+00 0. -1.
         11    1    3    3    0    0  0.22992484515E+02 -0.83798195585E+01 -0.18050620822E+02  0.30408890679E+02  0.51100000000E-03 0. -1.
        -11    1    3    3    0    0 -0.11623579113E+02  0.65389816846E+01 -0.85867754596E-02  0.13336639265E+02  0.51100000000E-03 0.  1.
         12    1    3    3    0    0 -0.15076957914E+00 -0.13655463619E+02 -0.74503606863E+01  0.15556422869E+02  0.00000000000E+00 0. -1.
</event>
<event>
 7    1  0.7674040E-012  0.5930199E+02  0.7816164E-02  0.1266605E+00
        -11   -1    0    0    0    0  0.00000000000E+00  0.00000000000E+00  0.45593999997E+02  0.45594000000E+02  0.51100000000E-03 0. -1.
         11   -1    0    0    0    0 -0.00000000000E+00 -0.00000000000E+00 -0.45593999997E+02  0.45594000000E+02  0.51100000000E-03 0.  1.
    9900012    2    1    2    0    0 -0.10915984920E+02 -0.32117118668E+01 -0.29786640539E+02  0.59301987792E+02  0.50000079816E+02 0.  0.
         12    1    1    2    0    0  0.10915984920E+02  0.32117118668E+01  0.29786640539E+02  0.31886012208E+02  0.00000000000E+00 0. -1.
         11    1    3    3    0    0  0.12566160875E+02 -0.48592583467E+01 -0.58850326513E+00  0.13485812069E+02  0.51100000000E-03 0. -1.
        -11    1    3    3    0    0 -0.14115545227E+02  0.10181582506E+02 -0.43749051955E+01  0.17945836150E+02  0.51100000000E-03 0.  1.
        -12    1    3    3    0    0 -0.93666005678E+01 -0.85340360265E+01 -0.24823232078E+02  0.27870339573E+02  0.00000000000E+00 0.  1.
</event>
<event>
 7    1  0.7674040E-012  0.5930195E+02  0.7816164E-02  0.1266605E+00
        -11   -1    0    0    0    0  0.00000000000E+00  0.00000000000E+00  0.45593999997E+02  0.45594000000E+02  0.51100000000E-03 0. -1.
         11   -1    0    0    0    0 -0.00000000000E+00 -0.00000000000E+00 -0.45593999997E+02  0.45594000000E+02  0.51100000000E-03 0.  1.
    9900012    2    1    2    0    0 -0.17645018944E+02  0.16550097515E+02 -0.20771799363E+02  0.59301951796E+02  0.50000014167E+02 0.  0.
         12    1    1    2    0    0  0.17645018944E+02 -0.16550097515E+02  0.20771799363E+02  0.31886048204E+02  0.00000000000E+00 0. -1.
         11    1    3    3    0    0 -0.11343218199E+02 -0.14484760486E+02 -0.98844897630E+01  0.20884923356E+02  0.51100000000E-03 0. -1.
        -11    1    3    3    0    0  0.15196160035E+01  0.27278089931E+02 -0.46076808868E+01  0.27706211335E+02  0.51100000000E-03 0.  1.
        -12    1    3    3    0    0 -0.78214167492E+01  0.37567680698E+01 -0.62796287131E+01  0.10710817106E+02  0.00000000000E+00 0.  1.
</event>
<event>
 7    1  0.7674040E-012  0.5930195E+02  0.7816164E-02  0.1266605E+00
        -11   -1    0    0    0    0  0.00000000000E+00  0.00000000000E+00  0.45593999997E+02  0.45594000000E+02  0.51100000000E-03 0. -1.
         11   -1    0    0    0    0 -0.00000000000E+00 -0.00000000000E+00 -0.45593999997E+02  0.45594000000E+02  0.51100000000E-03 0.  1.
    9900012    2    1    2    0    0  0.17609460412E+01  0.80842703597E+00 -0.31827120149E+02  0.59301951919E+02  0.50000014392E+02 0.  0.
         12    1    1    2    0    0 -0.17609460412E+01 -0.80842703597E+00  0.31827120149E+02  0.31886048081E+02  0.00000000000E+00 0. -1.
         11    1    3    3    0    0 -0.11041453924E+02  0.13962191670E+01 -0.34939159350E+02  0.36668896752E+02  0.51100000000E-03 0.  1.
        -11    1    3    3    0    0  0.16940315324E+02  0.26612684947E+01  0.26517528594E+01  0.17351899802E+02  0.51100000000E-03 0. -1.
        -12    1    3    3    0    0 -0.41379153586E+01 -0.32490606257E+01  0.46028634103E+00  0.52811553642E+01  0.00000000000E+00 0.  1.
</event>
<event>
 7    1  0.7674040E-012  0.5930193E+02  0.7816164E-02  0.1266605E+00
        -11   -1    0    0    0    0  0.00000000000E+00  0.00000000000E+00  0.45593999997E+02  0.45594000000E+02  0.51100000000E-03 0.  1.
         11   -1    0    0    0    0 -0.00000000000E+00 -0.00000000000E+00 -0.45593999997E+02  0.45594000000E+02  0.51100000000E-03 0. -1.
    9900012    2    1    2    0    0  0.20632715140E+02 -0.12320123345E+02  0.20957752823E+02  0.59301925035E+02  0.49999965362E+02 0.  0.
         12    1    1    2    0    0 -0.20632715140E+02  0.12320123345E+02 -0.20957752823E+02  0.31886074965E+02  0.00000000000E+00 0. -1.
         11    1    3    3    0    0 -0.65736190035E+01  0.11477771695E+01  0.16579580654E+02  0.17872111072E+02  0.51100000000E-03 0. -1.
        -11    1    3    3    0    0  0.30701918307E+02 -0.43024839927E+01  0.87695968585E+00  0.31014322736E+02  0.51100000000E-03 0.  1.
        -12    1    3    3    0    0 -0.34955841631E+01 -0.91654165216E+01  0.35012124828E+01  0.10415491227E+02  0.00000000000E+00 0.  1.
</event>
<event>
 7    1  0.7674040E-012  0.5930190E+02  0.7816164E-02  0.1266605E+00
        -11   -1    0    0    0    0  0.00000000000E+00  0.00000000000E+00  0.45593999997E+02  0.45594000000E+02  0.51100000000E-03 0. -1.
         11   -1    0    0    0    0 -0.00000000000E+00 -0.00000000000E+00 -0.45593999997E+02  0.45594000000E+02  0.51100000000E-03 0.  1.
    9900012    2    1    2    0    0  0.12525577388E+02 -0.19989864855E+02 -0.21453174698E+02  0.59301898162E+02  0.49999916351E+02 0.  0.
         12    1    1    2    0    0 -0.12525577388E+02  0.19989864855E+02  0.21453174698E+02  0.31886101838E+02  0.00000000000E+00 0. -1.
         11    1    3    3    0    0 -0.11609298456E+02 -0.60012835917E+01 -0.16859587116E+02  0.21331593784E+02  0.51100000000E-03 0. -1.
        -11    1    3    3    0    0  0.17757810423E+02 -0.70233713165E+01 -0.14729458958E+02  0.24116893190E+02  0.51100000000E-03 0.  1.
         12    1    3    3    0    0  0.63770654209E+01 -0.69652099465E+01  0.10135871376E+02  0.13853411188E+02  0.00000000000E+00 0. -1.
</event>
<event>
 7    1  0.7674040E-012  0.5930197E+02  0.7816164E-02  0.1266605E+00
        -11   -1    0    0    0    0  0.00000000000E+00  0.00000000000E+00  0.45593999997E+02  0.45594000000E+02  0.51100000000E-03 0.  1.
         11   -1    0    0    0    0 -0.00000000000E+00 -0.00000000000E+00 -0.45593999997E+02  0.45594000000E+02  0.51100000000E-03 0. -1.
    9900012    2    1    2    0    0 -0.20400039358E+02  0.16939209767E+02 -0.17709340887E+02  0.59301965628E+02  0.50000039393E+02 0.  0.
         12    1    1    2    0    0  0.20400039358E+02 -0.16939209767E+02  0.17709340887E+02  0.31886034372E+02  0.00000000000E+00 0. -1.
         11    1    3    3    0    0 -0.97976382001E+00 -0.87860592872E+01 -0.33644055282E+01  0.94590697090E+01  0.51100000000E-03 0. -1.
        -11    1    3    3    0    0 -0.11882749813E+02  0.12928814525E+02 -0.25715132182E+02  0.31138754175E+02  0.51100000000E-03 0.  1.
        -12    1    3    3    0    0 -0.75375257249E+01  0.12796454529E+02  0.11370196823E+02  0.18704141744E+02  0.00000000000E+00 0.  1.
</event>
<event>
 7    1  0.7674040E-012  0.5930197E+02  0.7816164E-02  0.1266605E+00
        -11   -1    0    0    0    0  0.00000000000E+00  0.00000000000E+00  0.45593999997E+02  0.45594000000E+02  0.51100000000E-03 0. -1.
         11   -1    0    0    0    0 -0.00000000000E+00 -0.00000000000E+00 -0.45593999997E+02  0.45594000000E+02  0.51100000000E-03 0.  1.
    9900012    2    1    2    0    0  0.13992109708E+02 -0.53323170226E+01 -0.28151491726E+02  0.59301965043E+02  0.50000038327E+02 0.  0.
         12    1    1    2    0    0 -0.13992109708E+02  0.53323170226E+01  0.28151491726E+02  0.31886034957E+02  0.00000000000E+00 0. -1.
         11    1    3    3    0    0  0.26916031262E+02 -0.78044783573E+01 -0.26762661611E+02  0.38750776484E+02  0.51100000000E-03 0. -1.
        -11    1    3    3    0    0 -0.55303229589E+00  0.16034397816E+01  0.59187213299E+01  0.61569575519E+01  0.51100000000E-03 0.  1.
         12    1    3    3    0    0 -0.12370889259E+02  0.86872155316E+00 -0.73075514446E+01  0.14394231008E+02  0.00000000000E+00 0. -1.
</event>
<event>
 7    1  0.7674040E-012  0.5930194E+02  0.7816164E-02  0.1266605E+00
        -11   -1    0    0    0    0  0.00000000000E+00  0.00000000000E+00  0.45593999997E+02  0.45594000000E+02  0.51100000000E-03 0. -1.
         11   -1    0    0    0    0 -0.00000000000E+00 -0.00000000000E+00 -0.45593999997E+02  0.45594000000E+02  0.51100000000E-03 0.  1.
    9900012    2    1    2    0    0 -0.14617387753E+02 -0.25696146078E+02 -0.11948260164E+02  0.59301939269E+02  0.49999991322E+02 0.  0.
         12    1    1    2    0    0  0.14617387753E+02  0.25696146078E+02  0.11948260164E+02  0.31886060731E+02  0.00000000000E+00 0. -1.
         11    1    3    3    0    0  0.61272769102E+01 -0.17218547481E+02 -0.12029808438E+02  0.21880086631E+02  0.51100000000E-03 0. -1.
        -11    1    3    3    0    0 -0.20019618001E+02  0.42280820557E+01 -0.84104977733E+01  0.22122347431E+02  0.51100000000E-03 0.  1.
         12    1    3    3    0    0 -0.72504666177E+00 -0.12705680653E+02  0.84920460473E+01  0.15299505208E+02  0.00000000000E+00 0. -1.
</event>
<event>
 7    1  0.7674040E-012  0.5930173E+02  0.7816164E-02  0.1266606E+00
        -11   -1    0    0    0    0  0.00000000000E+00  0.00000000000E+00  0.45593999997E+02  0.45594000000E+02  0.51100000000E-03 0.  1.
         11   -1    0    0    0    0 -0.00000000000E+00 -0.00000000000E+00 -0.45593999997E+02  0.45594000000E+02  0.51100000000E-03 0. -1.
    9900012    2    1    2    0    0  0.10445675292E+02 -0.71944626204E+01  0.29255120753E+02  0.59301725289E+02  0.49999601071E+02 0.  0.
         12    1    1    2    0    0 -0.10445675292E+02  0.71944626204E+01 -0.29255120753E+02  0.31886274711E+02  0.00000000000E+00 0. -1.
         11    1    3    3    0    0 -0.18601284887E+02 -0.39963025137E+01  0.52589545325E+01  0.19739170101E+02  0.51100000000E-03 0. -1.
        -11    1    3    3    0    0  0.30096918978E+02 -0.33087633766E+01  0.23741849526E+02  0.38476588547E+02  0.51100000000E-03 0.  1.
        -12    1    3    3    0    0 -0.10499587992E+01  0.11060326994E+00  0.25431669491E+00  0.10859666407E+01  0.00000000000E+00 0.  1.
</event>
<event>
 7    1  0.7674040E-012  0.5930194E+02  0.7816164E-02  0.1266605E+00
        -11   -1    0    0    0    0  0.00000000000E+00  0.00000000000E+00  0.45593999997E+02  0.45594000000E+02  0.51100000000E-03 0. -1.
         11   -1    0    0    0    0 -0.00000000000E+00 -0.00000000000E+00 -0.45593999997E+02  0.45594000000E+02  0.51100000000E-03 0.  1.
    9900012    2    1    2    0    0  0.37788156010E+01  0.12993997320E+02 -0.28872086361E+02  0.59301940592E+02  0.49999993734E+02 0.  0.
         12    1    1    2    0    0 -0.37788156010E+01 -0.12993997320E+02  0.28872086361E+02  0.31886059408E+02  0.00000000000E+00 0. -1.
         11    1    3    3    0    0 -0.96540884065E+01 -0.13711383092E+02 -0.12722560860E+01  0.16817315037E+02  0.51100000000E-03 0. -1.
        -11    1    3    3    0    0  0.12461970332E+02  0.21646975659E+02 -0.27744803074E+02  0.37331841070E+02  0.51100000000E-03 0.  1.
         12    1    3    3    0    0  0.97093367514E+00  0.50584047525E+01  0.14497279898E+00  0.51527844855E+01  0.00000000000E+00 0. -1.
</event>
<event>
 7    1  0.7674040E-012  0.5930193E+02  0.7816164E-02  0.1266605E+00
        -11   -1    0    0    0    0  0.00000000000E+00  0.00000000000E+00  0.45593999997E+02  0.45594000000E+02  0.51100000000E-03 0. -1.
         11   -1    0    0    0    0 -0.00000000000E+00 -0.00000000000E+00 -0.45593999997E+02  0.45594000000E+02  0.51100000000E-03 0.  1.
    9900012    2    1    2    0    0  0.19570519125E+02  0.11480100779E+02  0.22403656642E+02  0.59301925239E+02  0.49999965734E+02 0.  0.
         12    1    1    2    0    0 -0.19570519125E+02 -0.11480100779E+02 -0.22403656642E+02  0.31886074761E+02  0.00000000000E+00 0. -1.
         11    1    3    3    0    0 -0.99173733914E+01  0.86088600055E+01  0.88872217733E+01  0.15857158531E+02  0.51100000000E-03 0. -1.
        -11    1    3    3    0    0  0.12399055978E+02 -0.91915488913E+01 -0.42408827440E+01  0.16006443917E+02  0.51100000000E-03 0.  1.
        -12    1    3    3    0    0  0.17088836539E+02  0.12062789665E+02  0.17757317613E+02  0.27438322791E+02  0.00000000000E+00 0.  1.
</event>
<event>
 7    1  0.7674040E-012  0.5930193E+02  0.7816164E-02  0.1266605E+00
        -11   -1    0    0    0    0  0.00000000000E+00  0.00000000000E+00  0.45593999997E+02  0.45594000000E+02  0.51100000000E-03 0. -1.
         11   -1    0    0    0    0 -0.00000000000E+00 -0.00000000000E+00 -0.45593999997E+02  0.45594000000E+02  0.51100000000E-03 0.  1.
    9900012    2    1    2    0    0  0.74667672006E+01  0.64359365451E+01 -0.30324040168E+02  0.59301932451E+02  0.49999978886E+02 0.  0.
         12    1    1    2    0    0 -0.74667672006E+01 -0.64359365451E+01  0.30324040168E+02  0.31886067549E+02  0.00000000000E+00 0. -1.
         11    1    3    3    0    0 -0.12025870966E+02 -0.60974403339E+01 -0.14680076300E+02  0.19932510919E+02  0.51100000000E-03 0. -1.
        -11    1    3    3    0    0  0.11755241828E+02  0.23331614461E+01 -0.22017495523E+02  0.25067897042E+02  0.51100000000E-03 0.  1.
         12    1    3    3    0    0  0.77373963386E+01  0.10200215433E+02  0.63735316544E+01  0.14301524490E+02  0.00000000000E+00 0. -1.
</event>
<event>
 7    1  0.7674040E-012  0.5930193E+02  0.7816164E-02  0.1266605E+00
        -11   -1    0    0    0    0  0.00000000000E+00  0.00000000000E+00  0.45593999997E+02  0.45594000000E+02  0.51100000000E-03 0. -1.
         11   -1    0    0    0    0 -0.00000000000E+00 -0.00000000000E+00 -0.45593999997E+02  0.45594000000E+02  0.51100000000E-03 0.  1.
    9900012    2    1    2    0    0 -0.12561228618E+02  0.24803742778E+02  0.15611265943E+02  0.59301925539E+02  0.49999966281E+02 0.  0.
         12    1    1    2    0    0  0.12561228618E+02 -0.24803742778E+02 -0.15611265943E+02  0.31886074461E+02  0.00000000000E+00 0. -1.
         11    1    3    3    0    0  0.10626895334E+02  0.26081284124E+02  0.17890940510E+02  0.33365401820E+02  0.51100000000E-03 0. -1.
        -11    1    3    3    0    0 -0.23016662447E+02 -0.12810360087E+01  0.59185194039E+00  0.23059880581E+02  0.51100000000E-03 0.  1.
         12    1    3    3    0    0 -0.17146150464E+00  0.34946625813E-02 -0.28715265071E+01  0.28766431376E+01  0.00000000000E+00 0. -1.
</event>
<event>
 7    1  0.7674040E-012  0.5930186E+02  0.7816164E-02  0.1266605E+00
        -11   -1    0    0    0    0  0.00000000000E+00  0.00000000000E+00  0.45593999997E+02  0.45594000000E+02  0.51100000000E-03 0.  1.
         11   -1    0    0    0    0 -0.00000000000E+00 -0.00000000000E+00 -0.45593999997E+02  0.45594000000E+02  0.51100000000E-03 0. -1.
    9900012    2    1    2    0    0  0.11857840308E+02  0.24552439355E+02  0.16531641362E+02  0.59301861614E+02  0.49999849696E+02 0.  0.
         12    1    1    2    0    0 -0.11857840308E+02 -0.24552439355E+02 -0.16531641362E+02  0.31886138386E+02  0.00000000000E+00 0. -1.
         11    1    3    3    0    0  0.15296399505E+02  0.21581563677E+02 -0.67146313231E+01  0.27291573840E+02  0.51100000000E-03 0. -1.
        -11    1    3    3    0    0  0.43026240207E+01 -0.73755350786E+01  0.12835992057E+02  0.15416672258E+02  0.51100000000E-03 0.  1.
        -12    1    3    3    0    0 -0.77411832172E+01  0.10346410756E+02  0.10410280627E+02  0.16593615516E+02  0.00000000000E+00 0.  1.
</event>
<event>
 7    1  0.7674040E-012  0.5930196E+02  0.7816164E-02  0.1266605E+00
        -11   -1    0    0    0    0  0.00000000000E+00  0.00000000000E+00  0.45593999997E+02  0.45594000000E+02  0.51100000000E-03 0.  1.
         11   -1    0    0    0    0 -0.00000000000E+00 -0.00000000000E+00 -0.45593999997E+02  0.45594000000E+02  0.51100000000E-03 0. -1.
    9900012    2    1    2    0    0 -0.30146238037E+02  0.10387905099E+02 -0.12328828140E+00  0.59301961674E+02  0.50000032183E+02 0.  0.
         12    1    1    2    0    0  0.30146238037E+02 -0.10387905099E+02  0.12328828140E+00  0.31886038326E+02  0.00000000000E+00 0. -1.
         11    1    3    3    0    0  0.83985294499E+01 -0.21365854853E+01 -0.87445593029E+01  0.12311279873E+02  0.51100000000E-03 0. -1.
        -11    1    3    3    0    0 -0.17843200970E+02  0.61490658713E+01  0.15329923426E+02  0.24314550879E+02  0.51100000000E-03 0.  1.
         12    1    3    3    0    0 -0.20701566516E+02  0.63754247132E+01 -0.67086524043E+01  0.22676130922E+02  0.00000000000E+00 0. -1.
</event>
<event>
 7    1  0.7674040E-012  0.5930190E+02  0.7816164E-02  0.1266605E+00
        -11   -1    0    0    0    0  0.00000000000E+00  0.00000000000E+00  0.45593999997E+02  0.45594000000E+02  0.51100000000E-03 0.  1.
         11   -1    0    0    0    0 -0.00000000000E+00 -0.00000000000E+00 -0.45593999997E+02  0.45594000000E+02  0.51100000000E-03 0. -1.
    9900012    2    1    2    0    0 -0.56966091378E+01  0.10249448070E+02  0.29651658716E+02  0.59301899485E+02  0.49999918765E+02 0.  0.
         12    1    1    2    0    0  0.56966091378E+01 -0.10249448070E+02 -0.29651658716E+02  0.31886100515E+02  0.00000000000E+00 0. -1.
         11    1    3    3    0    0 -0.90275034408E+01 -0.33686159764E+01 -0.31273486843E+01  0.10130335731E+02  0.51100000000E-03 0. -1.
        -11    1    3    3    0    0 -0.65465210161E+01 -0.17588953727E+01  0.29913849009E+02  0.30672284120E+02  0.51100000000E-03 0.  1.
        -12    1    3    3    0    0  0.98774153191E+01  0.15376959419E+02  0.28651583913E+01  0.18499279634E+02  0.00000000000E+00 0.  1.
</event>
<event>
 7    1  0.7674040E-012  0.5930194E+02  0.7816164E-02  0.1266605E+00
        -11   -1    0    0    0    0  0.00000000000E+00  0.00000000000E+00  0.45593999997E+02  0.45594000000E+02  0.51100000000E-03 0.  1.
         11   -1    0    0    0    0 -0.00000000000E+00 -0.00000000000E+00 -0.45593999997E+02  0.45594000000E+02  0.51100000000E-03 0. -1.
    9900012    2    1    2    0    0  0.17085847802E+02 -0.15999755866E+02  0.21651848514E+02  0.59301938359E+02  0.49999989661E+02 0.  0.
         12    1    1    2    0    0 -0.17085847802E+02  0.15999755866E+02 -0.21651848514E+02  0.31886061641E+02  0.00000000000E+00 0. -1.
         11    1    3    3    0    0  0.95778489329E+01 -0.79345527310E+01 -0.44461829620E+01  0.13208363275E+02  0.51100000000E-03 0. -1.
        -11    1    3    3    0    0  0.65460165757E+01 -0.95359087583E+01  0.35081887872E+02  0.36939447015E+02  0.51100000000E-03 0.  1.
        -12    1    3    3    0    0  0.96198229357E+00  0.14707056229E+01 -0.89838563955E+01  0.91541280686E+01  0.00000000000E+00 0.  1.
</event>
<event>
 7    1  0.7674040E-012  0.5930194E+02  0.7816164E-02  0.1266605E+00
        -11   -1    0    0    0    0  0.00000000000E+00  0.00000000000E+00  0.45593999997E+02  0.45594000000E+02  0.51100000000E-03 0. -1.
         11   -1    0    0    0    0 -0.00000000000E+00 -0.00000000000E+00 -0.45593999997E+02  0.45594000000E+02  0.51100000000E-03 0.  1.
    9900012    2    1    2    0    0 -0.23332339811E+02 -0.23179707243E+01 -0.21609025759E+02  0.59301936217E+02  0.49999985755E+02 0.  0.
         12    1    1    2    0    0  0.23332339811E+02  0.23179707243E+01  0.21609025759E+02  0.31886063783E+02  0.00000000000E+00 0. -1.
         11    1    3    3    0    0 -0.26408012762E+02 -0.47181416187E+01  0.46397698330E+01  0.27224464416E+02  0.51100000000E-03 0. -1.
        -11    1    3    3    0    0  0.24921462112E+01 -0.69433055191E+01 -0.18528494146E+02  0.19943053423E+02  0.51100000000E-03 0.  1.
         12    1    3    3    0    0  0.58352674021E+00  0.93434764134E+01 -0.77203014458E+01  0.12134418377E+02  0.00000000000E+00 0. -1.
</event>
<event>
 7    1  0.7674040E-012  0.5930194E+02  0.7816164E-02  0.1266605E+00
        -11   -1    0    0    0    0  0.00000000000E+00  0.00000000000E+00  0.45593999997E+02  0.45594000000E+02  0.51100000000E-03 0.  1.
         11   -1    0    0    0    0 -0.00000000000E+00 -0.00000000000E+00 -0.45593999997E+02  0.45594000000E+02  0.51100000000E-03 0. -1.
    9900012    2    1    2    0    0  0.40115228286E+01  0.26904190014E+01  0.31518090918E+02  0.59301941527E+02  0.49999995440E+02 0.  0.
         12    1    1    2    0    0 -0.40115228286E+01 -0.26904190014E+01 -0.31518090918E+02  0.31886058473E+02  0.00000000000E+00 0. -1.
         11    1    3    3    0    0  0.85042970559E+01 -0.66097492732E+01  0.32828839075E+01  0.11260070199E+02  0.51100000000E-03 0. -1.
        -11    1    3    3    0    0 -0.67543880967E+01  0.22806448433E+02  0.11505991134E+02  0.26422408689E+02  0.51100000000E-03 0.  1.
        -12    1    3    3    0    0  0.22616138695E+01 -0.13506280158E+02  0.16729215876E+02  0.21619462640E+02  0.00000000000E+00 0.  1.
</event>
<event>
 7    1  0.7674040E-012  0.5930194E+02  0.7816164E-02  0.1266605E+00
        -11   -1    0    0    0    0  0.00000000000E+00  0.00000000000E+00  0.45593999997E+02  0.45594000000E+02  0.51100000000E-03 0. -1.
         11   -1    0    0    0    0 -0.00000000000E+00 -0.00000000000E+00 -0.45593999997E+02  0.45594000000E+02  0.51100000000E-03 0.  1.
    9900012    2    1    2    0    0 -0.94577574915E+01  0.27150546718E+02 -0.13788385623E+02  0.59301938124E+02  0.49999989233E+02 0.  0.
         12    1    1    2    0    0  0.94577574915E+01 -0.27150546718E+02  0.13788385623E+02  0.31886061876E+02  0.00000000000E+00 0. -1.
         11    1    3    3    0    0 -0.20198874614E+02  0.24409126607E+02 -0.71032559540E+01  0.32469312324E+02  0.51100000000E-03 0. -1.
        -11    1    3    3    0    0  0.13781325037E+02  0.18736957733E+01  0.49598904539E+01  0.14766047853E+02  0.51100000000E-03 0.  1.
        -12    1    3    3    0    0 -0.30402079144E+01  0.86772433787E+00 -0.11645020123E+02  0.12066577947E+02  0.00000000000E+00 0.  1.
</event>
<event>
 7    1  0.7674040E-012  0.5930195E+02  0.7816164E-02  0.1266605E+00
        -11   -1    0    0    0    0  0.00000000000E+00  0.00000000000E+00  0.45593999997E+02  0.45594000000E+02  0.51100000000E-03 0. -1.
         11   -1    0    0    0    0 -0.00000000000E+00 -0.00000000000E+00 -0.45593999997E+02  0.45594000000E+02  0.51100000000E-03 0.  1.
    9900012    2    1    2    0    0 -0.25502101417E+02  0.17425649815E+02 -0.79189326758E+01  0.59301953791E+02  0.50000017806E+02 0.  0.
         12    1    1    2    0    0  0.25502101417E+02 -0.17425649815E+02  0.79189326758E+01  0.31886046209E+02  0.00000000000E+00 0. -1.
         11    1    3    3    0    0 -0.23128314596E+02  0.56842794360E+01  0.15077165020E+02  0.28187778807E+02  0.51100000000E-03 0. -1.
        -11    1    3    3    0    0 -0.87187252199E+01  0.62015608820E+01 -0.63068323155E+01  0.12419809216E+02  0.51100000000E-03 0.  1.
         12    1    3    3    0    0  0.63449383997E+01  0.55398094968E+01 -0.16689265380E+02  0.18694365768E+02  0.00000000000E+00 0. -1.
</event>
<event>
 7    1  0.7674040E-012  0.5930193E+02  0.7816164E-02  0.1266605E+00
        -11   -1    0    0    0    0  0.00000000000E+00  0.00000000000E+00  0.45593999997E+02  0.45594000000E+02  0.51100000000E-03 0. -1.
         11   -1    0    0    0    0 -0.00000000000E+00 -0.00000000000E+00 -0.45593999997E+02  0.45594000000E+02  0.51100000000E-03 0.  1.
    9900012    2    1    2    0    0  0.26238698247E+00  0.21339068181E+02 -0.23691709317E+02  0.59301925169E+02  0.49999965606E+02 0.  0.
         12    1    1    2    0    0 -0.26238698247E+00 -0.21339068181E+02  0.23691709317E+02  0.31886074831E+02  0.00000000000E+00 0. -1.
         11    1    3    3    0    0 -0.15480309704E+02  0.14906094615E+02  0.50815122232E+01  0.22082875989E+02  0.51100000000E-03 0. -1.
        -11    1    3    3    0    0  0.89334759903E+01  0.11876538365E+02 -0.17228541993E+02  0.22752622184E+02  0.51100000000E-03 0.  1.
         12    1    3    3    0    0  0.68092206962E+01 -0.54435647979E+01 -0.11544679547E+02  0.14466426996E+02  0.00000000000E+00 0. -1.
</event>
<event>
 7    1  0.7674040E-012  0.5930194E+02  0.7816164E-02  0.1266605E+00
        -11   -1    0    0    0    0  0.00000000000E+00  0.00000000000E+00  0.45593999997E+02  0.45594000000E+02  0.51100000000E-03 0.  1.
         11   -1    0    0    0    0 -0.00000000000E+00 -0.00000000000E+00 -0.45593999997E+02  0.45594000000E+02  0.51100000000E-03 0. -1.
    9900012    2    1    2    0    0 -0.18448831230E+02 -0.25895285957E+02  0.24074217430E+01  0.59301938970E+02  0.49999990776E+02 0.  0.
         12    1    1    2    0    0  0.18448831230E+02  0.25895285957E+02 -0.24074217430E+01  0.31886061030E+02  0.00000000000E+00 0. -1.
         11    1    3    3    0    0 -0.16169343801E+02 -0.18450910851E+02 -0.15279055311E+02  0.28902133514E+02  0.51100000000E-03 0. -1.
        -11    1    3    3    0    0  0.98222311917E+01 -0.48161142457E+00  0.11492717448E+02  0.15125829886E+02  0.51100000000E-03 0.  1.
         12    1    3    3    0    0 -0.12101718621E+02 -0.69627636816E+01  0.61937596065E+01  0.15273975571E+02  0.00000000000E+00 0. -1.
</event>
<event>
 7    1  0.7674040E-012  0.5930198E+02  0.7816164E-02  0.1266605E+00
        -11   -1    0    0    0    0  0.00000000000E+00  0.00000000000E+00  0.45593999997E+02  0.45594000000E+02  0.51100000000E-03 0.  1.
         11   -1    0    0    0    0 -0.00000000000E+00 -0.00000000000E+00 -0.45593999997E+02  0.45594000000E+02  0.51100000000E-03 0. -1.
    9900012    2    1    2    0    0 -0.14141793181E+02  0.11394337922E+02  0.26208717690E+02  0.59301982155E+02  0.50000069535E+02 0.  0.
         12    1    1    2    0    0  0.14141793181E+02 -0.11394337922E+02 -0.26208717690E+02  0.31886017845E+02  0.00000000000E+00 0. -1.
         11    1    3    3    0    0 -0.13336295870E+02  0.22934255986E+02  0.15604838456E+02  0.30779016694E+02  0.51100000000E-03 0. -1.
        -11    1    3    3    0    0 -0.10902849907E+02 -0.90885580973E+01  0.11250677913E+02  0.18112199704E+02  0.51100000000E-03 0.  1.
         12    1    3    3    0    0  0.10097352595E+02 -0.24513599661E+01 -0.64679867909E+00  0.10410765757E+02  0.00000000000E+00 0. -1.
</event>
<event>
 7    1  0.7674040E-012  0.5930200E+02  0.7816164E-02  0.1266605E+00
        -11   -1    0    0    0    0  0.00000000000E+00  0.00000000000E+00  0.45593999997E+02  0.45594000000E+02  0.51100000000E-03 0. -1.
         11   -1    0    0    0    0 -0.00000000000E+00 -0.00000000000E+00 -0.45593999997E+02  0.45594000000E+02  0.51100000000E-03 0.  1.
    9900012    2    1    2    0    0 -0.19425734729E+02  0.32361993262E+01 -0.25077576673E+02  0.59301999818E+02  0.50000101748E+02 0.  0.
         12    1    1    2    0    0  0.19425734729E+02 -0.32361993262E+01  0.25077576673E+02  0.31886000182E+02  0.00000000000E+00 0. -1.
         11    1    3    3    0    0 -0.26091347250E+01  0.59627475789E+01 -0.31633172870E+02  0.32295813487E+02  0.51100000000E-03 0. -1.
        -11    1    3    3    0    0 -0.61021863996E+01 -0.10571609561E+02  0.21824601642E-01  0.12206395214E+02  0.51100000000E-03 0.  1.
         12    1    3    3    0    0 -0.10714413605E+02  0.78450613078E+01  0.65337715959E+01  0.14799791116E+02  0.00000000000E+00 0. -1.
</event>
<event>
 7    1  0.7674040E-012  0.5930195E+02  0.7816164E-02  0.1266605E+00
        -11   -1    0    0    0    0  0.00000000000E+00  0.00000000000E+00  0.45593999997E+02  0.45594000000E+02  0.51100000000E-03 0.  1.
         11   -1    0    0    0    0 -0.00000000000E+00 -0.00000000000E+00 -0.45593999997E+02  0.45594000000E+02  0.51100000000E-03 0. -1.
    9900012    2    1    2    0    0  0.17981690833E+02 -0.12206017147E+01  0.26303779934E+02  0.59301954266E+02  0.50000018672E+02 0.  0.
         12    1    1    2    0    0 -0.17981690833E+02  0.12206017147E+01 -0.26303779934E+02  0.31886045734E+02  0.00000000000E+00 0. -1.
         11    1    3    3    0    0  0.19810559550E+00  0.12567848603E+02 -0.74561206688E+01  0.14614506492E+02  0.51100000000E-03 0. -1.
        -11    1    3    3    0    0  0.71157815496E+01 -0.16679213764E+02  0.22670544559E+02  0.29030744216E+02  0.51100000000E-03 0.  1.
         12    1    3    3    0    0  0.10667803688E+02  0.28907634471E+01  0.11089356043E+02  0.15656703557E+02  0.00000000000E+00 0. -1.
</event>
<event>
 7    1  0.7674040E-012  0.5930193E+02  0.7816164E-02  0.1266605E+00
        -11   -1    0    0    0    0  0.00000000000E+00  0.00000000000E+00  0.45593999997E+02  0.45594000000E+02  0.51100000000E-03 0.  1.
         11   -1    0    0    0    0 -0.00000000000E+00 -0.00000000000E+00 -0.45593999997E+02  0.45594000000E+02  0.51100000000E-03 0. -1.
    9900012    2    1    2    0    0  0.19340170759E+02 -0.10341953649E+02  0.23145698146E+02  0.59301928543E+02  0.49999971760E+02 0.  0.
         12    1    1    2    0    0 -0.19340170759E+02  0.10341953649E+02 -0.23145698146E+02  0.31886071457E+02  0.00000000000E+00 0. -1.
         11    1    3    3    0    0  0.13444325751E+02 -0.65468026719E+01 -0.35895583939E+01  0.15378408560E+02  0.51100000000E-03 0. -1.
        -11    1    3    3    0    0  0.40435010015E+01 -0.85192703189E+01  0.33875660074E+02  0.35163734341E+02  0.51100000000E-03 0.  1.
        -12    1    3    3    0    0  0.18523440072E+01  0.47241193414E+01 -0.71404035336E+01  0.87597856421E+01  0.00000000000E+00 0.  1.
</event>
<event>
 7    1  0.7674040E-012  0.5930194E+02  0.7816164E-02  0.1266605E+00
        -11   -1    0    0    0    0  0.00000000000E+00  0.00000000000E+00  0.45593999997E+02  0.45594000000E+02  0.51100000000E-03 0.  1.
         11   -1    0    0    0    0 -0.00000000000E+00 -0.00000000000E+00 -0.45593999997E+02  0.45594000000E+02  0.51100000000E-03 0. -1.
    9900012    2    1    2    0    0 -0.14928090833E+02  0.37924941325E+01  0.27919352298E+02  0.59301935012E+02  0.49999983558E+02 0.  0.
         12    1    1    2    0    0  0.14928090833E+02 -0.37924941325E+01 -0.27919352298E+02  0.31886064988E+02  0.00000000000E+00 0. -1.
         11    1    3    3    0    0 -0.19756782111E+02  0.10182043786E+02  0.10700453398E+02  0.24667877051E+02  0.51100000000E-03 0. -1.
        -11    1    3    3    0    0  0.86562231231E+01 -0.10480164461E+00 -0.58313656032E+01  0.10437720402E+02  0.51100000000E-03 0.  1.
        -12    1    3    3    0    0 -0.38275318446E+01 -0.62847480088E+01  0.23050264503E+02  0.24196337558E+02  0.00000000000E+00 0.  1.
</event>
<event>
 7    1  0.7674040E-012  0.5930192E+02  0.7816164E-02  0.1266605E+00
        -11   -1    0    0    0    0  0.00000000000E+00  0.00000000000E+00  0.45593999997E+02  0.45594000000E+02  0.51100000000E-03 0.  1.
         11   -1    0    0    0    0 -0.00000000000E+00 -0.00000000000E+00 -0.45593999997E+02  0.45594000000E+02  0.51100000000E-03 0. -1.
    9900012    2    1    2    0    0  0.19136623492E+02  0.10645149844E+02  0.23177411647E+02  0.59301921776E+02  0.49999959417E+02 0.  0.
         12    1    1    2    0    0 -0.19136623492E+02 -0.10645149844E+02 -0.23177411647E+02  0.31886078224E+02  0.00000000000E+00 0. -1.
         11    1    3    3    0    0  0.17081647579E+02  0.13614926265E+01  0.23916462223E+02  0.29421650390E+02  0.51100000000E-03 0. -1.
        -11    1    3    3    0    0 -0.77177566177E+01 -0.71897060434E+01  0.12573317002E+01  0.10622453740E+02  0.51100000000E-03 0.  1.
         12    1    3    3    0    0  0.97727325302E+01  0.16473363261E+02 -0.19963822755E+01  0.19257817645E+02  0.00000000000E+00 0. -1.
</event>
<event>
 7    1  0.7674040E-012  0.5930194E+02  0.7816164E-02  0.1266605E+00
        -11   -1    0    0    0    0  0.00000000000E+00  0.00000000000E+00  0.45593999997E+02  0.45594000000E+02  0.51100000000E-03 0.  1.
         11   -1    0    0    0    0 -0.00000000000E+00 -0.00000000000E+00 -0.45593999997E+02  0.45594000000E+02  0.51100000000E-03 0. -1.
    9900012    2    1    2    0    0  0.99824455839E+01 -0.29633642794E+02  0.62385129327E+01  0.59301936450E+02  0.49999986180E+02 0.  0.
         12    1    1    2    0    0 -0.99824455839E+01  0.29633642794E+02 -0.62385129327E+01  0.31886063550E+02  0.00000000000E+00 0. -1.
         11    1    3    3    0    0 -0.50641784488E+01 -0.22128053316E+02 -0.13403329565E+02  0.26361826389E+02  0.51100000000E-03 0. -1.
        -11    1    3    3    0    0  0.49792897639E+01 -0.79042710072E+01  0.20797061456E+02  0.22798872608E+02  0.51100000000E-03 0.  1.
        -12    1    3    3    0    0  0.10067334269E+02  0.39868152845E+00 -0.11552189588E+01  0.10141237453E+02  0.00000000000E+00 0.  1.
</event>
<event>
 7    1  0.7674040E-012  0.5930194E+02  0.7816164E-02  0.1266605E+00
        -11   -1    0    0    0    0  0.00000000000E+00  0.00000000000E+00  0.45593999997E+02  0.45594000000E+02  0.51100000000E-03 0.  1.
         11   -1    0    0    0    0 -0.00000000000E+00 -0.00000000000E+00 -0.45593999997E+02  0.45594000000E+02  0.51100000000E-03 0. -1.
    9900012    2    1    2    0    0  0.95947866123E+01  0.27255205192E+02  0.13483864050E+02  0.59301941449E+02  0.49999995298E+02 0.  0.
         12    1    1    2    0    0 -0.95947866123E+01 -0.27255205192E+02 -0.13483864050E+02  0.31886058551E+02  0.00000000000E+00 0. -1.
         11    1    3    3    0    0 -0.17325823136E+02  0.98257400745E+01 -0.11955968216E+01  0.19953916091E+02  0.51100000000E-03 0. -1.
        -11    1    3    3    0    0  0.97692592257E+01  0.16649934410E+02  0.86140790262E+01  0.21139089370E+02  0.51100000000E-03 0.  1.
         12    1    3    3    0    0  0.17151350523E+02  0.77953070718E+00  0.60653818453E+01  0.18208935988E+02  0.00000000000E+00 0. -1.
</event>
<event>
 7    1  0.7674040E-012  0.5930193E+02  0.7816164E-02  0.1266605E+00
        -11   -1    0    0    0    0  0.00000000000E+00  0.00000000000E+00  0.45593999997E+02  0.45594000000E+02  0.51100000000E-03 0. -1.
         11   -1    0    0    0    0 -0.00000000000E+00 -0.00000000000E+00 -0.45593999997E+02  0.45594000000E+02  0.51100000000E-03 0.  1.
    9900012    2    1    2    0    0  0.15789119595E+01 -0.32205452201E+01 -0.31683698939E+02  0.59301926975E+02  0.49999968900E+02 0.  0.
         12    1    1    2    0    0 -0.15789119595E+01  0.32205452201E+01  0.31683698939E+02  0.31886073025E+02  0.00000000000E+00 0. -1.
         11    1    3    3    0    0  0.72943046165E+00  0.81152258775E+01  0.46393243887E+00  0.81611392225E+01  0.51100000000E-03 0. -1.
        -11    1    3    3    0    0 -0.76038415185E+01 -0.10755189756E+02 -0.38409249889E+02  0.40604962626E+02  0.51100000000E-03 0.  1.
        -12    1    3    3    0    0  0.84533230163E+01 -0.58058134147E+00  0.62616185116E+01  0.10535825127E+02  0.00000000000E+00 0.  1.
</event>
<event>
 7    1  0.7674040E-012  0.5930196E+02  0.7816164E-02  0.1266605E+00
        -11   -1    0    0    0    0  0.00000000000E+00  0.00000000000E+00  0.45593999997E+02  0.45594000000E+02  0.51100000000E-03 0.  1.
         11   -1    0    0    0    0 -0.00000000000E+00 -0.00000000000E+00 -0.45593999997E+02  0.45594000000E+02  0.51100000000E-03 0. -1.
    9900012    2    1    2    0    0  0.10414509799E+02  0.27413168168E+02  0.12521022611E+02  0.59301955865E+02  0.50000021588E+02 0.  0.
         12    1    1    2    0    0 -0.10414509799E+02 -0.27413168168E+02 -0.12521022611E+02  0.31886044135E+02  0.00000000000E+00 0. -1.
         11    1    3    3    0    0  0.14160377927E+02  0.15654402164E+02 -0.13045639733E+02  0.24814619208E+02  0.51100000000E-03 0. -1.
        -11    1    3    3    0    0 -0.19566595338E+01 -0.49986577355E+01  0.10884009940E+02  0.12135764019E+02  0.51100000000E-03 0.  1.
         12    1    3    3    0    0 -0.17892085943E+01  0.16757423739E+02  0.14682652404E+02  0.22351572638E+02  0.00000000000E+00 0. -1.
</event>
<event>
 7    1  0.7674040E-012  0.5930194E+02  0.7816164E-02  0.1266605E+00
        -11   -1    0    0    0    0  0.00000000000E+00  0.00000000000E+00  0.45593999997E+02  0.45594000000E+02  0.51100000000E-03 0.  1.
         11   -1    0    0    0    0 -0.00000000000E+00 -0.00000000000E+00 -0.45593999997E+02  0.45594000000E+02  0.51100000000E-03 0. -1.
    9900012    2    1    2    0    0  0.23151401811E+02  0.21181757168E+01  0.21823075810E+02  0.59301941730E+02  0.49999995810E+02 0.  0.
         12    1    1    2    0    0 -0.23151401811E+02 -0.21181757168E+01 -0.21823075810E+02  0.31886058270E+02  0.00000000000E+00 0. -1.
         11    1    3    3    0    0 -0.11814561230E+02 -0.54023639383E+01  0.26646584376E+01  0.13261591082E+02  0.51100000000E-03 0. -1.
        -11    1    3    3    0    0  0.19422010709E+02  0.11817999308E+02  0.25288796434E+01  0.22875201423E+02  0.51100000000E-03 0.  1.
        -12    1    3    3    0    0  0.15543952332E+02 -0.42974596533E+01  0.16629537729E+02  0.23165149226E+02  0.00000000000E+00 0.  1.
</event>
<event>
 7    1  0.7674040E-012  0.5930193E+02  0.7816164E-02  0.1266605E+00
        -11   -1    0    0    0    0  0.00000000000E+00  0.00000000000E+00  0.45593999997E+02  0.45594000000E+02  0.51100000000E-03 0.  1.
         11   -1    0    0    0    0 -0.00000000000E+00 -0.00000000000E+00 -0.45593999997E+02  0.45594000000E+02  0.51100000000E-03 0. -1.
    9900012    2    1    2    0    0  0.21973911746E+02  0.33651728073E+01  0.22859228576E+02  0.59301929115E+02  0.49999972802E+02 0.  0.
         12    1    1    2    0    0 -0.21973911746E+02 -0.33651728073E+01 -0.22859228576E+02  0.31886070885E+02  0.00000000000E+00 0. -1.
         11    1    3    3    0    0  0.12694206726E+02 -0.24617215917E+01  0.10895644210E+02  0.16909110580E+02  0.51100000000E-03 0. -1.
        -11    1    3    3    0    0 -0.11869905746E+02  0.13022764125E+02  0.92131685747E+01  0.19883901109E+02  0.51100000000E-03 0.  1.
        -12    1    3    3    0    0  0.21149610765E+02 -0.71958697262E+01  0.27504157910E+01  0.22508917425E+02  0.00000000000E+00 0.  1.
</event>
<event>
 7    1  0.7674040E-012  0.5930193E+02  0.7816164E-02  0.1266605E+00
        -11   -1    0    0    0    0  0.00000000000E+00  0.00000000000E+00  0.45593999997E+02  0.45594000000E+02  0.51100000000E-03 0.  1.
         11   -1    0    0    0    0 -0.00000000000E+00 -0.00000000000E+00 -0.45593999997E+02  0.45594000000E+02  0.51100000000E-03 0. -1.
    9900012    2    1    2    0    0 -0.12764634555E+02  0.28986539386E+02  0.36831944309E+01  0.59301932790E+02  0.49999979505E+02 0.  0.
         12    1    1    2    0    0  0.12764634555E+02 -0.28986539386E+02 -0.36831944309E+01  0.31886067210E+02  0.00000000000E+00 0. -1.
         11    1    3    3    0    0 -0.77041716469E+01 -0.51056626520E+01  0.39834730312E+01  0.10064298760E+02  0.51100000000E-03 0. -1.
        -11    1    3    3    0    0  0.11922796964E+02  0.18706738661E+02  0.97291789116E+01  0.24222965989E+02  0.51100000000E-03 0.  1.
        -12    1    3    3    0    0 -0.16983259872E+02  0.15385463378E+02 -0.10029457512E+02  0.25014668041E+02  0.00000000000E+00 0.  1.
</event>
<event>
 7    1  0.7674040E-012  0.5930198E+02  0.7816164E-02  0.1266605E+00
        -11   -1    0    0    0    0  0.00000000000E+00  0.00000000000E+00  0.45593999997E+02  0.45594000000E+02  0.51100000000E-03 0.  1.
         11   -1    0    0    0    0 -0.00000000000E+00 -0.00000000000E+00 -0.45593999997E+02  0.45594000000E+02  0.51100000000E-03 0. -1.
    9900012    2    1    2    0    0  0.29885944681E+01  0.31501951854E+02  0.39260509121E+01  0.59301975737E+02  0.50000057831E+02 0.  0.
         12    1    1    2    0    0 -0.29885944681E+01 -0.31501951854E+02 -0.39260509121E+01  0.31886024263E+02  0.00000000000E+00 0. -1.
         11    1    3    3    0    0  0.22684168580E+02  0.58669923569E+01  0.44296687375E+01  0.23845650942E+02  0.51100000000E-03 0. -1.
        -11    1    3    3    0    0 -0.11559185515E+02  0.22989257754E+02  0.35737537544E+01  0.25978692384E+02  0.51100000000E-03 0.  1.
         12    1    3    3    0    0 -0.81363885972E+01  0.26457017435E+01 -0.40773715798E+01  0.94776324111E+01  0.00000000000E+00 0. -1.
</event>
<event>
 7    1  0.7674040E-012  0.5930193E+02  0.7816164E-02  0.1266605E+00
        -11   -1    0    0    0    0  0.00000000000E+00  0.00000000000E+00  0.45593999997E+02  0.45594000000E+02  0.51100000000E-03 0.  1.
         11   -1    0    0    0    0 -0.00000000000E+00 -0.00000000000E+00 -0.45593999997E+02  0.45594000000E+02  0.51100000000E-03 0. -1.
    9900012    2    1    2    0    0  0.72903573636E+01  0.14315128201E+02  0.27543589006E+02  0.59301929354E+02  0.49999973239E+02 0.  0.
         12    1    1    2    0    0 -0.72903573636E+01 -0.14315128201E+02 -0.27543589006E+02  0.31886070646E+02  0.00000000000E+00 0. -1.
         11    1    3    3    0    0  0.85981846125E+01 -0.89558715427E+01 -0.60793859994E+01  0.13823724104E+02  0.51100000000E-03 0. -1.
        -11    1    3    3    0    0 -0.75124490665E+01  0.18729953961E+02  0.14448256378E+02  0.24819350897E+02  0.51100000000E-03 0.  1.
         12    1    3    3    0    0  0.62046218177E+01  0.45410457833E+01  0.19174718628E+02  0.20658854353E+02  0.00000000000E+00 0. -1.
</event>
<event>
 7    1  0.7674040E-012  0.5930188E+02  0.7816164E-02  0.1266605E+00
        -11   -1    0    0    0    0  0.00000000000E+00  0.00000000000E+00  0.45593999997E+02  0.45594000000E+02  0.51100000000E-03 0.  1.
         11   -1    0    0    0    0 -0.00000000000E+00 -0.00000000000E+00 -0.45593999997E+02  0.45594000000E+02  0.51100000000E-03 0. -1.
    9900012    2    1    2    0    0 -0.27193406184E+02  0.13331318995E+02  0.99759348818E+01  0.59301879464E+02  0.49999882252E+02 0.  0.
         12    1    1    2    0    0  0.27193406184E+02 -0.13331318995E+02 -0.99759348818E+01  0.31886120536E+02  0.00000000000E+00 0. -1.
         11    1    3    3    0    0 -0.14386990150E+02  0.14556607934E+02 -0.16524012947E+02  0.26304435448E+02  0.51100000000E-03 0. -1.
        -11    1    3    3    0    0 -0.93370262838E+01 -0.42464090872E+01  0.26479739413E+02  0.28396983108E+02  0.51100000000E-03 0.  1.
         12    1    3    3    0    0 -0.34693897510E+01  0.30211201478E+01  0.20208415442E-01  0.46004609086E+01  0.00000000000E+00 0. -1.
</event>
<event>
 7    1  0.7674040E-012  0.5930188E+02  0.7816164E-02  0.1266605E+00
        -11   -1    0    0    0    0  0.00000000000E+00  0.00000000000E+00  0.45593999997E+02  0.45594000000E+02  0.51100000000E-03 0. -1.
         11   -1    0    0    0    0 -0.00000000000E+00 -0.00000000000E+00 -0.45593999997E+02  0.45594000000E+02  0.51100000000E-03 0.  1.
    9900012    2    1    2    0    0  0.25347826552E+02  0.18803853276E+02 -0.45417107611E+01  0.59301884753E+02  0.49999891896E+02 0.  0.
         12    1    1    2    0    0 -0.25347826552E+02 -0.18803853276E+02  0.45417107611E+01  0.31886115247E+02  0.00000000000E+00 0. -1.
         11    1    3    3    0    0  0.97959092227E+01 -0.53779814908E+01  0.15802091239E+02  0.19354291778E+02  0.51100000000E-03 0. -1.
        -11    1    3    3    0    0  0.11803180139E+02  0.16486142222E+02 -0.28544837530E+01  0.20475742343E+02  0.51100000000E-03 0.  1.
        -12    1    3    3    0    0  0.37487371903E+01  0.76956925448E+01 -0.17489318247E+02  0.19471850632E+02  0.00000000000E+00 0.  1.
</event>
<event>
 7    1  0.7674040E-012  0.5930210E+02  0.7816164E-02  0.1266604E+00
        -11   -1    0    0    0    0  0.00000000000E+00  0.00000000000E+00  0.45593999997E+02  0.45594000000E+02  0.51100000000E-03 0.  1.
         11   -1    0    0    0    0 -0.00000000000E+00 -0.00000000000E+00 -0.45593999997E+02  0.45594000000E+02  0.51100000000E-03 0. -1.
    9900012    2    1    2    0    0  0.46903341713E+01 -0.14488781781E+02  0.28014041124E+02  0.59302101358E+02  0.50000286932E+02 0.  0.
         12    1    1    2    0    0 -0.46903341713E+01  0.14488781781E+02 -0.28014041124E+02  0.31885898642E+02  0.00000000000E+00 0. -1.
         11    1    3    3    0    0 -0.42156517613E+01 -0.24412557902E+01 -0.86709710376E+00  0.49480609591E+01  0.51100000000E-03 0. -1.
        -11    1    3    3    0    0  0.16604421048E+02  0.71833633287E+01  0.28352302717E+02  0.33632730734E+02  0.51100000000E-03 0.  1.
        -12    1    3    3    0    0 -0.76984351151E+01 -0.19230889319E+02  0.52883551081E+00  0.20721309665E+02  0.00000000000E+00 0.  1.
</event>
<event>
 7    1  0.7674040E-012  0.5930198E+02  0.7816164E-02  0.1266605E+00
        -11   -1    0    0    0    0  0.00000000000E+00  0.00000000000E+00  0.45593999997E+02  0.45594000000E+02  0.51100000000E-03 0.  1.
         11   -1    0    0    0    0 -0.00000000000E+00 -0.00000000000E+00 -0.45593999997E+02  0.45594000000E+02  0.51100000000E-03 0. -1.
    9900012    2    1    2    0    0 -0.42220144697E+01  0.24550178121E+02  0.19904319013E+02  0.59301975360E+02  0.50000057143E+02 0.  0.
         12    1    1    2    0    0  0.42220144697E+01 -0.24550178121E+02 -0.19904319013E+02  0.31886024640E+02  0.00000000000E+00 0. -1.
         11    1    3    3    0    0  0.96908646996E+01  0.42301579598E+01 -0.22100329501E+01  0.10802376632E+02  0.51100000000E-03 0. -1.
        -11    1    3    3    0    0 -0.20669684037E+02  0.32201861418E+01  0.16428954138E+01  0.20983434956E+02  0.51100000000E-03 0.  1.
        -12    1    3    3    0    0  0.67568048675E+01  0.17099834019E+02  0.20471456549E+02  0.27516163772E+02  0.00000000000E+00 0.  1.
</event>
<event>
 7    1  0.7674040E-012  0.5930194E+02  0.7816164E-02  0.1266605E+00
        -11   -1    0    0    0    0  0.00000000000E+00  0.00000000000E+00  0.45593999997E+02  0.45594000000E+02  0.51100000000E-03 0.  1.
         11   -1    0    0    0    0 -0.00000000000E+00 -0.00000000000E+00 -0.45593999997E+02  0.45594000000E+02  0.51100000000E-03 0. -1.
    9900012    2    1    2    0    0 -0.83735398358E+01  0.87275745423E+01  0.29503119303E+02  0.59301940736E+02  0.49999993996E+02 0.  0.
         12    1    1    2    0    0  0.83735398358E+01 -0.87275745423E+01 -0.29503119303E+02  0.31886059264E+02  0.00000000000E+00 0. -1.
         11    1    3    3    0    0  0.21099227424E+01  0.49016971031E+01 -0.10770649476E+02  0.12020203778E+02  0.51100000000E-03 0. -1.
        -11    1    3    3    0    0  0.32080849398E+01  0.42816800204E+01  0.29144789366E+02  0.29631796102E+02  0.51100000000E-03 0.  1.
         12    1    3    3    0    0 -0.13691547518E+02 -0.45580258119E+00  0.11128979413E+02  0.17649940856E+02  0.00000000000E+00 0. -1.
</event>
<event>
 7    1  0.7674040E-012  0.5930195E+02  0.7816164E-02  0.1266605E+00
        -11   -1    0    0    0    0  0.00000000000E+00  0.00000000000E+00  0.45593999997E+02  0.45594000000E+02  0.51100000000E-03 0. -1.
         11   -1    0    0    0    0 -0.00000000000E+00 -0.00000000000E+00 -0.45593999997E+02  0.45594000000E+02  0.51100000000E-03 0.  1.
    9900012    2    1    2    0    0  0.12587852149E+02 -0.12565735374E+02 -0.26464477231E+02  0.59301948467E+02  0.50000008097E+02 0.  0.
         12    1    1    2    0    0 -0.12587852149E+02  0.12565735374E+02  0.26464477231E+02  0.31886051533E+02  0.00000000000E+00 0. -1.
         11    1    3    3    0    0 -0.45822363435E+01 -0.22637748310E+01  0.11573728537E+02  0.12651986362E+02  0.51100000000E-03 0. -1.
        -11    1    3    3    0    0  0.61460848574E+01  0.39995584183E+01 -0.46247821832E+01  0.86694542573E+01  0.51100000000E-03 0.  1.
         12    1    3    3    0    0  0.11024003635E+02 -0.14301518962E+02 -0.33413423585E+02  0.37980507848E+02  0.00000000000E+00 0. -1.
</event>
<event>
 7    1  0.7674040E-012  0.5930197E+02  0.7816164E-02  0.1266605E+00
        -11   -1    0    0    0    0  0.00000000000E+00  0.00000000000E+00  0.45593999997E+02  0.45594000000E+02  0.51100000000E-03 0.  1.
         11   -1    0    0    0    0 -0.00000000000E+00 -0.00000000000E+00 -0.45593999997E+02  0.45594000000E+02  0.51100000000E-03 0. -1.
    9900012    2    1    2    0    0 -0.36925631627E+01 -0.29939196273E+02  0.10330937023E+02  0.59301972403E+02  0.50000051749E+02 0.  0.
         12    1    1    2    0    0  0.36925631627E+01  0.29939196273E+02 -0.10330937023E+02  0.31886027597E+02  0.00000000000E+00 0. -1.
         11    1    3    3    0    0 -0.13025138287E+02 -0.33607599183E+01 -0.18394643380E+01  0.13576912901E+02  0.51100000000E-03 0. -1.
        -11    1    3    3    0    0  0.18410269522E+02 -0.50654082923E+01 -0.61437595772E+00  0.19104288606E+02  0.51100000000E-03 0.  1.
        -12    1    3    3    0    0 -0.90776943985E+01 -0.21513028062E+02  0.12784777319E+02  0.26620770896E+02  0.00000000000E+00 0.  1.
</event>
<event>
 7    1  0.7674040E-012  0.5930189E+02  0.7816164E-02  0.1266605E+00
        -11   -1    0    0    0    0  0.00000000000E+00  0.00000000000E+00  0.45593999997E+02  0.45594000000E+02  0.51100000000E-03 0.  1.
         11   -1    0    0    0    0 -0.00000000000E+00 -0.00000000000E+00 -0.45593999997E+02  0.45594000000E+02  0.51100000000E-03 0. -1.
    9900012    2    1    2    0    0 -0.67758281453E+01  0.30105207072E+02 -0.80304890082E+01  0.59301888704E+02  0.49999899102E+02 0.  0.
         12    1    1    2    0    0  0.67758281453E+01 -0.30105207072E+02  0.80304890082E+01  0.31886111296E+02  0.00000000000E+00 0. -1.
         11    1    3    3    0    0 -0.72261968852E+01  0.79308402190E+01 -0.20384217254E+02  0.23035460953E+02  0.51100000000E-03 0. -1.
        -11    1    3    3    0    0  0.13078183891E+01  0.27765172950E+02  0.12782059637E+02  0.30594056069E+02  0.51100000000E-03 0.  1.
        -12    1    3    3    0    0 -0.85744964926E+00 -0.55908060977E+01 -0.42833139191E+00  0.56723716825E+01  0.00000000000E+00 0.  1.
</event>
<event>
 7    1  0.7674040E-012  0.5930193E+02  0.7816164E-02  0.1266605E+00
        -11   -1    0    0    0    0  0.00000000000E+00  0.00000000000E+00  0.45593999997E+02  0.45594000000E+02  0.51100000000E-03 0. -1.
         11   -1    0    0    0    0 -0.00000000000E+00 -0.00000000000E+00 -0.45593999997E+02  0.45594000000E+02  0.51100000000E-03 0.  1.
    9900012    2    1    2    0    0  0.15034094476E+02 -0.92250828653E+01 -0.26563043073E+02  0.59301930817E+02  0.49999975908E+02 0.  0.
         12    1    1    2    0    0 -0.15034094476E+02  0.92250828653E+01  0.26563043073E+02  0.31886069183E+02  0.00000000000E+00 0. -1.
         11    1    3    3    0    0  0.14929964397E+02  0.11125941967E+02  0.60926057074E+01  0.19591076186E+02  0.51100000000E-03 0. -1.
        -11    1    3    3    0    0  0.31627607111E+01 -0.59754482809E+01 -0.16705312223E+02  0.18021556375E+02  0.51100000000E-03 0.  1.
         12    1    3    3    0    0 -0.30586306320E+01 -0.14375576551E+02 -0.15950336558E+02  0.21689298256E+02  0.00000000000E+00 0. -1.
</event>
<event>
 7    1  0.7674040E-012  0.5930194E+02  0.7816164E-02  0.1266605E+00
        -11   -1    0    0    0    0  0.00000000000E+00  0.00000000000E+00  0.45593999997E+02  0.45594000000E+02  0.51100000000E-03 0.  1.
         11   -1    0    0    0    0 -0.00000000000E+00 -0.00000000000E+00 -0.45593999997E+02  0.45594000000E+02  0.51100000000E-03 0. -1.
    9900012    2    1    2    0    0 -0.25030929760E+02  0.19280465116E+02  0.42938563982E+01  0.59301937488E+02  0.49999988073E+02 0.  0.
         12    1    1    2    0    0  0.25030929760E+02 -0.19280465116E+02 -0.42938563982E+01  0.31886062512E+02  0.00000000000E+00 0. -1.
         11    1    3    3    0    0 -0.11787412316E+02  0.22342145547E+01 -0.14843049171E+02  0.19085358596E+02  0.51100000000E-03 0. -1.
        -11    1    3    3    0    0 -0.70762384471E+01  0.21979179344E+02  0.21925239594E+02  0.31841381985E+02  0.51100000000E-03 0.  1.
        -12    1    3    3    0    0 -0.61672789969E+01 -0.49329287820E+01 -0.27883340252E+01  0.83751969070E+01  0.00000000000E+00 0.  1.
</event>
<event>
 7    1  0.7674040E-012  0.5930205E+02  0.7816164E-02  0.1266604E+00
        -11   -1    0    0    0    0  0.00000000000E+00  0.00000000000E+00  0.45593999997E+02  0.45594000000E+02  0.51100000000E-03 0.  1.
         11   -1    0    0    0    0 -0.00000000000E+00 -0.00000000000E+00 -0.45593999997E+02  0.45594000000E+02  0.51100000000E-03 0. -1.
    9900012    2    1    2    0    0 -0.14930488226E+02 -0.17262625359E+02 -0.22266483290E+02  0.59302047120E+02  0.50000188016E+02 0.  0.
         12    1    1    2    0    0  0.14930488226E+02  0.17262625359E+02  0.22266483290E+02  0.31885952880E+02  0.00000000000E+00 0. -1.
         11    1    3    3    0    0  0.57499697268E+01  0.25899611505E+01 -0.21088986421E+02  0.22011710500E+02  0.51100000000E-03 0. -1.
        -11    1    3    3    0    0 -0.20289796760E+02 -0.33880072722E+01 -0.27167811157E+01  0.20749345670E+02  0.51100000000E-03 0.  1.
         12    1    3    3    0    0 -0.39066119255E+00 -0.16464579237E+02  0.15392842464E+01  0.16540990950E+02  0.00000000000E+00 0. -1.
</event>
<event>
 7    1  0.7674040E-012  0.5930195E+02  0.7816164E-02  0.1266605E+00
        -11   -1    0    0    0    0  0.00000000000E+00  0.00000000000E+00  0.45593999997E+02  0.45594000000E+02  0.51100000000E-03 0. -1.
         11   -1    0    0    0    0 -0.00000000000E+00 -0.00000000000E+00 -0.45593999997E+02  0.45594000000E+02  0.51100000000E-03 0.  1.
    9900012    2    1    2    0    0 -0.24069517518E+02 -0.19830513855E+02 -0.66429956667E+01  0.59301947489E+02  0.50000006313E+02 0.  0.
         12    1    1    2    0    0  0.24069517518E+02  0.19830513855E+02  0.66429956667E+01  0.31886052511E+02  0.00000000000E+00 0. -1.
         11    1    3    3    0    0 -0.27594903981E+01 -0.58069459539E+01  0.98985134191E+01  0.11803218914E+02  0.51100000000E-03 0. -1.
        -11    1    3    3    0    0 -0.34345938947E+01 -0.17689136765E+01 -0.24204697948E+02  0.24511076962E+02  0.51100000000E-03 0.  1.
        -12    1    3    3    0    0 -0.17875433225E+02 -0.12254654224E+02  0.76631888622E+01  0.22987651613E+02  0.00000000000E+00 0.  1.
</event>
<event>
 7    1  0.7674040E-012  0.5930189E+02  0.7816164E-02  0.1266605E+00
        -11   -1    0    0    0    0  0.00000000000E+00  0.00000000000E+00  0.45593999997E+02  0.45594000000E+02  0.51100000000E-03 0. -1.
         11   -1    0    0    0    0 -0.00000000000E+00 -0.00000000000E+00 -0.45593999997E+02  0.45594000000E+02  0.51100000000E-03 0.  1.
    9900012    2    1    2    0    0 -0.18450518289E+02 -0.25046932369E+02  0.69967044611E+01  0.59301885160E+02  0.49999892640E+02 0.  0.
         12    1    1    2    0    0  0.18450518289E+02  0.25046932369E+02 -0.69967044611E+01  0.31886114840E+02  0.00000000000E+00 0. -1.
         11    1    3    3    0    0  0.13025514104E+02  0.10853598726E+01  0.97634624704E+01  0.16314632187E+02  0.51100000000E-03 0. -1.
        -11    1    3    3    0    0 -0.19431181015E+02 -0.85919746620E+01  0.14511382956E+01  0.21295507199E+02  0.51100000000E-03 0.  1.
         12    1    3    3    0    0 -0.12044851378E+02 -0.17540317580E+02 -0.42178963049E+01  0.21691745775E+02  0.00000000000E+00 0. -1.
</event>
<event>
 7    1  0.7674040E-012  0.5930196E+02  0.7816164E-02  0.1266605E+00
        -11   -1    0    0    0    0  0.00000000000E+00  0.00000000000E+00  0.45593999997E+02  0.45594000000E+02  0.51100000000E-03 0. -1.
         11   -1    0    0    0    0 -0.00000000000E+00 -0.00000000000E+00 -0.45593999997E+02  0.45594000000E+02  0.51100000000E-03 0.  1.
    9900012    2    1    2    0    0 -0.28194251042E+02  0.12354421765E+02 -0.83169803307E+01  0.59301957743E+02  0.50000025014E+02 0.  0.
         12    1    1    2    0    0  0.28194251042E+02 -0.12354421765E+02  0.83169803307E+01  0.31886042257E+02  0.00000000000E+00 0. -1.
         11    1    3    3    0    0 -0.26894552467E+02  0.19931318264E+02 -0.14026923826E+02  0.36295027104E+02  0.51100000000E-03 0. -1.
        -11    1    3    3    0    0  0.25569815551E+01  0.22443781192E+01 -0.62142723282E+01  0.70846713859E+01  0.51100000000E-03 0.  1.
         12    1    3    3    0    0 -0.38566801297E+01 -0.98212746182E+01  0.11924215823E+02  0.15922259254E+02  0.00000000000E+00 0. -1.
</event>
<event>
 7    1  0.7674040E-012  0.5930194E+02  0.7816164E-02  0.1266605E+00
        -11   -1    0    0    0    0  0.00000000000E+00  0.00000000000E+00  0.45593999997E+02  0.45594000000E+02  0.51100000000E-03 0.  1.
         11   -1    0    0    0    0 -0.00000000000E+00 -0.00000000000E+00 -0.45593999997E+02  0.45594000000E+02  0.51100000000E-03 0. -1.
    9900012    2    1    2    0    0  0.11404840260E+02  0.22145875780E+02  0.19905035708E+02  0.59301942828E+02  0.49999997813E+02 0.  0.
         12    1    1    2    0    0 -0.11404840260E+02 -0.22145875780E+02 -0.19905035708E+02  0.31886057172E+02  0.00000000000E+00 0. -1.
         11    1    3    3    0    0  0.11186111402E+02 -0.54926084518E+01  0.11244809363E+02  0.16785218908E+02  0.51100000000E-03 0. -1.
        -11    1    3    3    0    0 -0.44707793999E+01  0.28361438251E+02 -0.40070626261E+01  0.28989922374E+02  0.51100000000E-03 0.  1.
        -12    1    3    3    0    0  0.46895082580E+01 -0.72295401933E+00  0.12667288971E+02  0.13526801547E+02  0.00000000000E+00 0.  1.
</event>
<event>
 7    1  0.7674040E-012  0.5930191E+02  0.7816164E-02  0.1266605E+00
        -11   -1    0    0    0    0  0.00000000000E+00  0.00000000000E+00  0.45593999997E+02  0.45594000000E+02  0.51100000000E-03 0.  1.
         11   -1    0    0    0    0 -0.00000000000E+00 -0.00000000000E+00 -0.45593999997E+02  0.45594000000E+02  0.51100000000E-03 0. -1.
    9900012    2    1    2    0    0 -0.15065742023E+02  0.20485655417E+02  0.19237569177E+02  0.59301910111E+02  0.49999938145E+02 0.  0.
         12    1    1    2    0    0  0.15065742023E+02 -0.20485655417E+02 -0.19237569177E+02  0.31886089889E+02  0.00000000000E+00 0. -1.
         11    1    3    3    0    0  0.13395401478E+02  0.16304703959E+02  0.16259776371E+02  0.26639453445E+02  0.51100000000E-03 0. -1.
        -11    1    3    3    0    0 -0.14291893034E+02 -0.53276177159E+01  0.32556358063E+01  0.15596181641E+02  0.51100000000E-03 0.  1.
        -12    1    3    3    0    0 -0.14169250466E+02  0.95085691738E+01 -0.27784300055E+00  0.17066275025E+02  0.00000000000E+00 0.  1.
</event>
<event>
 7    1  0.7674040E-012  0.5930195E+02  0.7816164E-02  0.1266605E+00
        -11   -1    0    0    0    0  0.00000000000E+00  0.00000000000E+00  0.45593999997E+02  0.45594000000E+02  0.51100000000E-03 0. -1.
         11   -1    0    0    0    0 -0.00000000000E+00 -0.00000000000E+00 -0.45593999997E+02  0.45594000000E+02  0.51100000000E-03 0.  1.
    9900012    2    1    2    0    0  0.29508586701E+02 -0.44110946665E+01  0.11247473612E+02  0.59301951202E+02  0.50000013085E+02 0.  0.
         12    1    1    2    0    0 -0.29508586701E+02  0.44110946665E+01 -0.11247473612E+02  0.31886048798E+02  0.00000000000E+00 0. -1.
         11    1    3    3    0    0 -0.33405115476E+01 -0.13205468737E+02  0.13437457767E+01  0.13687551824E+02  0.51100000000E-03 0. -1.
        -11    1    3    3    0    0  0.23837705176E+02  0.19303497126E+02  0.72514634828E+01  0.31518961154E+02  0.51100000000E-03 0.  1.
        -12    1    3    3    0    0  0.90113930732E+01 -0.10509123056E+02  0.26522643530E+01  0.14095438224E+02  0.00000000000E+00 0.  1.
</event>
<event>
 7    1  0.7674040E-012  0.5930194E+02  0.7816164E-02  0.1266605E+00
        -11   -1    0    0    0    0  0.00000000000E+00  0.00000000000E+00  0.45593999997E+02  0.45594000000E+02  0.51100000000E-03 0.  1.
         11   -1    0    0    0    0 -0.00000000000E+00 -0.00000000000E+00 -0.45593999997E+02  0.45594000000E+02  0.51100000000E-03 0. -1.
    9900012    2    1    2    0    0  0.24342373092E+02 -0.88051537904E+01  0.18618236957E+02  0.59301943354E+02  0.49999998772E+02 0.  0.
         12    1    1    2    0    0 -0.24342373092E+02  0.88051537904E+01 -0.18618236957E+02  0.31886056646E+02  0.00000000000E+00 0. -1.
         11    1    3    3    0    0 -0.65394795685E+01 -0.92054595897E+01  0.19907423423E+01  0.11465964182E+02  0.51100000000E-03 0. -1.
        -11    1    3    3    0    0  0.35422949070E+02  0.73189386792E+01  0.15952457908E+02  0.39532683918E+02  0.51100000000E-03 0.  1.
        -12    1    3    3    0    0 -0.45410964095E+01 -0.69186328799E+01  0.67503670709E+00  0.83032952545E+01  0.00000000000E+00 0.  1.
</event>
<event>
 7    1  0.7674040E-012  0.5930199E+02  0.7816164E-02  0.1266605E+00
        -11   -1    0    0    0    0  0.00000000000E+00  0.00000000000E+00  0.45593999997E+02  0.45594000000E+02  0.51100000000E-03 0. -1.
         11   -1    0    0    0    0 -0.00000000000E+00 -0.00000000000E+00 -0.45593999997E+02  0.45594000000E+02  0.51100000000E-03 0.  1.
    9900012    2    1    2    0    0  0.25622275444E+02 -0.17408759661E+02  0.75598855091E+01  0.59301987694E+02  0.50000079637E+02 0.  0.
         12    1    1    2    0    0 -0.25622275444E+02  0.17408759661E+02 -0.75598855091E+01  0.31886012306E+02  0.00000000000E+00 0. -1.
         11    1    3    3    0    0 -0.82446646383E+01 -0.14054335706E+02  0.10007075597E+01  0.16324835773E+02  0.51100000000E-03 0. -1.
        -11    1    3    3    0    0  0.16002438619E+02  0.10930945699E+02  0.51899135556E+01  0.20062373204E+02  0.51100000000E-03 0.  1.
        -12    1    3    3    0    0  0.17864501463E+02 -0.14285369654E+02  0.13692643937E+01  0.22914778717E+02  0.00000000000E+00 0.  1.
</event>
<event>
 7    1  0.8089060E-012  0.5930195E+02  0.7816164E-02  0.1266605E+00
        -11   -1    0    0    0    0  0.00000000000E+00  0.00000000000E+00  0.45593999997E+02  0.45594000000E+02  0.51100000000E-03 0. -1.
         11   -1    0    0    0    0 -0.00000000000E+00 -0.00000000000E+00 -0.45593999997E+02  0.45594000000E+02  0.51100000000E-03 0.  1.
    9900012    2    1    2    0    0 -0.11374823387E+02 -0.17011450114E+02 -0.24452896184E+02  0.59301950168E+02  0.50000011199E+02 0.  0.
         12    1    1    2    0    0  0.11374823387E+02  0.17011450114E+02  0.24452896184E+02  0.31886049832E+02  0.00000000000E+00 0. -1.
         11    1    3    3    0    0 -0.76153988790E+01  0.79983139683E+01  0.46015639660E+01  0.11964184787E+02  0.51100000000E-03 0. -1.
        -11    1    3    3    0    0 -0.77385996150E+01 -0.27347161738E+02 -0.14176391381E+02  0.31760403838E+02  0.51100000000E-03 0.  1.
        -12    1    3    3    0    0  0.39791751071E+01  0.23373976555E+01 -0.14878068769E+02  0.15577361543E+02  0.00000000000E+00 0.  1.
</event>
<event>
 7    1  0.7674040E-012  0.5930194E+02  0.7816164E-02  0.1266605E+00
        -11   -1    0    0    0    0  0.00000000000E+00  0.00000000000E+00  0.45593999997E+02  0.45594000000E+02  0.51100000000E-03 0. -1.
         11   -1    0    0    0    0 -0.00000000000E+00 -0.00000000000E+00 -0.45593999997E+02  0.45594000000E+02  0.51100000000E-03 0.  1.
    9900012    2    1    2    0    0  0.39125989106E+01  0.29161568286E+01 -0.31510444369E+02  0.59301944973E+02  0.50000001723E+02 0.  0.
         12    1    1    2    0    0 -0.39125989106E+01 -0.29161568286E+01  0.31510444369E+02  0.31886055027E+02  0.00000000000E+00 0. -1.
         11    1    3    3    0    0  0.15843844970E+02  0.14464448537E+02  0.41219795614E+00  0.21457343785E+02  0.51100000000E-03 0. -1.
        -11    1    3    3    0    0 -0.71959929423E+00 -0.53311419097E+01 -0.18571608331E+02  0.19335033837E+02  0.51100000000E-03 0.  1.
         12    1    3    3    0    0 -0.11211646765E+02 -0.62171497989E+01 -0.13351033994E+02  0.18509567351E+02  0.00000000000E+00 0. -1.
</event>
<event>
 7    1  0.7674040E-012  0.5930194E+02  0.7816164E-02  0.1266605E+00
        -11   -1    0    0    0    0  0.00000000000E+00  0.00000000000E+00  0.45593999997E+02  0.45594000000E+02  0.51100000000E-03 0.  1.
         11   -1    0    0    0    0 -0.00000000000E+00 -0.00000000000E+00 -0.45593999997E+02  0.45594000000E+02  0.51100000000E-03 0. -1.
    9900012    2    1    2    0    0 -0.29846891379E+02 -0.11194507082E+02 -0.75280692058E+00  0.59301942984E+02  0.49999998096E+02 0.  0.
         12    1    1    2    0    0  0.29846891379E+02  0.11194507082E+02  0.75280692058E+00  0.31886057016E+02  0.00000000000E+00 0. -1.
         11    1    3    3    0    0 -0.34027078863E+01  0.12531806369E+02 -0.34516250177E+01  0.13436454419E+02  0.51100000000E-03 0. -1.
        -11    1    3    3    0    0 -0.19316975401E+01 -0.19520058204E+02  0.65886600085E+01  0.20692379482E+02  0.51100000000E-03 0.  1.
         12    1    3    3    0    0 -0.24512485953E+02 -0.42062552464E+01 -0.38898419115E+01  0.25173109082E+02  0.00000000000E+00 0. -1.
</event>
<event>
 7    1  0.7674040E-012  0.5930184E+02  0.7816164E-02  0.1266605E+00
        -11   -1    0    0    0    0  0.00000000000E+00  0.00000000000E+00  0.45593999997E+02  0.45594000000E+02  0.51100000000E-03 0.  1.
         11   -1    0    0    0    0 -0.00000000000E+00 -0.00000000000E+00 -0.45593999997E+02  0.45594000000E+02  0.51100000000E-03 0. -1.
    9900012    2    1    2    0    0 -0.36207516598E+01  0.41349986311E+01  0.31408905317E+02  0.59301837022E+02  0.49999804846E+02 0.  0.
         12    1    1    2    0    0  0.36207516598E+01 -0.41349986311E+01 -0.31408905317E+02  0.31886162978E+02  0.00000000000E+00 0. -1.
         11    1    3    3    0    0  0.20965573243E+00 -0.85486041664E+01 -0.76503264740E+01  0.11473887054E+02  0.51100000000E-03 0. -1.
        -11    1    3    3    0    0 -0.55806532065E+01 -0.25266144244E+00  0.32940744436E+02  0.33411078586E+02  0.51100000000E-03 0.  1.
        -12    1    3    3    0    0  0.17502458143E+01  0.12936264240E+02  0.61184873549E+01  0.14416871381E+02  0.00000000000E+00 0.  1.
</event>
<event>
 7    1  0.7674040E-012  0.5930190E+02  0.7816164E-02  0.1266605E+00
        -11   -1    0    0    0    0  0.00000000000E+00  0.00000000000E+00  0.45593999997E+02  0.45594000000E+02  0.51100000000E-03 0. -1.
         11   -1    0    0    0    0 -0.00000000000E+00 -0.00000000000E+00 -0.45593999997E+02  0.45594000000E+02  0.51100000000E-03 0.  1.
    9900012    2    1    2    0    0 -0.18688321554E+02  0.10916782412E+02 -0.23415670099E+02  0.59301904175E+02  0.49999927319E+02 0.  0.
         12    1    1    2    0    0  0.18688321554E+02 -0.10916782412E+02  0.23415670099E+02  0.31886095825E+02  0.00000000000E+00 0. -1.
         11    1    3    3    0    0 -0.11224941749E+02  0.51315176351E+01  0.38123305818E+01  0.12917648982E+02  0.51100000000E-03 0. -1.
        -11    1    3    3    0    0  0.87398606850E+01 -0.47164094374E+00 -0.27657719906E+02  0.29009603249E+02  0.51100000000E-03 0.  1.
        -12    1    3    3    0    0 -0.16203240490E+02  0.62569057211E+01  0.42971922507E+00  0.17374651944E+02  0.00000000000E+00 0.  1.
</event>
<event>
 7    1  0.7674040E-012  0.5930195E+02  0.7816164E-02  0.1266605E+00
        -11   -1    0    0    0    0  0.00000000000E+00  0.00000000000E+00  0.45593999997E+02  0.45594000000E+02  0.51100000000E-03 0.  1.
         11   -1    0    0    0    0 -0.00000000000E+00 -0.00000000000E+00 -0.45593999997E+02  0.45594000000E+02  0.51100000000E-03 0. -1.
    9900012    2    1    2    0    0  0.91883447175E+00  0.31864069943E+02 -0.74613471541E+00  0.59301954037E+02  0.50000018254E+02 0.  0.
         12    1    1    2    0    0 -0.91883447175E+00 -0.31864069943E+02  0.74613471541E+00  0.31886045963E+02  0.00000000000E+00 0. -1.
         11    1    3    3    0    0 -0.24051428045E+01  0.11901257679E+02 -0.12125896724E+02  0.17159895625E+02  0.51100000000E-03 0. -1.
        -11    1    3    3    0    0  0.92594828105E+01  0.25658386260E+02  0.17034309274E+02  0.32159889616E+02  0.51100000000E-03 0.  1.
        -12    1    3    3    0    0 -0.59355055343E+01 -0.56955739956E+01 -0.56545472658E+01  0.99821687958E+01  0.00000000000E+00 0.  1.
</event>
<event>
 7    1  0.7674040E-012  0.5930198E+02  0.7816164E-02  0.1266605E+00
        -11   -1    0    0    0    0  0.00000000000E+00  0.00000000000E+00  0.45593999997E+02  0.45594000000E+02  0.51100000000E-03 0.  1.
         11   -1    0    0    0    0 -0.00000000000E+00 -0.00000000000E+00 -0.45593999997E+02  0.45594000000E+02  0.51100000000E-03 0. -1.
    9900012    2    1    2    0    0 -0.64028580045E+01  0.31236539542E+02 -0.16663671395E-02  0.59301984319E+02  0.50000073482E+02 0.  0.
         12    1    1    2    0    0  0.64028580045E+01 -0.31236539542E+02  0.16663671395E-02  0.31886015681E+02  0.00000000000E+00 0. -1.
         11    1    3    3    0    0  0.92343241756E+01  0.22770376543E+02  0.14834236756E+02  0.28702218926E+02  0.51100000000E-03 0.  1.
        -11    1    3    3    0    0 -0.53731540141E+01  0.10031723611E+01 -0.16882570760E+02  0.17745375020E+02  0.51100000000E-03 0. -1.
        -12    1    3    3    0    0 -0.10264028166E+02  0.74629906385E+01  0.20466676375E+01  0.12854390374E+02  0.00000000000E+00 0.  1.
</event>
<event>
 7    1  0.7674040E-012  0.5930210E+02  0.7816164E-02  0.1266604E+00
        -11   -1    0    0    0    0  0.00000000000E+00  0.00000000000E+00  0.45593999997E+02  0.45594000000E+02  0.51100000000E-03 0. -1.
         11   -1    0    0    0    0 -0.00000000000E+00 -0.00000000000E+00 -0.45593999997E+02  0.45594000000E+02  0.51100000000E-03 0.  1.
    9900012    2    1    2    0    0 -0.13601189981E+02 -0.13029373221E+02  0.25728458713E+02  0.59302101500E+02  0.50000287190E+02 0.  0.
         12    1    1    2    0    0  0.13601189981E+02  0.13029373221E+02 -0.25728458713E+02  0.31885898500E+02  0.00000000000E+00 0. -1.
         11    1    3    3    0    0 -0.88711363388E+01  0.64444921179E+01  0.32608094729E+02  0.34402272900E+02  0.51100000000E-03 0. -1.
        -11    1    3    3    0    0 -0.29318018550E+01 -0.20534172639E+02 -0.36603036163E+01  0.21062894647E+02  0.51100000000E-03 0.  1.
         12    1    3    3    0    0 -0.17982517872E+01  0.10603072997E+01 -0.32193323994E+01  0.38369339528E+01  0.00000000000E+00 0. -1.
</event>
<event>
 7    1  0.7674040E-012  0.5930231E+02  0.7816164E-02  0.1266603E+00
        -11   -1    0    0    0    0  0.00000000000E+00  0.00000000000E+00  0.45593999997E+02  0.45594000000E+02  0.51100000000E-03 0.  1.
         11   -1    0    0    0    0 -0.00000000000E+00 -0.00000000000E+00 -0.45593999997E+02  0.45594000000E+02  0.51100000000E-03 0. -1.
    9900012    2    1    2    0    0  0.15708818053E+02 -0.27487152150E+02 -0.37929812581E+01  0.59302310345E+02  0.50000668071E+02 0.  0.
         12    1    1    2    0    0 -0.15708818053E+02  0.27487152150E+02  0.37929812581E+01  0.31885689655E+02  0.00000000000E+00 0. -1.
         11    1    3    3    0    0 -0.20708194555E+01 -0.24842865672E+02 -0.12258990222E+02  0.27780192756E+02  0.51100000000E-03 0. -1.
        -11    1    3    3    0    0  0.11062595826E+02 -0.12812610644E+02  0.92870951400E+01  0.19307878038E+02  0.51100000000E-03 0.  1.
         12    1    3    3    0    0  0.67170416823E+01  0.10168324167E+02 -0.82108617596E+00  0.12214239552E+02  0.00000000000E+00 0. -1.
</event>
<event>
 7    1  0.7674040E-012  0.5930195E+02  0.7816164E-02  0.1266605E+00
        -11   -1    0    0    0    0  0.00000000000E+00  0.00000000000E+00  0.45593999997E+02  0.45594000000E+02  0.51100000000E-03 0. -1.
         11   -1    0    0    0    0 -0.00000000000E+00 -0.00000000000E+00 -0.45593999997E+02  0.45594000000E+02  0.51100000000E-03 0.  1.
    9900012    2    1    2    0    0  0.15996127838E+02  0.27156142790E+02  0.48361007191E+01  0.59301951841E+02  0.50000014249E+02 0.  0.
         12    1    1    2    0    0 -0.15996127838E+02 -0.27156142790E+02 -0.48361007191E+01  0.31886048159E+02  0.00000000000E+00 0. -1.
         11    1    3    3    0    0  0.61635341883E+01  0.26739002409E+02  0.13636133295E+02  0.30641598114E+02  0.51100000000E-03 0. -1.
        -11    1    3    3    0    0  0.18079302792E+02 -0.20262537049E+01 -0.84315845284E+01  0.20051396745E+02  0.51100000000E-03 0.  1.
         12    1    3    3    0    0 -0.82467091425E+01  0.24433940866E+01 -0.36844804741E+00  0.86089569814E+01  0.00000000000E+00 0. -1.
</event>
<event>
 7    1  0.7674040E-012  0.5930195E+02  0.7816164E-02  0.1266605E+00
        -11   -1    0    0    0    0  0.00000000000E+00  0.00000000000E+00  0.45593999997E+02  0.45594000000E+02  0.51100000000E-03 0. -1.
         11   -1    0    0    0    0 -0.00000000000E+00 -0.00000000000E+00 -0.45593999997E+02  0.45594000000E+02  0.51100000000E-03 0.  1.
    9900012    2    1    2    0    0  0.13955519091E+02 -0.36266757560E+01 -0.28439600459E+02  0.59301950317E+02  0.50000011470E+02 0.  0.
         12    1    1    2    0    0 -0.13955519091E+02  0.36266757560E+01  0.28439600459E+02  0.31886049683E+02  0.00000000000E+00 0. -1.
         11    1    3    3    0    0  0.14496651313E+02 -0.93751799483E+01  0.12500870669E+01  0.17309235000E+02  0.51100000000E-03 0. -1.
        -11    1    3    3    0    0 -0.94435285036E+01  0.84314483252E+01 -0.20419108784E+01  0.12823375209E+02  0.51100000000E-03 0.  1.
        -12    1    3    3    0    0  0.89023962819E+01 -0.26829441329E+01 -0.27647776647E+02  0.29169340108E+02  0.00000000000E+00 0.  1.
</event>
<event>
 7    1  0.7674040E-012  0.5930198E+02  0.7816164E-02  0.1266605E+00
        -11   -1    0    0    0    0  0.00000000000E+00  0.00000000000E+00  0.45593999997E+02  0.45594000000E+02  0.51100000000E-03 0. -1.
         11   -1    0    0    0    0 -0.00000000000E+00 -0.00000000000E+00 -0.45593999997E+02  0.45594000000E+02  0.51100000000E-03 0.  1.
    9900012    2    1    2    0    0 -0.25087963479E+02 -0.74238560562E+01 -0.18226322060E+02  0.59301978516E+02  0.50000062898E+02 0.  0.
         12    1    1    2    0    0  0.25087963479E+02  0.74238560562E+01  0.18226322060E+02  0.31886021484E+02  0.00000000000E+00 0. -1.
         11    1    3    3    0    0 -0.79499751550E+01  0.11027721324E+02  0.57564933390E+01  0.14763128340E+02  0.51100000000E-03 0. -1.
        -11    1    3    3    0    0 -0.21537175568E+02 -0.16105227738E+02 -0.27479322297E+02  0.38449206053E+02  0.51100000000E-03 0.  1.
        -12    1    3    3    0    0  0.43991872442E+01 -0.23463496429E+01  0.34965068979E+01  0.60896441228E+01  0.00000000000E+00 0.  1.
</event>
<event>
 7    1  0.7674040E-012  0.5930196E+02  0.7816164E-02  0.1266605E+00
        -11   -1    0    0    0    0  0.00000000000E+00  0.00000000000E+00  0.45593999997E+02  0.45594000000E+02  0.51100000000E-03 0. -1.
         11   -1    0    0    0    0 -0.00000000000E+00 -0.00000000000E+00 -0.45593999997E+02  0.45594000000E+02  0.51100000000E-03 0.  1.
    9900012    2    1    2    0    0  0.22343565981E+02 -0.19828581197E+02 -0.11149534669E+02  0.59301957655E+02  0.50000024854E+02 0.  0.
         12    1    1    2    0    0 -0.22343565981E+02  0.19828581197E+02  0.11149534669E+02  0.31886042345E+02  0.00000000000E+00 0. -1.
         11    1    3    3    0    0  0.12367065724E+02 -0.17242552397E+02 -0.12662069125E+01  0.21256839088E+02  0.51100000000E-03 0. -1.
        -11    1    3    3    0    0 -0.41066362378E+01  0.11799879558E+02  0.45253104471E+01  0.13288342774E+02  0.51100000000E-03 0.  1.
        -12    1    3    3    0    0  0.14083136495E+02 -0.14385908358E+02 -0.14408638204E+02  0.24756775794E+02  0.00000000000E+00 0.  1.
</event>
<event>
 7    1  0.7674040E-012  0.5930195E+02  0.7816164E-02  0.1266605E+00
        -11   -1    0    0    0    0  0.00000000000E+00  0.00000000000E+00  0.45593999997E+02  0.45594000000E+02  0.51100000000E-03 0. -1.
         11   -1    0    0    0    0 -0.00000000000E+00 -0.00000000000E+00 -0.45593999997E+02  0.45594000000E+02  0.51100000000E-03 0.  1.
    9900012    2    1    2    0    0  0.85739349414E+00  0.20626933747E+02 -0.24300502850E+02  0.59301953550E+02  0.50000017367E+02 0.  0.
         12    1    1    2    0    0 -0.85739349414E+00 -0.20626933747E+02  0.24300502850E+02  0.31886046450E+02  0.00000000000E+00 0. -1.
         11    1    3    3    0    0 -0.63170823544E+01  0.16498461677E+00  0.99872414471E+01  0.11818533808E+02  0.51100000000E-03 0. -1.
        -11    1    3    3    0    0  0.13422347003E+02  0.11036198310E+02 -0.31278729609E+02  0.35781503579E+02  0.51100000000E-03 0.  1.
         12    1    3    3    0    0 -0.62478711544E+01  0.94257508199E+01 -0.30090146888E+01  0.11701916163E+02  0.00000000000E+00 0. -1.
</event>
<event>
 7    1  0.7674040E-012  0.5930193E+02  0.7816164E-02  0.1266605E+00
        -11   -1    0    0    0    0  0.00000000000E+00  0.00000000000E+00  0.45593999997E+02  0.45594000000E+02  0.51100000000E-03 0.  1.
         11   -1    0    0    0    0 -0.00000000000E+00 -0.00000000000E+00 -0.45593999997E+02  0.45594000000E+02  0.51100000000E-03 0. -1.
    9900012    2    1    2    0    0  0.27968689905E+01 -0.92362962571E+01  0.30390618058E+02  0.59301932343E+02  0.49999978690E+02 0.  0.
         12    1    1    2    0    0 -0.27968689905E+01  0.92362962571E+01 -0.30390618058E+02  0.31886067657E+02  0.00000000000E+00 0. -1.
         11    1    3    3    0    0  0.15710365602E+02 -0.16144763537E+02  0.25204428029E+02  0.33804321758E+02  0.51100000000E-03 0.  1.
        -11    1    3    3    0    0 -0.15556661577E+02  0.49069637956E+01  0.10380758420E+02  0.19335153445E+02  0.51100000000E-03 0. -1.
        -12    1    3    3    0    0  0.26431649662E+01  0.20015034842E+01 -0.51945683904E+01  0.61624571397E+01  0.00000000000E+00 0.  1.
</event>
<event>
 7    1  0.7674040E-012  0.5930193E+02  0.7816164E-02  0.1266605E+00
        -11   -1    0    0    0    0  0.00000000000E+00  0.00000000000E+00  0.45593999997E+02  0.45594000000E+02  0.51100000000E-03 0.  1.
         11   -1    0    0    0    0 -0.00000000000E+00 -0.00000000000E+00 -0.45593999997E+02  0.45594000000E+02  0.51100000000E-03 0. -1.
    9900012    2    1    2    0    0  0.20175711699E+02  0.18915142771E+02  0.15870710726E+02  0.59301930509E+02  0.49999975345E+02 0.  0.
         12    1    1    2    0    0 -0.20175711699E+02 -0.18915142771E+02 -0.15870710726E+02  0.31886069491E+02  0.00000000000E+00 0. -1.
         11    1    3    3    0    0  0.14370535488E+02 -0.10477417969E+02 -0.60106269799E+01  0.18772751915E+02  0.51100000000E-03 0. -1.
        -11    1    3    3    0    0  0.49420750600E+01  0.20613939651E+02  0.23404869132E+02  0.31577626782E+02  0.51100000000E-03 0.  1.
         12    1    3    3    0    0  0.86310115111E+00  0.87786210892E+01 -0.15235314264E+01  0.89515518114E+01  0.00000000000E+00 0. -1.
</event>
<event>
 7    1  0.7674040E-012  0.5930194E+02  0.7816164E-02  0.1266605E+00
        -11   -1    0    0    0    0  0.00000000000E+00  0.00000000000E+00  0.45593999997E+02  0.45594000000E+02  0.51100000000E-03 0.  1.
         11   -1    0    0    0    0 -0.00000000000E+00 -0.00000000000E+00 -0.45593999997E+02  0.45594000000E+02  0.51100000000E-03 0. -1.
    9900012    2    1    2    0    0 -0.21850904455E+01  0.71863371289E+01  0.30988754276E+02  0.59301937948E+02  0.49999988913E+02 0.  0.
         12    1    1    2    0    0  0.21850904455E+01 -0.71863371289E+01 -0.30988754276E+02  0.31886062052E+02  0.00000000000E+00 0. -1.
         11    1    3    3    0    0  0.19222508848E+02 -0.53342308050E+01  0.75135415276E+01  0.21316945635E+02  0.51100000000E-03 0. -1.
        -11    1    3    3    0    0 -0.12143752337E+02 -0.22333208649E+01  0.11233817501E+02  0.16693025454E+02  0.51100000000E-03 0.  1.
         12    1    3    3    0    0 -0.92638469562E+01  0.14753888799E+02  0.12241395248E+02  0.21291966859E+02  0.00000000000E+00 0. -1.
</event>
<event>
 7    1  0.7674040E-012  0.5930196E+02  0.7816164E-02  0.1266605E+00
        -11   -1    0    0    0    0  0.00000000000E+00  0.00000000000E+00  0.45593999997E+02  0.45594000000E+02  0.51100000000E-03 0.  1.
         11   -1    0    0    0    0 -0.00000000000E+00 -0.00000000000E+00 -0.45593999997E+02  0.45594000000E+02  0.51100000000E-03 0. -1.
    9900012    2    1    2    0    0  0.14211061994E+02  0.11298205666E+02  0.26212890718E+02  0.59301962710E+02  0.50000034072E+02 0.  0.
         12    1    1    2    0    0 -0.14211061994E+02 -0.11298205666E+02 -0.26212890718E+02  0.31886037290E+02  0.00000000000E+00 0. -1.
         11    1    3    3    0    0  0.17127422309E+02 -0.11971458910E+02  0.13969659839E+02  0.25135946763E+02  0.51100000000E-03 0. -1.
        -11    1    3    3    0    0 -0.11401567048E+02  0.67337512820E+01  0.62098709349E+01  0.14625376398E+02  0.51100000000E-03 0.  1.
        -12    1    3    3    0    0  0.84852067331E+01  0.16535913294E+02  0.60333599442E+01  0.19540639549E+02  0.00000000000E+00 0.  1.
</event>
<event>
 7    1  0.7674040E-012  0.5930193E+02  0.7816164E-02  0.1266605E+00
        -11   -1    0    0    0    0  0.00000000000E+00  0.00000000000E+00  0.45593999997E+02  0.45594000000E+02  0.51100000000E-03 0.  1.
         11   -1    0    0    0    0 -0.00000000000E+00 -0.00000000000E+00 -0.45593999997E+02  0.45594000000E+02  0.51100000000E-03 0. -1.
    9900012    2    1    2    0    0 -0.12981937632E+02  0.84192556986E+01  0.27880226898E+02  0.59301927443E+02  0.49999969754E+02 0.  0.
         12    1    1    2    0    0  0.12981937632E+02 -0.84192556986E+01 -0.27880226898E+02  0.31886072557E+02  0.00000000000E+00 0. -1.
         11    1    3    3    0    0  0.46804396709E+01 -0.44672687192E+01  0.35211584493E+02  0.35801098979E+02  0.51100000000E-03 0.  1.
        -11    1    3    3    0    0 -0.15756070766E+02  0.10994000377E+02 -0.47848038003E+01  0.19799397919E+02  0.51100000000E-03 0. -1.
        -12    1    3    3    0    0 -0.19063065365E+01  0.18925240407E+01 -0.25465537943E+01  0.37014305455E+01  0.00000000000E+00 0.  1.
</event>
<event>
 7    1  0.7674040E-012  0.5930200E+02  0.7816164E-02  0.1266605E+00
        -11   -1    0    0    0    0  0.00000000000E+00  0.00000000000E+00  0.45593999997E+02  0.45594000000E+02  0.51100000000E-03 0.  1.
         11   -1    0    0    0    0 -0.00000000000E+00 -0.00000000000E+00 -0.45593999997E+02  0.45594000000E+02  0.51100000000E-03 0. -1.
    9900012    2    1    2    0    0  0.14795175778E+02 -0.20880379205E+02  0.19021812682E+02  0.59302002764E+02  0.50000107120E+02 0.  0.
         12    1    1    2    0    0 -0.14795175778E+02  0.20880379205E+02 -0.19021812682E+02  0.31885997236E+02  0.00000000000E+00 0. -1.
         11    1    3    3    0    0  0.83698147484E+01 -0.56014286497E+01  0.32878103120E+02  0.34386035929E+02  0.51100000000E-03 0. -1.
        -11    1    3    3    0    0 -0.30168610741E+01 -0.83072481093E+01 -0.45713541702E+01  0.99503317080E+01  0.51100000000E-03 0.  1.
         12    1    3    3    0    0  0.94422221039E+01 -0.69717024457E+01 -0.92849362681E+01  0.14965635127E+02  0.00000000000E+00 0. -1.
</event>
<event>
 7    1  0.7674040E-012  0.5930189E+02  0.7816164E-02  0.1266605E+00
        -11   -1    0    0    0    0  0.00000000000E+00  0.00000000000E+00  0.45593999997E+02  0.45594000000E+02  0.51100000000E-03 0.  1.
         11   -1    0    0    0    0 -0.00000000000E+00 -0.00000000000E+00 -0.45593999997E+02  0.45594000000E+02  0.51100000000E-03 0. -1.
    9900012    2    1    2    0    0  0.23973104300E+02 -0.51848632045E+01  0.20374776221E+02  0.59301889508E+02  0.49999900570E+02 0.  0.
         12    1    1    2    0    0 -0.23973104300E+02  0.51848632045E+01 -0.20374776221E+02  0.31886110492E+02  0.00000000000E+00 0. -1.
         11    1    3    3    0    0  0.55456150234E+01 -0.13304887556E+02  0.59971242592E+01  0.15612154832E+02  0.51100000000E-03 0. -1.
        -11    1    3    3    0    0  0.23038363929E+02  0.10203562532E+02 -0.31992164715E+01  0.25399092251E+02  0.51100000000E-03 0.  1.
        -12    1    3    3    0    0 -0.46108746526E+01 -0.20835381800E+01  0.17576868433E+02  0.18290642425E+02  0.00000000000E+00 0.  1.
</event>
<event>
 7    1  0.7674040E-012  0.5930199E+02  0.7816164E-02  0.1266605E+00
        -11   -1    0    0    0    0  0.00000000000E+00  0.00000000000E+00  0.45593999997E+02  0.45594000000E+02  0.51100000000E-03 0.  1.
         11   -1    0    0    0    0 -0.00000000000E+00 -0.00000000000E+00 -0.45593999997E+02  0.45594000000E+02  0.51100000000E-03 0. -1.
    9900012    2    1    2    0    0 -0.15308755492E+02  0.27735857779E+02  0.36169115174E+01  0.59301986603E+02  0.50000077647E+02 0.  0.
         12    1    1    2    0    0  0.15308755492E+02 -0.27735857779E+02 -0.36169115174E+01  0.31886013397E+02  0.00000000000E+00 0. -1.
         11    1    3    3    0    0 -0.13180516836E+02  0.40407418360E+02  0.20298782178E+01  0.42551214888E+02  0.51100000000E-03 0. -1.
        -11    1    3    3    0    0 -0.36353538863E+00  0.56674150841E+00  0.32256913113E+01  0.32952145019E+01  0.51100000000E-03 0.  1.
         12    1    3    3    0    0 -0.17647032669E+01 -0.13238302090E+02 -0.16386580117E+01  0.13455557213E+02  0.00000000000E+00 0. -1.
</event>
<event>
 7    1  0.7674040E-012  0.5930195E+02  0.7816164E-02  0.1266605E+00
        -11   -1    0    0    0    0  0.00000000000E+00  0.00000000000E+00  0.45593999997E+02  0.45594000000E+02  0.51100000000E-03 0.  1.
         11   -1    0    0    0    0 -0.00000000000E+00 -0.00000000000E+00 -0.45593999997E+02  0.45594000000E+02  0.51100000000E-03 0. -1.
    9900012    2    1    2    0    0  0.24609044293E+02 -0.17534872034E+02  0.10180540557E+02  0.59301949691E+02  0.50000010329E+02 0.  0.
         12    1    1    2    0    0 -0.24609044293E+02  0.17534872034E+02 -0.10180540557E+02  0.31886050309E+02  0.00000000000E+00 0. -1.
         11    1    3    3    0    0  0.25246621670E+02 -0.67131901099E+01 -0.15269602077E+02  0.30259206451E+02  0.51100000000E-03 0. -1.
        -11    1    3    3    0    0  0.23725541995E+01 -0.72712871063E+01  0.21874712704E+02  0.23173339978E+02  0.51100000000E-03 0.  1.
         12    1    3    3    0    0 -0.30101315769E+01 -0.35503948179E+01  0.35754299295E+01  0.58694032622E+01  0.00000000000E+00 0. -1.
</event>
<event>
 7    1  0.7674040E-012  0.5930194E+02  0.7816164E-02  0.1266605E+00
        -11   -1    0    0    0    0  0.00000000000E+00  0.00000000000E+00  0.45593999997E+02  0.45594000000E+02  0.51100000000E-03 0.  1.
         11   -1    0    0    0    0 -0.00000000000E+00 -0.00000000000E+00 -0.45593999997E+02  0.45594000000E+02  0.51100000000E-03 0. -1.
    9900012    2    1    2    0    0 -0.82687598946E+01 -0.20536318847E+02  0.22947935755E+02  0.59301944468E+02  0.50000000802E+02 0.  0.
         12    1    1    2    0    0  0.82687598946E+01  0.20536318847E+02 -0.22947935755E+02  0.31886055532E+02  0.00000000000E+00 0. -1.
         11    1    3    3    0    0 -0.10173665188E+02 -0.13614108111E+02 -0.82895383785E+01  0.18909358789E+02  0.51100000000E-03 0. -1.
        -11    1    3    3    0    0  0.12088519439E+02  0.10831597374E+01  0.11091942643E+02  0.16441919873E+02  0.51100000000E-03 0.  1.
        -12    1    3    3    0    0 -0.10183614146E+02 -0.80053704733E+01  0.20145531491E+02  0.23950665806E+02  0.00000000000E+00 0.  1.
</event>
<event>
 7    1  0.7674040E-012  0.5930194E+02  0.7816164E-02  0.1266605E+00
        -11   -1    0    0    0    0  0.00000000000E+00  0.00000000000E+00  0.45593999997E+02  0.45594000000E+02  0.51100000000E-03 0. -1.
         11   -1    0    0    0    0 -0.00000000000E+00 -0.00000000000E+00 -0.45593999997E+02  0.45594000000E+02  0.51100000000E-03 0.  1.
    9900012    2    1    2    0    0 -0.43012727043E+01 -0.73876839545E+01 -0.30718751504E+02  0.59301944818E+02  0.50000001442E+02 0.  0.
         12    1    1    2    0    0  0.43012727043E+01  0.73876839545E+01  0.30718751504E+02  0.31886055182E+02  0.00000000000E+00 0. -1.
         11    1    3    3    0    0 -0.17322011320E+02 -0.13362231442E+01 -0.37420118349E+02  0.41256548886E+02  0.51100000000E-03 0. -1.
        -11    1    3    3    0    0  0.48471584586E+01 -0.66782016947E+01  0.16462292407E+01  0.84144752643E+01  0.51100000000E-03 0.  1.
         12    1    3    3    0    0  0.81735801567E+01  0.62674088444E+00  0.50551376044E+01  0.96309206680E+01  0.00000000000E+00 0. -1.
</event>
<event>
 7    1  0.7674040E-012  0.5930191E+02  0.7816164E-02  0.1266605E+00
        -11   -1    0    0    0    0  0.00000000000E+00  0.00000000000E+00  0.45593999997E+02  0.45594000000E+02  0.51100000000E-03 0. -1.
         11   -1    0    0    0    0 -0.00000000000E+00 -0.00000000000E+00 -0.45593999997E+02  0.45594000000E+02  0.51100000000E-03 0.  1.
    9900012    2    1    2    0    0 -0.28823286050E+02  0.91071279824E+01 -0.10148955684E+02  0.59301907416E+02  0.49999933229E+02 0.  0.
         12    1    1    2    0    0  0.28823286050E+02 -0.91071279824E+01  0.10148955684E+02  0.31886092584E+02  0.00000000000E+00 0. -1.
         11    1    3    3    0    0 -0.20669373228E+02 -0.39318764627E+01  0.33480442442E+01  0.21304742258E+02  0.51100000000E-03 0. -1.
        -11    1    3    3    0    0 -0.12629401279E+01  0.17513336732E+02  0.45750952368E+01  0.18145067592E+02  0.51100000000E-03 0.  1.
        -12    1    3    3    0    0 -0.68909726939E+01 -0.44743322866E+01 -0.18072095165E+02  0.19852097565E+02  0.00000000000E+00 0.  1.
</event>
<event>
 7    1  0.7674040E-012  0.5930195E+02  0.7816164E-02  0.1266605E+00
        -11   -1    0    0    0    0  0.00000000000E+00  0.00000000000E+00  0.45593999997E+02  0.45594000000E+02  0.51100000000E-03 0. -1.
         11   -1    0    0    0    0 -0.00000000000E+00 -0.00000000000E+00 -0.45593999997E+02  0.45594000000E+02  0.51100000000E-03 0.  1.
    9900012    2    1    2    0    0 -0.26931449121E+02  0.36390779279E+01 -0.16678568460E+02  0.59301945277E+02  0.50000002278E+02 0.  0.
         12    1    1    2    0    0  0.26931449121E+02 -0.36390779279E+01  0.16678568460E+02  0.31886054723E+02  0.00000000000E+00 0. -1.
         11    1    3    3    0    0 -0.11690821020E+02 -0.19381186401E+02 -0.85662987326E+01  0.24200974292E+02  0.51100000000E-03 0. -1.
        -11    1    3    3    0    0 -0.69111208432E+01  0.42437760703E+00  0.41541484236E+01  0.80746911426E+01  0.51100000000E-03 0.  1.
         12    1    3    3    0    0 -0.83295072577E+01  0.22595886721E+02 -0.12266418151E+02  0.27026279843E+02  0.00000000000E+00 0. -1.
</event>
<event>
 7    1  0.7674040E-012  0.5930191E+02  0.7816164E-02  0.1266605E+00
        -11   -1    0    0    0    0  0.00000000000E+00  0.00000000000E+00  0.45593999997E+02  0.45594000000E+02  0.51100000000E-03 0.  1.
         11   -1    0    0    0    0 -0.00000000000E+00 -0.00000000000E+00 -0.45593999997E+02  0.45594000000E+02  0.51100000000E-03 0. -1.
    9900012    2    1    2    0    0  0.12214135564E+02  0.66652567832E+00  0.29446446014E+02  0.59301912957E+02  0.49999943334E+02 0.  0.
         12    1    1    2    0    0 -0.12214135564E+02 -0.66652567832E+00 -0.29446446014E+02  0.31886087043E+02  0.00000000000E+00 0. -1.
         11    1    3    3    0    0 -0.11633612654E+02 -0.47200100473E+01  0.61651938342E+01  0.13986745637E+02  0.51100000000E-03 0. -1.
        -11    1    3    3    0    0  0.20319040227E+02  0.15791234261E+02  0.89255878256E+01  0.27237705365E+02  0.51100000000E-03 0.  1.
        -12    1    3    3    0    0  0.35287079911E+01 -0.10404698536E+02  0.14355664354E+02  0.18077461956E+02  0.00000000000E+00 0.  1.
</event>
<event>
 7    1  0.7674040E-012  0.5930196E+02  0.7816164E-02  0.1266605E+00
        -11   -1    0    0    0    0  0.00000000000E+00  0.00000000000E+00  0.45593999997E+02  0.45594000000E+02  0.51100000000E-03 0.  1.
         11   -1    0    0    0    0 -0.00000000000E+00 -0.00000000000E+00 -0.45593999997E+02  0.45594000000E+02  0.51100000000E-03 0. -1.
    9900012    2    1    2    0    0 -0.40525649448E+01  0.30408774918E+02  0.86949969804E+01  0.59301955292E+02  0.50000020543E+02 0.  0.
         12    1    1    2    0    0  0.40525649448E+01 -0.30408774918E+02 -0.86949969804E+01  0.31886044708E+02  0.00000000000E+00 0. -1.
         11    1    3    3    0    0  0.37721092549E+01  0.35617334410E+02  0.15861923507E+02  0.39171723683E+02  0.51100000000E-03 0.  1.
        -11    1    3    3    0    0 -0.54484474109E+00 -0.16663092659E+01 -0.11023970458E+02  0.11162498255E+02  0.51100000000E-03 0. -1.
        -12    1    3    3    0    0 -0.72798294586E+01 -0.35422502265E+01  0.38570439316E+01  0.89677333537E+01  0.00000000000E+00 0.  1.
</event>
<event>
 7    1  0.7674040E-012  0.5930195E+02  0.7816164E-02  0.1266605E+00
        -11   -1    0    0    0    0  0.00000000000E+00  0.00000000000E+00  0.45593999997E+02  0.45594000000E+02  0.51100000000E-03 0.  1.
         11   -1    0    0    0    0 -0.00000000000E+00 -0.00000000000E+00 -0.45593999997E+02  0.45594000000E+02  0.51100000000E-03 0. -1.
    9900012    2    1    2    0    0 -0.22402064663E+02  0.71927949403E+01  0.21520491416E+02  0.59301947391E+02  0.50000006133E+02 0.  0.
         12    1    1    2    0    0  0.22402064663E+02 -0.71927949403E+01 -0.21520491416E+02  0.31886052609E+02  0.00000000000E+00 0. -1.
         11    1    3    3    0    0  0.16120683833E+02  0.25379476403E+01  0.78270097241E+01  0.18099163156E+02  0.51100000000E-03 0. -1.
        -11    1    3    3    0    0 -0.22256005883E+02  0.37301928573E+01  0.81190232883E+01  0.23982549407E+02  0.51100000000E-03 0.  1.
         12    1    3    3    0    0 -0.16266742612E+02  0.92465444271E+00  0.55744584039E+01  0.17220234828E+02  0.00000000000E+00 0. -1.
</event>
<event>
 7    1  0.7674040E-012  0.5930193E+02  0.7816164E-02  0.1266605E+00
        -11   -1    0    0    0    0  0.00000000000E+00  0.00000000000E+00  0.45593999997E+02  0.45594000000E+02  0.51100000000E-03 0.  1.
         11   -1    0    0    0    0 -0.00000000000E+00 -0.00000000000E+00 -0.45593999997E+02  0.45594000000E+02  0.51100000000E-03 0. -1.
    9900012    2    1    2    0    0 -0.34227280806E+01 -0.28655212130E+02  0.13560427686E+02  0.59301930178E+02  0.49999974741E+02 0.  0.
         12    1    1    2    0    0  0.34227280806E+01  0.28655212130E+02 -0.13560427686E+02  0.31886069822E+02  0.00000000000E+00 0. -1.
         11    1    3    3    0    0 -0.16030646372E+02  0.71472113905E+01  0.11879293016E+02  0.21193910837E+02  0.51100000000E-03 0. -1.
        -11    1    3    3    0    0  0.18277278998E+01 -0.50463317933E+01  0.12674707183E+01  0.55147562164E+01  0.51100000000E-03 0.  1.
         12    1    3    3    0    0  0.10780190392E+02 -0.30756091727E+02  0.41366395174E+00  0.32593263124E+02  0.00000000000E+00 0. -1.
</event>
<event>
 7    1  0.7674040E-012  0.5930194E+02  0.7816164E-02  0.1266605E+00
        -11   -1    0    0    0    0  0.00000000000E+00  0.00000000000E+00  0.45593999997E+02  0.45594000000E+02  0.51100000000E-03 0.  1.
         11   -1    0    0    0    0 -0.00000000000E+00 -0.00000000000E+00 -0.45593999997E+02  0.45594000000E+02  0.51100000000E-03 0. -1.
    9900012    2    1    2    0    0 -0.26331552952E+02 -0.17290670508E+02  0.49399114541E+01  0.59301942033E+02  0.49999996362E+02 0.  0.
         12    1    1    2    0    0  0.26331552952E+02  0.17290670508E+02 -0.49399114541E+01  0.31886057967E+02  0.00000000000E+00 0. -1.
         11    1    3    3    0    0 -0.60502664603E+00 -0.16115555800E+02 -0.24751523221E+00  0.16128808388E+02  0.51100000000E-03 0. -1.
        -11    1    3    3    0    0 -0.41355389877E+01  0.82557035220E+01  0.15029480516E+02  0.17639291601E+02  0.51100000000E-03 0.  1.
        -12    1    3    3    0    0 -0.21590987319E+02 -0.94308182308E+01 -0.98420538296E+01  0.25533842043E+02  0.00000000000E+00 0.  1.
</event>
<event>
 7    1  0.7674040E-012  0.5930187E+02  0.7816164E-02  0.1266605E+00
        -11   -1    0    0    0    0  0.00000000000E+00  0.00000000000E+00  0.45593999997E+02  0.45594000000E+02  0.51100000000E-03 0.  1.
         11   -1    0    0    0    0 -0.00000000000E+00 -0.00000000000E+00 -0.45593999997E+02  0.45594000000E+02  0.51100000000E-03 0. -1.
    9900012    2    1    2    0    0 -0.24905567406E+02  0.11840891528E+02  0.16007229160E+02  0.59301868448E+02  0.49999862160E+02 0.  0.
         12    1    1    2    0    0  0.24905567406E+02 -0.11840891528E+02 -0.16007229160E+02  0.31886131552E+02  0.00000000000E+00 0. -1.
         11    1    3    3    0    0 -0.85674557417E+01  0.12410605542E+02  0.10851542642E+02  0.18579031346E+02  0.51100000000E-03 0. -1.
        -11    1    3    3    0    0 -0.27405661701E+02 -0.49020551205E+01  0.18828018779E+00  0.27841262317E+02  0.51100000000E-03 0.  1.
        -12    1    3    3    0    0  0.11067550037E+02  0.43323411067E+01  0.49674063298E+01  0.12881574785E+02  0.00000000000E+00 0.  1.
</event>
<event>
 7    1  0.7674040E-012  0.5930197E+02  0.7816164E-02  0.1266605E+00
        -11   -1    0    0    0    0  0.00000000000E+00  0.00000000000E+00  0.45593999997E+02  0.45594000000E+02  0.51100000000E-03 0. -1.
         11   -1    0    0    0    0 -0.00000000000E+00 -0.00000000000E+00 -0.45593999997E+02  0.45594000000E+02  0.51100000000E-03 0.  1.
    9900012    2    1    2    0    0 -0.78259305120E+01  0.28660527491E+02  0.11577916419E+02  0.59301965862E+02  0.50000039820E+02 0.  0.
         12    1    1    2    0    0  0.78259305120E+01 -0.28660527491E+02 -0.11577916419E+02  0.31886034138E+02  0.00000000000E+00 0. -1.
         11    1    3    3    0    0  0.79489735518E+01 -0.53931444211E+01  0.16381749100E+02  0.18990363111E+02  0.51100000000E-03 0. -1.
        -11    1    3    3    0    0 -0.23965060066E+01  0.21587253728E+02 -0.20046771712E+01  0.21812186854E+02  0.51100000000E-03 0.  1.
         12    1    3    3    0    0 -0.13378398057E+02  0.12466418184E+02 -0.27991555092E+01  0.18499415896E+02  0.00000000000E+00 0. -1.
</event>
<event>
 7    1  0.7674040E-012  0.5930195E+02  0.7816164E-02  0.1266605E+00
        -11   -1    0    0    0    0  0.00000000000E+00  0.00000000000E+00  0.45593999997E+02  0.45594000000E+02  0.51100000000E-03 0.  1.
         11   -1    0    0    0    0 -0.00000000000E+00 -0.00000000000E+00 -0.45593999997E+02  0.45594000000E+02  0.51100000000E-03 0. -1.
    9900012    2    1    2    0    0  0.17139160002E+02 -0.15367571243E+02  0.22063701336E+02  0.59301953394E+02  0.50000017083E+02 0.  0.
         12    1    1    2    0    0 -0.17139160002E+02  0.15367571243E+02 -0.22063701336E+02  0.31886046606E+02  0.00000000000E+00 0. -1.
         11    1    3    3    0    0  0.16664285051E+02 -0.76043923623E+01  0.34349647976E+02  0.38928440706E+02  0.51100000000E-03 0. -1.
        -11    1    3    3    0    0 -0.13955179325E+01 -0.62968928963E+01  0.13015814395E+01  0.65796994576E+01  0.51100000000E-03 0.  1.
         12    1    3    3    0    0  0.18703928836E+01 -0.14662859845E+01 -0.13587528080E+02  0.13793813231E+02  0.00000000000E+00 0. -1.
</event>
<event>
 7    1  0.7674040E-012  0.5930195E+02  0.7816164E-02  0.1266605E+00
        -11   -1    0    0    0    0  0.00000000000E+00  0.00000000000E+00  0.45593999997E+02  0.45594000000E+02  0.51100000000E-03 0.  1.
         11   -1    0    0    0    0 -0.00000000000E+00 -0.00000000000E+00 -0.45593999997E+02  0.45594000000E+02  0.51100000000E-03 0. -1.
    9900012    2    1    2    0    0  0.28683884415E+02 -0.79734881801E+01 -0.11418336983E+02  0.59301950412E+02  0.50000011644E+02 0.  0.
         12    1    1    2    0    0 -0.28683884415E+02  0.79734881801E+01  0.11418336983E+02  0.31886049588E+02  0.00000000000E+00 0. -1.
         11    1    3    3    0    0  0.25515189712E+01  0.54349504719E+01 -0.20830289009E+02  0.21678327337E+02  0.51100000000E-03 0. -1.
        -11    1    3    3    0    0  0.10814935775E+02 -0.15492479554E+02  0.11354899591E+02  0.22043445817E+02  0.51100000000E-03 0.  1.
         12    1    3    3    0    0  0.15317429669E+02  0.20840409017E+01 -0.19429475644E+01  0.15580177258E+02  0.00000000000E+00 0. -1.
</event>
<event>
 7    1  0.7674040E-012  0.5930196E+02  0.7816164E-02  0.1266605E+00
        -11   -1    0    0    0    0  0.00000000000E+00  0.00000000000E+00  0.45593999997E+02  0.45594000000E+02  0.51100000000E-03 0.  1.
         11   -1    0    0    0    0 -0.00000000000E+00 -0.00000000000E+00 -0.45593999997E+02  0.45594000000E+02  0.51100000000E-03 0. -1.
    9900012    2    1    2    0    0  0.24124713159E+02 -0.11248997432E+02  0.17554997198E+02  0.59301958307E+02  0.50000026042E+02 0.  0.
         12    1    1    2    0    0 -0.24124713159E+02  0.11248997432E+02 -0.17554997198E+02  0.31886041693E+02  0.00000000000E+00 0. -1.
         11    1    3    3    0    0  0.25464644973E+02  0.67239034363E+01  0.48396717355E+01  0.26778376422E+02  0.51100000000E-03 0.  1.
        -11    1    3    3    0    0 -0.94695357396E+01 -0.15066428484E+02  0.15345859918E+02  0.23498186978E+02  0.51100000000E-03 0. -1.
        -12    1    3    3    0    0  0.81296039259E+01 -0.29064723837E+01 -0.26305344550E+01  0.90253949070E+01  0.00000000000E+00 0.  1.
</event>
<event>
 7    1  0.7674040E-012  0.5930195E+02  0.7816164E-02  0.1266605E+00
        -11   -1    0    0    0    0  0.00000000000E+00  0.00000000000E+00  0.45593999997E+02  0.45594000000E+02  0.51100000000E-03 0.  1.
         11   -1    0    0    0    0 -0.00000000000E+00 -0.00000000000E+00 -0.45593999997E+02  0.45594000000E+02  0.51100000000E-03 0. -1.
    9900012    2    1    2    0    0  0.21598225427E+02 -0.22049949066E+02 -0.80022922610E+01  0.59301948554E+02  0.50000008254E+02 0.  0.
         12    1    1    2    0    0 -0.21598225427E+02  0.22049949066E+02  0.80022922610E+01  0.31886051446E+02  0.00000000000E+00 0. -1.
         11    1    3    3    0    0  0.39523106306E+00  0.16888022139E+01 -0.10478446237E+01  0.20263857302E+01  0.51100000000E-03 0. -1.
        -11    1    3    3    0    0  0.30588014736E+02 -0.31505693254E+02 -0.15246276763E+01  0.43938136541E+02  0.51100000000E-03 0.  1.
        -12    1    3    3    0    0 -0.93850203724E+01  0.77669419739E+01 -0.54298199611E+01  0.13337426282E+02  0.00000000000E+00 0.  1.
</event>
<event>
 7    1  0.7674040E-012  0.5930194E+02  0.7816164E-02  0.1266605E+00
        -11   -1    0    0    0    0  0.00000000000E+00  0.00000000000E+00  0.45593999997E+02  0.45594000000E+02  0.51100000000E-03 0.  1.
         11   -1    0    0    0    0 -0.00000000000E+00 -0.00000000000E+00 -0.45593999997E+02  0.45594000000E+02  0.51100000000E-03 0. -1.
    9900012    2    1    2    0    0 -0.25852364263E+02  0.18124395566E+02  0.44589568253E+01  0.59301941156E+02  0.49999994763E+02 0.  0.
         12    1    1    2    0    0  0.25852364263E+02 -0.18124395566E+02 -0.44589568253E+01  0.31886058844E+02  0.00000000000E+00 0. -1.
         11    1    3    3    0    0  0.32448616059E+01  0.98273280807E+01 -0.68759507420E+01  0.12425143980E+02  0.51100000000E-03 0. -1.
        -11    1    3    3    0    0 -0.27388091702E+02 -0.73970538311E+01  0.12595115179E+02  0.31039666543E+02  0.51100000000E-03 0.  1.
        -12    1    3    3    0    0 -0.17091341671E+01  0.15694121316E+02 -0.12602076113E+01  0.15837130634E+02  0.00000000000E+00 0.  1.
</event>
<event>
 7    1  0.7674040E-012  0.5930189E+02  0.7816164E-02  0.1266605E+00
        -11   -1    0    0    0    0  0.00000000000E+00  0.00000000000E+00  0.45593999997E+02  0.45594000000E+02  0.51100000000E-03 0.  1.
         11   -1    0    0    0    0 -0.00000000000E+00 -0.00000000000E+00 -0.45593999997E+02  0.45594000000E+02  0.51100000000E-03 0. -1.
    9900012    2    1    2    0    0  0.96208536792E+00  0.89372728460E+01  0.30592864050E+02  0.59301893544E+02  0.49999907929E+02 0.  0.
         12    1    1    2    0    0 -0.96208536792E+00 -0.89372728460E+01 -0.30592864050E+02  0.31886106456E+02  0.00000000000E+00 0. -1.
         11    1    3    3    0    0  0.21015068160E+02 -0.58438036780E+01  0.14863393335E+02  0.26395143358E+02  0.51100000000E-03 0.  1.
        -11    1    3    3    0    0 -0.16106951868E+02  0.12337860028E+02  0.45373577148E+01  0.20790485897E+02  0.51100000000E-03 0. -1.
        -12    1    3    3    0    0 -0.39460309246E+01  0.24432164961E+01  0.11192113000E+02  0.12116264289E+02  0.00000000000E+00 0.  1.
</event>
<event>
 7    1  0.7674040E-012  0.5930195E+02  0.7816164E-02  0.1266605E+00
        -11   -1    0    0    0    0  0.00000000000E+00  0.00000000000E+00  0.45593999997E+02  0.45594000000E+02  0.51100000000E-03 0.  1.
         11   -1    0    0    0    0 -0.00000000000E+00 -0.00000000000E+00 -0.45593999997E+02  0.45594000000E+02  0.51100000000E-03 0. -1.
    9900012    2    1    2    0    0  0.10430355853E+02  0.28740184227E+02  0.90515002117E+01  0.59301950250E+02  0.50000011347E+02 0.  0.
         12    1    1    2    0    0 -0.10430355853E+02 -0.28740184227E+02 -0.90515002117E+01  0.31886049750E+02  0.00000000000E+00 0. -1.
         11    1    3    3    0    0  0.10762370762E+02  0.25930661580E+01 -0.22457486413E+01  0.11295840108E+02  0.51100000000E-03 0. -1.
        -11    1    3    3    0    0  0.59968768775E+01  0.34784691046E+02  0.11982276193E+02  0.37276161370E+02  0.51100000000E-03 0.  1.
        -12    1    3    3    0    0 -0.63288917868E+01 -0.86375729774E+01 -0.68502734012E+00  0.10729948772E+02  0.00000000000E+00 0.  1.
</event>
<event>
 7    1  0.7674040E-012  0.5930190E+02  0.7816164E-02  0.1266605E+00
        -11   -1    0    0    0    0  0.00000000000E+00  0.00000000000E+00  0.45593999997E+02  0.45594000000E+02  0.51100000000E-03 0. -1.
         11   -1    0    0    0    0 -0.00000000000E+00 -0.00000000000E+00 -0.45593999997E+02  0.45594000000E+02  0.51100000000E-03 0.  1.
    9900012    2    1    2    0    0 -0.15244101227E+02  0.26907254861E+02 -0.77679196410E+01  0.59301897041E+02  0.49999914308E+02 0.  0.
         12    1    1    2    0    0  0.15244101227E+02 -0.26907254861E+02  0.77679196410E+01  0.31886102959E+02  0.00000000000E+00 0. -1.
         11    1    3    3    0    0  0.70030423017E+01  0.23911076012E+02  0.68675210367E+01  0.25844631995E+02  0.51100000000E-03 0. -1.
        -11    1    3    3    0    0 -0.12976849972E+02  0.10000345593E+02 -0.14437415648E+02  0.21836769863E+02  0.51100000000E-03 0.  1.
         12    1    3    3    0    0 -0.92702935559E+01 -0.70041667438E+01 -0.19802502947E+00  0.11620495183E+02  0.00000000000E+00 0. -1.
</event>
<event>
 7    1  0.7674040E-012  0.5930193E+02  0.7816164E-02  0.1266605E+00
        -11   -1    0    0    0    0  0.00000000000E+00  0.00000000000E+00  0.45593999997E+02  0.45594000000E+02  0.51100000000E-03 0. -1.
         11   -1    0    0    0    0 -0.00000000000E+00 -0.00000000000E+00 -0.45593999997E+02  0.45594000000E+02  0.51100000000E-03 0.  1.
    9900012    2    1    2    0    0 -0.18858879058E+02 -0.11875816506E+02 -0.22804142769E+02  0.59301933067E+02  0.49999980011E+02 0.  0.
         12    1    1    2    0    0  0.18858879058E+02  0.11875816506E+02  0.22804142769E+02  0.31886066933E+02  0.00000000000E+00 0. -1.
         11    1    3    3    0    0  0.13977187188E+01  0.68897858450E+01 -0.24601206652E+02  0.25585975370E+02  0.51100000000E-03 0. -1.
        -11    1    3    3    0    0 -0.68980973471E+01 -0.87914370714E+01 -0.85713769949E+01  0.14083380867E+02  0.51100000000E-03 0.  1.
         12    1    3    3    0    0 -0.13358500430E+02 -0.99741652800E+01  0.10368440879E+02  0.19632576831E+02  0.00000000000E+00 0. -1.
</event>
<event>
 7    1  0.7674040E-012  0.5930193E+02  0.7816164E-02  0.1266605E+00
        -11   -1    0    0    0    0  0.00000000000E+00  0.00000000000E+00  0.45593999997E+02  0.45594000000E+02  0.51100000000E-03 0.  1.
         11   -1    0    0    0    0 -0.00000000000E+00 -0.00000000000E+00 -0.45593999997E+02  0.45594000000E+02  0.51100000000E-03 0. -1.
    9900012    2    1    2    0    0  0.16224176725E+02 -0.23287827624E+02  0.14531845333E+02  0.59301931653E+02  0.49999977431E+02 0.  0.
         12    1    1    2    0    0 -0.16224176725E+02  0.23287827624E+02 -0.14531845333E+02  0.31886068347E+02  0.00000000000E+00 0. -1.
         11    1    3    3    0    0  0.16268999031E+01 -0.83889830395E+01 -0.19023132030E+01  0.87544637480E+01  0.51100000000E-03 0. -1.
        -11    1    3    3    0    0  0.56071613518E+00  0.13064446399E+02 -0.33882631374E+01  0.13508311873E+02  0.51100000000E-03 0.  1.
        -12    1    3    3    0    0  0.14036560687E+02 -0.27963290984E+02  0.19822421674E+02  0.37039156032E+02  0.00000000000E+00 0.  1.
</event>
<event>
 7    1  0.7674040E-012  0.5930194E+02  0.7816164E-02  0.1266605E+00
        -11   -1    0    0    0    0  0.00000000000E+00  0.00000000000E+00  0.45593999997E+02  0.45594000000E+02  0.51100000000E-03 0. -1.
         11   -1    0    0    0    0 -0.00000000000E+00 -0.00000000000E+00 -0.45593999997E+02  0.45594000000E+02  0.51100000000E-03 0.  1.
    9900012    2    1    2    0    0 -0.21669975966E+02 -0.22161040715E+02 -0.74847373503E+01  0.59301939141E+02  0.49999991087E+02 0.  0.
         12    1    1    2    0    0  0.21669975966E+02  0.22161040715E+02  0.74847373503E+01  0.31886060859E+02  0.00000000000E+00 0. -1.
         11    1    3    3    0    0 -0.24342474639E+02  0.79909422874E+01 -0.99407506421E+01  0.27481443808E+02  0.51100000000E-03 0. -1.
        -11    1    3    3    0    0 -0.23166982858E+01 -0.57470933002E+01 -0.20086499674E+01  0.65138964761E+01  0.51100000000E-03 0.  1.
         12    1    3    3    0    0  0.49891969586E+01 -0.24404889702E+02  0.44646632592E+01  0.25306598857E+02  0.00000000000E+00 0. -1.
</event>
<event>
 7    1  0.7674040E-012  0.5930193E+02  0.7816164E-02  0.1266605E+00
        -11   -1    0    0    0    0  0.00000000000E+00  0.00000000000E+00  0.45593999997E+02  0.45594000000E+02  0.51100000000E-03 0.  1.
         11   -1    0    0    0    0 -0.00000000000E+00 -0.00000000000E+00 -0.45593999997E+02  0.45594000000E+02  0.51100000000E-03 0. -1.
    9900012    2    1    2    0    0 -0.51629175959E+01  0.30344362892E+02  0.83237772055E+01  0.59301931814E+02  0.49999977725E+02 0.  0.
         12    1    1    2    0    0  0.51629175959E+01 -0.30344362892E+02 -0.83237772055E+01  0.31886068186E+02  0.00000000000E+00 0. -1.
         11    1    3    3    0    0 -0.13686036120E+02  0.24363003090E+02 -0.80950854068E+01  0.29092849848E+02  0.51100000000E-03 0. -1.
        -11    1    3    3    0    0  0.11517082406E+02  0.92446588470E+01  0.19754552126E+02  0.24664736656E+02  0.51100000000E-03 0.  1.
        -12    1    3    3    0    0 -0.29939638814E+01 -0.32632990455E+01 -0.33356895141E+01  0.55443453101E+01  0.00000000000E+00 0.  1.
</event>
<event>
 7    1  0.7674040E-012  0.5930195E+02  0.7816164E-02  0.1266605E+00
        -11   -1    0    0    0    0  0.00000000000E+00  0.00000000000E+00  0.45593999997E+02  0.45594000000E+02  0.51100000000E-03 0.  1.
         11   -1    0    0    0    0 -0.00000000000E+00 -0.00000000000E+00 -0.45593999997E+02  0.45594000000E+02  0.51100000000E-03 0. -1.
    9900012    2    1    2    0    0 -0.25308965223E+02 -0.55150687738E+01  0.18594636283E+02  0.59301949716E+02  0.50000010373E+02 0.  0.
         12    1    1    2    0    0  0.25308965223E+02  0.55150687738E+01 -0.18594636283E+02  0.31886050284E+02  0.00000000000E+00 0. -1.
         11    1    3    3    0    0  0.46840990105E+01  0.17767452130E+01  0.17605168318E+02  0.18304085851E+02  0.51100000000E-03 0. -1.
        -11    1    3    3    0    0 -0.30519314035E+02 -0.14594142837E+01 -0.67516169631E+01  0.31291256784E+02  0.51100000000E-03 0.  1.
        -12    1    3    3    0    0  0.52624980173E+00 -0.58323997031E+01  0.77410849280E+01  0.97066070804E+01  0.00000000000E+00 0.  1.
</event>
<event>
 7    1  0.7674040E-012  0.5930195E+02  0.7816164E-02  0.1266605E+00
        -11   -1    0    0    0    0  0.00000000000E+00  0.00000000000E+00  0.45593999997E+02  0.45594000000E+02  0.51100000000E-03 0.  1.
         11   -1    0    0    0    0 -0.00000000000E+00 -0.00000000000E+00 -0.45593999997E+02  0.45594000000E+02  0.51100000000E-03 0. -1.
    9900012    2    1    2    0    0  0.30430085939E+02  0.95022688380E+01 -0.66122055437E+00  0.59301945746E+02  0.50000003133E+02 0.  0.
         12    1    1    2    0    0 -0.30430085939E+02 -0.95022688380E+01  0.66122055437E+00  0.31886054254E+02  0.00000000000E+00 0. -1.
         11    1    3    3    0    0 -0.59751968472E+01  0.13236550810E+02  0.38093186122E+01  0.15013998910E+02  0.51100000000E-03 0. -1.
        -11    1    3    3    0    0  0.15001603699E+02 -0.24376898335E+01  0.10202583298E+02  0.18305276602E+02  0.51100000000E-03 0.  1.
         12    1    3    3    0    0  0.21403679086E+02 -0.12965921385E+01 -0.14673122464E+02  0.25982670234E+02  0.00000000000E+00 0. -1.
</event>
<event>
 7    1  0.7674040E-012  0.5930193E+02  0.7816164E-02  0.1266605E+00
        -11   -1    0    0    0    0  0.00000000000E+00  0.00000000000E+00  0.45593999997E+02  0.45594000000E+02  0.51100000000E-03 0.  1.
         11   -1    0    0    0    0 -0.00000000000E+00 -0.00000000000E+00 -0.45593999997E+02  0.45594000000E+02  0.51100000000E-03 0. -1.
    9900012    2    1    2    0    0 -0.29633830507E+02 -0.32232779046E+01  0.11321129130E+02  0.59301931008E+02  0.49999976256E+02 0.  0.
         12    1    1    2    0    0  0.29633830507E+02  0.32232779046E+01 -0.11321129130E+02  0.31886068992E+02  0.00000000000E+00 0. -1.
         11    1    3    3    0    0 -0.19612939158E+02 -0.22041682639E+02 -0.17879973221E+01  0.29558418271E+02  0.51100000000E-03 0. -1.
        -11    1    3    3    0    0 -0.10865699538E+02  0.38510889193E+01  0.74181228764E+01  0.13708495890E+02  0.51100000000E-03 0.  1.
         12    1    3    3    0    0  0.84480818892E+00  0.14967315815E+02  0.56910035754E+01  0.16035016847E+02  0.00000000000E+00 0. -1.
</event>
<event>
 7    1  0.7674040E-012  0.5930191E+02  0.7816164E-02  0.1266605E+00
        -11   -1    0    0    0    0  0.00000000000E+00  0.00000000000E+00  0.45593999997E+02  0.45594000000E+02  0.51100000000E-03 0. -1.
         11   -1    0    0    0    0 -0.00000000000E+00 -0.00000000000E+00 -0.45593999997E+02  0.45594000000E+02  0.51100000000E-03 0.  1.
    9900012    2    1    2    0    0 -0.17170222814E+02  0.26361330411E+02 -0.51948665975E+01  0.59301906926E+02  0.49999932336E+02 0.  0.
         12    1    1    2    0    0  0.17170222814E+02 -0.26361330411E+02  0.51948665975E+01  0.31886093074E+02  0.00000000000E+00 0. -1.
         11    1    3    3    0    0  0.90691198068E+01 -0.64760361206E+01  0.23776808098E+01  0.11394794610E+02  0.51100000000E-03 0. -1.
        -11    1    3    3    0    0 -0.21786747227E+02  0.35686302664E+02 -0.52722622050E+01  0.42142274519E+02  0.51100000000E-03 0.  1.
        -12    1    3    3    0    0 -0.44525953938E+01 -0.28489361325E+01 -0.23002852022E+01  0.57648377982E+01  0.00000000000E+00 0.  1.
</event>
<event>
 7    1  0.7674040E-012  0.5930193E+02  0.7816164E-02  0.1266605E+00
        -11   -1    0    0    0    0  0.00000000000E+00  0.00000000000E+00  0.45593999997E+02  0.45594000000E+02  0.51100000000E-03 0. -1.
         11   -1    0    0    0    0 -0.00000000000E+00 -0.00000000000E+00 -0.45593999997E+02  0.45594000000E+02  0.51100000000E-03 0.  1.
    9900012    2    1    2    0    0 -0.90950226296E+01  0.13045385581E+02 -0.27637294243E+02  0.59301928517E+02  0.49999971712E+02 0.  0.
         12    1    1    2    0    0  0.90950226296E+01 -0.13045385581E+02  0.27637294243E+02  0.31886071483E+02  0.00000000000E+00 0. -1.
         11    1    3    3    0    0 -0.17636806371E+02 -0.36602973719E+01 -0.81102392520E+00  0.18030875627E+02  0.51100000000E-03 0. -1.
        -11    1    3    3    0    0 -0.14263228211E+01  0.20584586321E+02 -0.16760409413E+02  0.26583282618E+02  0.51100000000E-03 0.  1.
        -12    1    3    3    0    0  0.99681065627E+01 -0.38789033683E+01 -0.10065860904E+02  0.14687770271E+02  0.00000000000E+00 0.  1.
</event>
<event>
 7    1  0.7674040E-012  0.5930173E+02  0.7816164E-02  0.1266606E+00
        -11   -1    0    0    0    0  0.00000000000E+00  0.00000000000E+00  0.45593999997E+02  0.45594000000E+02  0.51100000000E-03 0.  1.
         11   -1    0    0    0    0 -0.00000000000E+00 -0.00000000000E+00 -0.45593999997E+02  0.45594000000E+02  0.51100000000E-03 0. -1.
    9900012    2    1    2    0    0 -0.63865608842E+01 -0.55910814263E+01  0.30735744314E+02  0.59301728189E+02  0.49999606361E+02 0.  0.
         12    1    1    2    0    0  0.63865608842E+01  0.55910814263E+01 -0.30735744314E+02  0.31886271811E+02  0.00000000000E+00 0. -1.
         11    1    3    3    0    0  0.11803591894E+01  0.16630155992E+01 -0.23178325639E+01  0.30872668745E+01  0.51100000000E-03 0. -1.
        -11    1    3    3    0    0 -0.24763352024E+02 -0.11240263985E+02  0.15415230756E+02  0.31260141993E+02  0.51100000000E-03 0.  1.
        -12    1    3    3    0    0  0.17196431951E+02  0.39861669597E+01  0.17638346123E+02  0.24954319321E+02  0.00000000000E+00 0.  1.
</event>
<event>
 7    1  0.7674040E-012  0.5930191E+02  0.7816164E-02  0.1266605E+00
        -11   -1    0    0    0    0  0.00000000000E+00  0.00000000000E+00  0.45593999997E+02  0.45594000000E+02  0.51100000000E-03 0.  1.
         11   -1    0    0    0    0 -0.00000000000E+00 -0.00000000000E+00 -0.45593999997E+02  0.45594000000E+02  0.51100000000E-03 0. -1.
    9900012    2    1    2    0    0 -0.54260252236E+01 -0.33866731015E+01  0.31237983907E+02  0.59301906746E+02  0.49999932007E+02 0.  0.
         12    1    1    2    0    0  0.54260252236E+01  0.33866731015E+01 -0.31237983907E+02  0.31886093254E+02  0.00000000000E+00 0. -1.
         11    1    3    3    0    0 -0.16588765363E+02  0.81600974879E+01  0.34759785551E-01  0.18487172196E+02  0.51100000000E-03 0. -1.
        -11    1    3    3    0    0  0.13897477096E+02 -0.13347902447E+02  0.15375499867E+02  0.24651822768E+02  0.51100000000E-03 0.  1.
         12    1    3    3    0    0 -0.27347369566E+01  0.18011318576E+01  0.15827724255E+02  0.16162911782E+02  0.00000000000E+00 0. -1.
</event>
<event>
 7    1  0.7674040E-012  0.5930182E+02  0.7816164E-02  0.1266605E+00
        -11   -1    0    0    0    0  0.00000000000E+00  0.00000000000E+00  0.45593999997E+02  0.45594000000E+02  0.51100000000E-03 0.  1.
         11   -1    0    0    0    0 -0.00000000000E+00 -0.00000000000E+00 -0.45593999997E+02  0.45594000000E+02  0.51100000000E-03 0. -1.
    9900012    2    1    2    0    0  0.12410192375E+02 -0.15937454796E+02  0.24672109614E+02  0.59301822228E+02  0.49999777865E+02 0.  0.
         12    1    1    2    0    0 -0.12410192375E+02  0.15937454796E+02 -0.24672109614E+02  0.31886177772E+02  0.00000000000E+00 0. -1.
         11    1    3    3    0    0  0.50083418038E+01  0.97098447102E+00 -0.13017084352E+02  0.13981086645E+02  0.51100000000E-03 0. -1.
        -11    1    3    3    0    0  0.33750619622E+00  0.69866473780E+00  0.17863626259E+02  0.17880469407E+02  0.51100000000E-03 0.  1.
         12    1    3    3    0    0  0.70643443747E+01 -0.17607104005E+02  0.19825567707E+02  0.27440266176E+02  0.00000000000E+00 0. -1.
</event>
<event>
 7    1  0.7674040E-012  0.5930192E+02  0.7816164E-02  0.1266605E+00
        -11   -1    0    0    0    0  0.00000000000E+00  0.00000000000E+00  0.45593999997E+02  0.45594000000E+02  0.51100000000E-03 0.  1.
         11   -1    0    0    0    0 -0.00000000000E+00 -0.00000000000E+00 -0.45593999997E+02  0.45594000000E+02  0.51100000000E-03 0. -1.
    9900012    2    1    2    0    0 -0.22565317528E+02  0.79790646470E+01  0.21068063319E+02  0.59301916518E+02  0.49999949829E+02 0.  0.
         12    1    1    2    0    0  0.22565317528E+02 -0.79790646470E+01 -0.21068063319E+02  0.31886083482E+02  0.00000000000E+00 0. -1.
         11    1    3    3    0    0  0.17128007561E+01  0.96358632905E+01  0.70145225438E+01  0.12041057867E+02  0.51100000000E-03 0. -1.
        -11    1    3    3    0    0 -0.20380299424E+02 -0.49893955392E+01 -0.95883360071E+01  0.23069175540E+02  0.51100000000E-03 0.  1.
        -12    1    3    3    0    0 -0.38978188602E+01  0.33325968957E+01  0.23641876783E+02  0.24191683111E+02  0.00000000000E+00 0.  1.
</event>
<event>
 7    1  0.7674040E-012  0.5930197E+02  0.7816164E-02  0.1266605E+00
        -11   -1    0    0    0    0  0.00000000000E+00  0.00000000000E+00  0.45593999997E+02  0.45594000000E+02  0.51100000000E-03 0.  1.
         11   -1    0    0    0    0 -0.00000000000E+00 -0.00000000000E+00 -0.45593999997E+02  0.45594000000E+02  0.51100000000E-03 0. -1.
    9900012    2    1    2    0    0 -0.11923254519E+02  0.20906993740E+02  0.20915367804E+02  0.59301968639E+02  0.50000044885E+02 0.  0.
         12    1    1    2    0    0  0.11923254519E+02 -0.20906993740E+02 -0.20915367804E+02  0.31886031361E+02  0.00000000000E+00 0. -1.
         11    1    3    3    0    0  0.47312725858E+00 -0.34777845733E+01  0.10921938033E+02  0.11472034065E+02  0.51100000000E-03 0. -1.
        -11    1    3    3    0    0 -0.13775306787E+02  0.12213839970E+02 -0.12475604775E+02  0.22239102470E+02  0.51100000000E-03 0.  1.
        -12    1    3    3    0    0  0.13789250089E+01  0.12170938344E+02  0.22469034546E+02  0.25590832104E+02  0.00000000000E+00 0.  1.
</event>
<event>
 7    1  0.7674040E-012  0.5930194E+02  0.7816164E-02  0.1266605E+00
        -11   -1    0    0    0    0  0.00000000000E+00  0.00000000000E+00  0.45593999997E+02  0.45594000000E+02  0.51100000000E-03 0. -1.
         11   -1    0    0    0    0 -0.00000000000E+00 -0.00000000000E+00 -0.45593999997E+02  0.45594000000E+02  0.51100000000E-03 0.  1.
    9900012    2    1    2    0    0 -0.12023580387E+02 -0.28011464481E+02  0.93548051561E+01  0.59301937101E+02  0.49999987368E+02 0.  0.
         12    1    1    2    0    0  0.12023580387E+02  0.28011464481E+02 -0.93548051561E+01  0.31886062899E+02  0.00000000000E+00 0. -1.
         11    1    3    3    0    0  0.17617661854E+02 -0.10406565561E+02  0.13408399482E+02  0.24463519635E+02  0.51100000000E-03 0. -1.
        -11    1    3    3    0    0 -0.17192208749E+02 -0.99944796274E+01 -0.87641295588E+00  0.19905520958E+02  0.51100000000E-03 0.  1.
         12    1    3    3    0    0 -0.12449033491E+02 -0.76104192922E+01 -0.31771813700E+01  0.14932896508E+02  0.00000000000E+00 0. -1.
</event>
<event>
 7    1  0.7674040E-012  0.5930192E+02  0.7816164E-02  0.1266605E+00
        -11   -1    0    0    0    0  0.00000000000E+00  0.00000000000E+00  0.45593999997E+02  0.45594000000E+02  0.51100000000E-03 0. -1.
         11   -1    0    0    0    0 -0.00000000000E+00 -0.00000000000E+00 -0.45593999997E+02  0.45594000000E+02  0.51100000000E-03 0.  1.
    9900012    2    1    2    0    0  0.19355470419E+02  0.22226385116E+02 -0.12168637561E+02  0.59301918859E+02  0.49999954098E+02 0.  0.
         12    1    1    2    0    0 -0.19355470419E+02 -0.22226385116E+02  0.12168637561E+02  0.31886081141E+02  0.00000000000E+00 0. -1.
         11    1    3    3    0    0  0.13140315577E+02  0.32669845554E+02 -0.26938620706E+01  0.35316336094E+02  0.51100000000E-03 0. -1.
        -11    1    3    3    0    0 -0.22013363397E+01 -0.45739600588E+01 -0.12330601386E+02  0.13334568726E+02  0.51100000000E-03 0.  1.
         12    1    3    3    0    0  0.84164911817E+01 -0.58695003791E+01  0.28558258959E+01  0.10651014039E+02  0.00000000000E+00 0. -1.
</event>
<event>
 7    1  0.7674040E-012  0.5930192E+02  0.7816164E-02  0.1266605E+00
        -11   -1    0    0    0    0  0.00000000000E+00  0.00000000000E+00  0.45593999997E+02  0.45594000000E+02  0.51100000000E-03 0.  1.
         11   -1    0    0    0    0 -0.00000000000E+00 -0.00000000000E+00 -0.45593999997E+02  0.45594000000E+02  0.51100000000E-03 0. -1.
    9900012    2    1    2    0    0 -0.38111455798E+00  0.28924902531E+02  0.13413677734E+02  0.59301921767E+02  0.49999959402E+02 0.  0.
         12    1    1    2    0    0  0.38111455798E+00 -0.28924902531E+02 -0.13413677734E+02  0.31886078233E+02  0.00000000000E+00 0. -1.
         11    1    3    3    0    0 -0.90405413217E+01  0.30180488493E+01  0.25872010547E+02  0.27571741625E+02  0.51100000000E-03 0. -1.
        -11    1    3    3    0    0  0.22649382129E+01  0.20134279368E+02 -0.65874840649E+01  0.21305259851E+02  0.51100000000E-03 0.  1.
         12    1    3    3    0    0  0.63944885508E+01  0.57725743144E+01 -0.58708487483E+01  0.10424920291E+02  0.00000000000E+00 0. -1.
</event>
<event>
 7    1  0.7674040E-012  0.5930195E+02  0.7816164E-02  0.1266605E+00
        -11   -1    0    0    0    0  0.00000000000E+00  0.00000000000E+00  0.45593999997E+02  0.45594000000E+02  0.51100000000E-03 0.  1.
         11   -1    0    0    0    0 -0.00000000000E+00 -0.00000000000E+00 -0.45593999997E+02  0.45594000000E+02  0.51100000000E-03 0. -1.
    9900012    2    1    2    0    0  0.31863999803E+02  0.81266943992E+00 -0.86331123302E+00  0.59301949424E+02  0.50000009841E+02 0.  0.
         12    1    1    2    0    0 -0.31863999803E+02 -0.81266943992E+00  0.86331123302E+00  0.31886050576E+02  0.00000000000E+00 0. -1.
         11    1    3    3    0    0 -0.35107165979E+01  0.10561633550E+01 -0.65081304777E+01  0.74696970915E+01  0.51100000000E-03 0. -1.
        -11    1    3    3    0    0  0.79783477915E+01  0.24329828853E+01  0.19358165091E+02  0.21078709523E+02  0.51100000000E-03 0.  1.
        -12    1    3    3    0    0  0.27396368610E+02 -0.26764768004E+01 -0.13713345846E+02  0.30753542810E+02  0.00000000000E+00 0.  1.
</event>
<event>
 7    1  0.7674040E-012  0.5930195E+02  0.7816164E-02  0.1266605E+00
        -11   -1    0    0    0    0  0.00000000000E+00  0.00000000000E+00  0.45593999997E+02  0.45594000000E+02  0.51100000000E-03 0.  1.
         11   -1    0    0    0    0 -0.00000000000E+00 -0.00000000000E+00 -0.45593999997E+02  0.45594000000E+02  0.51100000000E-03 0. -1.
    9900012    2    1    2    0    0  0.15253169002E+01  0.27988947690E+02  0.15199088172E+02  0.59301951865E+02  0.50000014293E+02 0.  0.
         12    1    1    2    0    0 -0.15253169002E+01 -0.27988947690E+02 -0.15199088172E+02  0.31886048135E+02  0.00000000000E+00 0. -1.
         11    1    3    3    0    0  0.11928344553E+02  0.59311004308E+01  0.63145543221E+01  0.14742352344E+02  0.51100000000E-03 0. -1.
        -11    1    3    3    0    0 -0.51255098188E+01  0.28377745456E+02  0.16602015903E+02  0.33274528101E+02  0.51100000000E-03 0.  1.
        -12    1    3    3    0    0 -0.52775178336E+01 -0.63198981972E+01 -0.77174820530E+01  0.11285071420E+02  0.00000000000E+00 0.  1.
</event>
<event>
 7    1  0.7674040E-012  0.5930193E+02  0.7816164E-02  0.1266605E+00
        -11   -1    0    0    0    0  0.00000000000E+00  0.00000000000E+00  0.45593999997E+02  0.45594000000E+02  0.51100000000E-03 0. -1.
         11   -1    0    0    0    0 -0.00000000000E+00 -0.00000000000E+00 -0.45593999997E+02  0.45594000000E+02  0.51100000000E-03 0.  1.
    9900012    2    1    2    0    0 -0.25264514421E+02 -0.19452939744E+02  0.93093691893E-01  0.59301933763E+02  0.49999981280E+02 0.  0.
         12    1    1    2    0    0  0.25264514421E+02  0.19452939744E+02 -0.93093691893E-01  0.31886066237E+02  0.00000000000E+00 0. -1.
         11    1    3    3    0    0 -0.13248567671E+02 -0.68361347912E+01  0.17955602518E+02  0.23337972197E+02  0.51100000000E-03 0. -1.
        -11    1    3    3    0    0 -0.15549495116E+02 -0.35111397819E+01 -0.20383451388E+02  0.25876630222E+02  0.51100000000E-03 0.  1.
         12    1    3    3    0    0  0.35335483652E+01 -0.91056651706E+01  0.25209425614E+01  0.10087331344E+02  0.00000000000E+00 0. -1.
</event>
<event>
 7    1  0.7674040E-012  0.5930194E+02  0.7816164E-02  0.1266605E+00
        -11   -1    0    0    0    0  0.00000000000E+00  0.00000000000E+00  0.45593999997E+02  0.45594000000E+02  0.51100000000E-03 0. -1.
         11   -1    0    0    0    0 -0.00000000000E+00 -0.00000000000E+00 -0.45593999997E+02  0.45594000000E+02  0.51100000000E-03 0.  1.
    9900012    2    1    2    0    0  0.13320428500E+02 -0.28761420045E+02 -0.34738178876E+01  0.59301944911E+02  0.50000001610E+02 0.  0.
         12    1    1    2    0    0 -0.13320428500E+02  0.28761420045E+02  0.34738178876E+01  0.31886055089E+02  0.00000000000E+00 0. -1.
         11    1    3    3    0    0  0.47457907134E+01 -0.36523057586E+00 -0.16078974330E+02  0.16768701161E+02  0.51100000000E-03 0. -1.
        -11    1    3    3    0    0  0.15192129524E+02 -0.50630610184E+01  0.22862919098E+01  0.16175985822E+02  0.51100000000E-03 0.  1.
         12    1    3    3    0    0 -0.66174917376E+01 -0.23333128451E+02  0.10318864532E+02  0.26357257927E+02  0.00000000000E+00 0. -1.
</event>
<event>
 7    1  0.7674040E-012  0.5930193E+02  0.7816164E-02  0.1266605E+00
        -11   -1    0    0    0    0  0.00000000000E+00  0.00000000000E+00  0.45593999997E+02  0.45594000000E+02  0.51100000000E-03 0.  1.
         11   -1    0    0    0    0 -0.00000000000E+00 -0.00000000000E+00 -0.45593999997E+02  0.45594000000E+02  0.51100000000E-03 0. -1.
    9900012    2    1    2    0    0  0.31677341206E+02  0.36408404137E+01  0.10738802608E+00  0.59301934125E+02  0.49999981940E+02 0.  0.
         12    1    1    2    0    0 -0.31677341206E+02 -0.36408404137E+01 -0.10738802608E+00  0.31886065875E+02  0.00000000000E+00 0. -1.
         11    1    3    3    0    0  0.19658047994E+02 -0.17909105317E+02 -0.10489256314E+02  0.28586699748E+02  0.51100000000E-03 0. -1.
        -11    1    3    3    0    0  0.80971685656E+01  0.74156157750E+01 -0.22600079130E+01  0.11209956830E+02  0.51100000000E-03 0.  1.
         12    1    3    3    0    0  0.39221246466E+01  0.14134329956E+02  0.12856652253E+02  0.19505277547E+02  0.00000000000E+00 0. -1.
</event>
<event>
 7    1  0.7674040E-012  0.5930192E+02  0.7816164E-02  0.1266605E+00
        -11   -1    0    0    0    0  0.00000000000E+00  0.00000000000E+00  0.45593999997E+02  0.45594000000E+02  0.51100000000E-03 0.  1.
         11   -1    0    0    0    0 -0.00000000000E+00 -0.00000000000E+00 -0.45593999997E+02  0.45594000000E+02  0.51100000000E-03 0. -1.
    9900012    2    1    2    0    0 -0.41809122039E+01  0.83080043422E+01  0.30499495349E+02  0.59301918718E+02  0.49999953841E+02 0.  0.
         12    1    1    2    0    0  0.41809122039E+01 -0.83080043422E+01 -0.30499495349E+02  0.31886081282E+02  0.00000000000E+00 0. -1.
         11    1    3    3    0    0 -0.16480394848E+01  0.27403288226E+01  0.17180083594E+00  0.32023353958E+01  0.51100000000E-03 0. -1.
        -11    1    3    3    0    0 -0.13538652365E+02 -0.24957390921E+01  0.38020902320E+02  0.40436528474E+02  0.51100000000E-03 0.  1.
        -12    1    3    3    0    0  0.11005779646E+02  0.80634146117E+01 -0.76932078076E+01  0.15663054849E+02  0.00000000000E+00 0.  1.
</event>
<event>
 7    1  0.7674040E-012  0.5930195E+02  0.7816164E-02  0.1266605E+00
        -11   -1    0    0    0    0  0.00000000000E+00  0.00000000000E+00  0.45593999997E+02  0.45594000000E+02  0.51100000000E-03 0. -1.
         11   -1    0    0    0    0 -0.00000000000E+00 -0.00000000000E+00 -0.45593999997E+02  0.45594000000E+02  0.51100000000E-03 0.  1.
    9900012    2    1    2    0    0  0.21558561761E+02  0.16525944299E+02 -0.16698546473E+02  0.59301954862E+02  0.50000019760E+02 0.  0.
         12    1    1    2    0    0 -0.21558561761E+02 -0.16525944299E+02  0.16698546473E+02  0.31886045138E+02  0.00000000000E+00 0. -1.
         11    1    3    3    0    0  0.76918510804E+01 -0.10741518890E+01 -0.10271768019E+02  0.12877406331E+02  0.51100000000E-03 0. -1.
        -11    1    3    3    0    0  0.41052349047E+01  0.24810531237E+02  0.90769930662E+01  0.26735878838E+02  0.51100000000E-03 0.  1.
        -12    1    3    3    0    0  0.97614757760E+01 -0.72104350484E+01 -0.15503771520E+02  0.19688669693E+02  0.00000000000E+00 0.  1.
</event>
<event>
 7    1  0.7674040E-012  0.5930193E+02  0.7816164E-02  0.1266605E+00
        -11   -1    0    0    0    0  0.00000000000E+00  0.00000000000E+00  0.45593999997E+02  0.45594000000E+02  0.51100000000E-03 0.  1.
         11   -1    0    0    0    0 -0.00000000000E+00 -0.00000000000E+00 -0.45593999997E+02  0.45594000000E+02  0.51100000000E-03 0. -1.
    9900012    2    1    2    0    0  0.14488780711E+02  0.26005366730E+02  0.11424439162E+02  0.59301926623E+02  0.49999968258E+02 0.  0.
         12    1    1    2    0    0 -0.14488780711E+02 -0.26005366730E+02 -0.11424439162E+02  0.31886073377E+02  0.00000000000E+00 0. -1.
         11    1    3    3    0    0  0.88179332547E+01  0.34711560620E+01 -0.21376102702E+01  0.97146409723E+01  0.51100000000E-03 0. -1.
        -11    1    3    3    0    0 -0.17187466080E+02  0.16728789126E+02  0.86531597802E+01  0.25497814619E+02  0.51100000000E-03 0.  1.
        -12    1    3    3    0    0  0.22858313536E+02  0.58054215416E+01  0.49088896521E+01  0.24089471032E+02  0.00000000000E+00 0.  1.
</event>
<event>
 7    1  0.7674040E-012  0.5930194E+02  0.7816164E-02  0.1266605E+00
        -11   -1    0    0    0    0  0.00000000000E+00  0.00000000000E+00  0.45593999997E+02  0.45594000000E+02  0.51100000000E-03 0. -1.
         11   -1    0    0    0    0 -0.00000000000E+00 -0.00000000000E+00 -0.45593999997E+02  0.45594000000E+02  0.51100000000E-03 0.  1.
    9900012    2    1    2    0    0  0.26514075805E+02  0.17475390426E+02 -0.28871187795E+01  0.59301938136E+02  0.49999989255E+02 0.  0.
         12    1    1    2    0    0 -0.26514075805E+02 -0.17475390426E+02  0.28871187795E+01  0.31886061864E+02  0.00000000000E+00 0. -1.
         11    1    3    3    0    0 -0.14554249789E+01  0.55613134916E+01 -0.51468366921E+01  0.77159832696E+01  0.51100000000E-03 0. -1.
        -11    1    3    3    0    0  0.32091415827E+02  0.22794189793E+02  0.48671792685E+01  0.39662620846E+02  0.51100000000E-03 0.  1.
        -12    1    3    3    0    0 -0.41219150434E+01 -0.10880112858E+02 -0.26074613559E+01  0.11923334020E+02  0.00000000000E+00 0.  1.
</event>
<event>
 7    1  0.7674040E-012  0.5930195E+02  0.7816164E-02  0.1266605E+00
        -11   -1    0    0    0    0  0.00000000000E+00  0.00000000000E+00  0.45593999997E+02  0.45594000000E+02  0.51100000000E-03 0.  1.
         11   -1    0    0    0    0 -0.00000000000E+00 -0.00000000000E+00 -0.45593999997E+02  0.45594000000E+02  0.51100000000E-03 0. -1.
    9900012    2    1    2    0    0 -0.26980905572E+02 -0.15848944464E+02 -0.61287713807E+01  0.59301950625E+02  0.50000012032E+02 0.  0.
         12    1    1    2    0    0  0.26980905572E+02  0.15848944464E+02  0.61287713807E+01  0.31886049375E+02  0.00000000000E+00 0. -1.
         11    1    3    3    0    0 -0.24386563770E+02 -0.14592932981E+02 -0.62607552584E+01  0.29100777347E+02  0.51100000000E-03 0.  1.
        -11    1    3    3    0    0  0.16270404945E+01  0.10855043497E+02  0.93400708911E+01  0.14412361174E+02  0.51100000000E-03 0. -1.
         12    1    3    3    0    0 -0.42213822959E+01 -0.12111054981E+02 -0.92080870134E+01  0.15788812105E+02  0.00000000000E+00 0. -1.
</event>
<event>
 7    1  0.7674040E-012  0.5930195E+02  0.7816164E-02  0.1266605E+00
        -11   -1    0    0    0    0  0.00000000000E+00  0.00000000000E+00  0.45593999997E+02  0.45594000000E+02  0.51100000000E-03 0.  1.
         11   -1    0    0    0    0 -0.00000000000E+00 -0.00000000000E+00 -0.45593999997E+02  0.45594000000E+02  0.51100000000E-03 0. -1.
    9900012    2    1    2    0    0 -0.27107266961E+02 -0.16787974182E+02 -0.28282831448E+00  0.59301953034E+02  0.50000016426E+02 0.  0.
         12    1    1    2    0    0  0.27107266961E+02  0.16787974182E+02  0.28282831448E+00  0.31886046966E+02  0.00000000000E+00 0. -1.
         11    1    3    3    0    0 -0.17615676100E+02 -0.31969360079E+02  0.59786620154E+00  0.36506293603E+02  0.51100000000E-03 0. -1.
        -11    1    3    3    0    0 -0.60938838143E+01 -0.69337929164E+00 -0.21807926842E+01  0.65093818275E+01  0.51100000000E-03 0.  1.
         12    1    3    3    0    0 -0.33977070463E+01  0.15874765188E+02  0.13000981682E+01  0.16286277604E+02  0.00000000000E+00 0. -1.
</event>
<event>
 7    1  0.7674040E-012  0.5930193E+02  0.7816164E-02  0.1266605E+00
        -11   -1    0    0    0    0  0.00000000000E+00  0.00000000000E+00  0.45593999997E+02  0.45594000000E+02  0.51100000000E-03 0.  1.
         11   -1    0    0    0    0 -0.00000000000E+00 -0.00000000000E+00 -0.45593999997E+02  0.45594000000E+02  0.51100000000E-03 0. -1.
    9900012    2    1    2    0    0 -0.23208032254E+02  0.11270627568E+02  0.18737168064E+02  0.59301932919E+02  0.49999979740E+02 0.  0.
         12    1    1    2    0    0  0.23208032254E+02 -0.11270627568E+02 -0.18737168064E+02  0.31886067081E+02  0.00000000000E+00 0. -1.
         11    1    3    3    0    0  0.78311671653E+01  0.10285657596E+02 -0.10121046682E+02  0.16418206892E+02  0.51100000000E-03 0. -1.
        -11    1    3    3    0    0 -0.23847438675E+02  0.30724006856E+01  0.23902750383E+02  0.33904003503E+02  0.51100000000E-03 0.  1.
         12    1    3    3    0    0 -0.71917607435E+01 -0.20874307133E+01  0.49554643618E+01  0.89797225244E+01  0.00000000000E+00 0. -1.
</event>
<event>
 7    1  0.7674040E-012  0.5930197E+02  0.7816164E-02  0.1266605E+00
        -11   -1    0    0    0    0  0.00000000000E+00  0.00000000000E+00  0.45593999997E+02  0.45594000000E+02  0.51100000000E-03 0.  1.
         11   -1    0    0    0    0 -0.00000000000E+00 -0.00000000000E+00 -0.45593999997E+02  0.45594000000E+02  0.51100000000E-03 0. -1.
    9900012    2    1    2    0    0 -0.17744998537E+02 -0.14899174176E+02  0.21905450305E+02  0.59301966737E+02  0.50000041416E+02 0.  0.
         12    1    1    2    0    0  0.17744998537E+02  0.14899174176E+02 -0.21905450305E+02  0.31886033263E+02  0.00000000000E+00 0. -1.
         11    1    3    3    0    0 -0.24492117542E+01 -0.22480245560E+02  0.58714186865E+01  0.23363082766E+02  0.51100000000E-03 0. -1.
        -11    1    3    3    0    0 -0.11351601255E+00  0.15179070514E+02  0.79429840125E+01  0.17132077015E+02  0.51100000000E-03 0.  1.
        -12    1    3    3    0    0 -0.15182270771E+02 -0.75979991291E+01  0.80910476062E+01  0.18806806956E+02  0.00000000000E+00 0.  1.
</event>
<event>
 7    1  0.7674040E-012  0.5930195E+02  0.7816164E-02  0.1266605E+00
        -11   -1    0    0    0    0  0.00000000000E+00  0.00000000000E+00  0.45593999997E+02  0.45594000000E+02  0.51100000000E-03 0.  1.
         11   -1    0    0    0    0 -0.00000000000E+00 -0.00000000000E+00 -0.45593999997E+02  0.45594000000E+02  0.51100000000E-03 0. -1.
    9900012    2    1    2    0    0  0.10211053750E+02  0.24069005056E+02  0.18252055237E+02  0.59301950645E+02  0.50000012069E+02 0.  0.
         12    1    1    2    0    0 -0.10211053750E+02 -0.24069005056E+02 -0.18252055237E+02  0.31886049355E+02  0.00000000000E+00 0. -1.
         11    1    3    3    0    0  0.10569302833E+01 -0.66670044384E+01  0.44634277884E+01  0.80924803175E+01  0.51100000000E-03 0. -1.
        -11    1    3    3    0    0 -0.83408412364E+00  0.36394863786E+02  0.15566259893E+02  0.39592805580E+02  0.51100000000E-03 0.  1.
        -12    1    3    3    0    0  0.99882075902E+01 -0.56588542921E+01 -0.17776324442E+01  0.11616664748E+02  0.00000000000E+00 0.  1.
</event>
<event>
 7    1  0.7674040E-012  0.5930193E+02  0.7816164E-02  0.1266605E+00
        -11   -1    0    0    0    0  0.00000000000E+00  0.00000000000E+00  0.45593999997E+02  0.45594000000E+02  0.51100000000E-03 0.  1.
         11   -1    0    0    0    0 -0.00000000000E+00 -0.00000000000E+00 -0.45593999997E+02  0.45594000000E+02  0.51100000000E-03 0. -1.
    9900012    2    1    2    0    0 -0.95522158833E+01  0.25530153379E+02  0.16543509694E+02  0.59301932936E+02  0.49999979771E+02 0.  0.
         12    1    1    2    0    0  0.95522158833E+01 -0.25530153379E+02 -0.16543509694E+02  0.31886067064E+02  0.00000000000E+00 0. -1.
         11    1    3    3    0    0  0.79954534817E+01 -0.19327234422E+00  0.19767341772E+02  0.21323987234E+02  0.51100000000E-03 0. -1.
        -11    1    3    3    0    0 -0.84407876307E+01  0.13438261773E+02  0.91394869755E+01  0.18312946178E+02  0.51100000000E-03 0.  1.
         12    1    3    3    0    0 -0.91068817343E+01  0.12285163951E+02 -0.12363319054E+02  0.19664999523E+02  0.00000000000E+00 0. -1.
</event>
<event>
 7    1  0.7674040E-012  0.5930195E+02  0.7816164E-02  0.1266605E+00
        -11   -1    0    0    0    0  0.00000000000E+00  0.00000000000E+00  0.45593999997E+02  0.45594000000E+02  0.51100000000E-03 0.  1.
         11   -1    0    0    0    0 -0.00000000000E+00 -0.00000000000E+00 -0.45593999997E+02  0.45594000000E+02  0.51100000000E-03 0. -1.
    9900012    2    1    2    0    0  0.26377049011E+02  0.13382704606E+02  0.11911126365E+02  0.59301946177E+02  0.50000003920E+02 0.  0.
         12    1    1    2    0    0 -0.26377049011E+02 -0.13382704606E+02 -0.11911126365E+02  0.31886053823E+02  0.00000000000E+00 0. -1.
         11    1    3    3    0    0  0.13435533797E+01  0.51689725469E+01 -0.17535578540E+02  0.18330846349E+02  0.51100000000E-03 0. -1.
        -11    1    3    3    0    0  0.36200616673E+01 -0.24163243331E+01  0.65790475481E+01  0.78884305574E+01  0.51100000000E-03 0.  1.
         12    1    3    3    0    0  0.21413433964E+02  0.10630056392E+02  0.22867657357E+02  0.33082669270E+02  0.00000000000E+00 0. -1.
</event>
<event>
 7    1  0.7674040E-012  0.5930192E+02  0.7816164E-02  0.1266605E+00
        -11   -1    0    0    0    0  0.00000000000E+00  0.00000000000E+00  0.45593999997E+02  0.45594000000E+02  0.51100000000E-03 0.  1.
         11   -1    0    0    0    0 -0.00000000000E+00 -0.00000000000E+00 -0.45593999997E+02  0.45594000000E+02  0.51100000000E-03 0. -1.
    9900012    2    1    2    0    0 -0.12961802049E+02 -0.15187750690E+02  0.24860530662E+02  0.59301920464E+02  0.49999957026E+02 0.  0.
         12    1    1    2    0    0  0.12961802049E+02  0.15187750690E+02 -0.24860530662E+02  0.31886079536E+02  0.00000000000E+00 0. -1.
         11    1    3    3    0    0  0.53964258904E+01  0.13161541764E+02  0.24367029137E+01  0.14432086313E+02  0.51100000000E-03 0. -1.
        -11    1    3    3    0    0 -0.85939919554E+01 -0.22333869738E+02  0.57139960190E+01  0.24603011725E+02  0.51100000000E-03 0.  1.
        -12    1    3    3    0    0 -0.97642359837E+01 -0.60154227170E+01  0.16709831729E+02  0.20266822426E+02  0.00000000000E+00 0.  1.
</event>
<event>
 7    1  0.7674040E-012  0.5930194E+02  0.7816164E-02  0.1266605E+00
        -11   -1    0    0    0    0  0.00000000000E+00  0.00000000000E+00  0.45593999997E+02  0.45594000000E+02  0.51100000000E-03 0.  1.
         11   -1    0    0    0    0 -0.00000000000E+00 -0.00000000000E+00 -0.45593999997E+02  0.45594000000E+02  0.51100000000E-03 0. -1.
    9900012    2    1    2    0    0 -0.23476642938E+02 -0.20197206512E+02  0.75921717714E+01  0.59301937422E+02  0.49999987953E+02 0.  0.
         12    1    1    2    0    0  0.23476642938E+02  0.20197206512E+02 -0.75921717714E+01  0.31886062578E+02  0.00000000000E+00 0. -1.
         11    1    3    3    0    0 -0.35151915116E+02 -0.21761212425E+02 -0.30262988361E+01  0.41453178255E+02  0.51100000000E-03 0. -1.
        -11    1    3    3    0    0  0.97245219599E+00 -0.48084042269E+00  0.58584154281E+01  0.59580116125E+01  0.51100000000E-03 0.  1.
         12    1    3    3    0    0  0.10702819982E+02  0.20448463352E+01  0.47600551793E+01  0.11890747555E+02  0.00000000000E+00 0. -1.
</event>
<event>
 7    1  0.7674040E-012  0.5930193E+02  0.7816164E-02  0.1266605E+00
        -11   -1    0    0    0    0  0.00000000000E+00  0.00000000000E+00  0.45593999997E+02  0.45594000000E+02  0.51100000000E-03 0.  1.
         11   -1    0    0    0    0 -0.00000000000E+00 -0.00000000000E+00 -0.45593999997E+02  0.45594000000E+02  0.51100000000E-03 0. -1.
    9900012    2    1    2    0    0  0.69736089516E+01 -0.28468954406E+02  0.12554231710E+02  0.59301932187E+02  0.49999978405E+02 0.  0.
         12    1    1    2    0    0 -0.69736089516E+01  0.28468954406E+02 -0.12554231710E+02  0.31886067813E+02  0.00000000000E+00 0. -1.
         11    1    3    3    0    0 -0.10831154319E+02 -0.50853726435E+01  0.99465283222E+01  0.15559831128E+02  0.51100000000E-03 0. -1.
        -11    1    3    3    0    0  0.24508498546E+02 -0.24973781156E+02 -0.26270374129E+01  0.35089280016E+02  0.51100000000E-03 0.  1.
        -12    1    3    3    0    0 -0.67037352754E+01  0.15901993940E+01  0.52347408005E+01  0.86528210430E+01  0.00000000000E+00 0.  1.
</event>
<event>
 7    1  0.7674040E-012  0.5930193E+02  0.7816164E-02  0.1266605E+00
        -11   -1    0    0    0    0  0.00000000000E+00  0.00000000000E+00  0.45593999997E+02  0.45594000000E+02  0.51100000000E-03 0. -1.
         11   -1    0    0    0    0 -0.00000000000E+00 -0.00000000000E+00 -0.45593999997E+02  0.45594000000E+02  0.51100000000E-03 0.  1.
    9900012    2    1    2    0    0 -0.21056387067E+02 -0.78640267742E+01 -0.22616523895E+02  0.59301929271E+02  0.49999973087E+02 0.  0.
         12    1    1    2    0    0  0.21056387067E+02  0.78640267742E+01  0.22616523895E+02  0.31886070729E+02  0.00000000000E+00 0. -1.
         11    1    3    3    0    0 -0.30373149641E+02 -0.85824400146E+01 -0.22849675299E+02  0.38965294266E+02  0.51100000000E-03 0.  1.
        -11    1    3    3    0    0  0.10484950178E+02 -0.57330705373E+01  0.42082514716E+01  0.12669319584E+02  0.51100000000E-03 0. -1.
        -12    1    3    3    0    0 -0.11681876047E+01  0.64514837776E+01 -0.39751000677E+01  0.76673154207E+01  0.00000000000E+00 0.  1.
</event>
<event>
 7    1  0.7674040E-012  0.5930194E+02  0.7816164E-02  0.1266605E+00
        -11   -1    0    0    0    0  0.00000000000E+00  0.00000000000E+00  0.45593999997E+02  0.45594000000E+02  0.51100000000E-03 0. -1.
         11   -1    0    0    0    0 -0.00000000000E+00 -0.00000000000E+00 -0.45593999997E+02  0.45594000000E+02  0.51100000000E-03 0.  1.
    9900012    2    1    2    0    0  0.94626303692E+01 -0.92741678440E+01 -0.29002919750E+02  0.59301938519E+02  0.49999989954E+02 0.  0.
         12    1    1    2    0    0 -0.94626303692E+01  0.92741678440E+01  0.29002919750E+02  0.31886061481E+02  0.00000000000E+00 0. -1.
         11    1    3    3    0    0  0.72837028877E+01 -0.18872971232E+02 -0.34027684127E+02  0.39586925344E+02  0.51100000000E-03 0.  1.
        -11    1    3    3    0    0  0.36944116348E+01  0.12335955475E+02 -0.10106227284E+01  0.12916881720E+02  0.51100000000E-03 0. -1.
         12    1    3    3    0    0 -0.15154841533E+01 -0.27371520871E+01  0.60353871054E+01  0.67981314550E+01  0.00000000000E+00 0. -1.
</event>
<event>
 7    1  0.7674040E-012  0.5930195E+02  0.7816164E-02  0.1266605E+00
        -11   -1    0    0    0    0  0.00000000000E+00  0.00000000000E+00  0.45593999997E+02  0.45594000000E+02  0.51100000000E-03 0.  1.
         11   -1    0    0    0    0 -0.00000000000E+00 -0.00000000000E+00 -0.45593999997E+02  0.45594000000E+02  0.51100000000E-03 0. -1.
    9900012    2    1    2    0    0 -0.21547192030E+02  0.22450925728E+02  0.69566251260E+01  0.59301950016E+02  0.50000010921E+02 0.  0.
         12    1    1    2    0    0  0.21547192030E+02 -0.22450925728E+02 -0.69566251260E+01  0.31886049984E+02  0.00000000000E+00 0. -1.
         11    1    3    3    0    0 -0.13173846438E+02 -0.12332202446E+02  0.11886612174E+02  0.21608447338E+02  0.51100000000E-03 0. -1.
        -11    1    3    3    0    0 -0.10719432023E+02  0.23478376597E+02 -0.38888683944E+01  0.26101028489E+02  0.51100000000E-03 0.  1.
         12    1    3    3    0    0  0.23460864309E+01  0.11304751577E+02 -0.10411186532E+01  0.11592474189E+02  0.00000000000E+00 0. -1.
</event>
<event>
 7    1  0.7674040E-012  0.5930194E+02  0.7816164E-02  0.1266605E+00
        -11   -1    0    0    0    0  0.00000000000E+00  0.00000000000E+00  0.45593999997E+02  0.45594000000E+02  0.51100000000E-03 0. -1.
         11   -1    0    0    0    0 -0.00000000000E+00 -0.00000000000E+00 -0.45593999997E+02  0.45594000000E+02  0.51100000000E-03 0.  1.
    9900012    2    1    2    0    0 -0.25738769889E+01 -0.28172633232E+02 -0.14710497974E+02  0.59301939462E+02  0.49999991673E+02 0.  0.
         12    1    1    2    0    0  0.25738769889E+01  0.28172633232E+02  0.14710497974E+02  0.31886060538E+02  0.00000000000E+00 0. -1.
         11    1    3    3    0    0 -0.23999483305E+02 -0.12748527326E+02 -0.16155875516E+02  0.31615067006E+02  0.51100000000E-03 0. -1.
        -11    1    3    3    0    0  0.43416008831E+01  0.19948117125E+00 -0.82928029808E+00  0.44245900420E+01  0.51100000000E-03 0.  1.
         12    1    3    3    0    0  0.17084005433E+02 -0.15623587078E+02  0.22746578401E+01  0.23262282413E+02  0.00000000000E+00 0. -1.
</event>
<event>
 7    1  0.7674040E-012  0.5930193E+02  0.7816164E-02  0.1266605E+00
        -11   -1    0    0    0    0  0.00000000000E+00  0.00000000000E+00  0.45593999997E+02  0.45594000000E+02  0.51100000000E-03 0.  1.
         11   -1    0    0    0    0 -0.00000000000E+00 -0.00000000000E+00 -0.45593999997E+02  0.45594000000E+02  0.51100000000E-03 0. -1.
    9900012    2    1    2    0    0 -0.21108709003E+02 -0.21134891124E+02 -0.11156189246E+02  0.59301925029E+02  0.49999965350E+02 0.  0.
         12    1    1    2    0    0  0.21108709003E+02  0.21134891124E+02  0.11156189246E+02  0.31886074971E+02  0.00000000000E+00 0. -1.
         11    1    3    3    0    0 -0.93369073490E+01 -0.10154171686E+02  0.87870307708E+00  0.13822342813E+02  0.51100000000E-03 0.  1.
        -11    1    3    3    0    0  0.13960522867E+02 -0.55531522315E+01  0.28034705283E+01  0.15283754306E+02  0.51100000000E-03 0. -1.
        -12    1    3    3    0    0 -0.25732324521E+02 -0.54275672060E+01 -0.14838362851E+02  0.30195827910E+02  0.00000000000E+00 0.  1.
</event>
<event>
 7    1  0.7674040E-012  0.5930195E+02  0.7816164E-02  0.1266605E+00
        -11   -1    0    0    0    0  0.00000000000E+00  0.00000000000E+00  0.45593999997E+02  0.45594000000E+02  0.51100000000E-03 0.  1.
         11   -1    0    0    0    0 -0.00000000000E+00 -0.00000000000E+00 -0.45593999997E+02  0.45594000000E+02  0.51100000000E-03 0. -1.
    9900012    2    1    2    0    0  0.31488717843E+02 -0.35085012335E+01 -0.35876821473E+01  0.59301946693E+02  0.50000004860E+02 0.  0.
         12    1    1    2    0    0 -0.31488717843E+02  0.35085012335E+01  0.35876821473E+01  0.31886053307E+02  0.00000000000E+00 0. -1.
         11    1    3    3    0    0  0.51269651248E+00  0.75148888533E+01 -0.18158920974E+01  0.77481531065E+01  0.51100000000E-03 0. -1.
        -11    1    3    3    0    0  0.40202274554E+02 -0.83739681971E+01  0.22938853767E+01  0.41129164021E+02  0.51100000000E-03 0.  1.
        -12    1    3    3    0    0 -0.92262532234E+01 -0.26494218897E+01 -0.40656754266E+01  0.10424629565E+02  0.00000000000E+00 0.  1.
</event>
<event>
 7    1  0.7674040E-012  0.5930195E+02  0.7816164E-02  0.1266605E+00
        -11   -1    0    0    0    0  0.00000000000E+00  0.00000000000E+00  0.45593999997E+02  0.45594000000E+02  0.51100000000E-03 0. -1.
         11   -1    0    0    0    0 -0.00000000000E+00 -0.00000000000E+00 -0.45593999997E+02  0.45594000000E+02  0.51100000000E-03 0.  1.
    9900012    2    1    2    0    0 -0.22754772246E+02 -0.68715495540E+01  0.21253764577E+02  0.59301947219E+02  0.50000005820E+02 0.  0.
         12    1    1    2    0    0  0.22754772246E+02  0.68715495540E+01 -0.21253764577E+02  0.31886052781E+02  0.00000000000E+00 0. -1.
         11    1    3    3    0    0  0.37328243604E+00  0.50029797097E+01  0.14482811338E+02  0.15327131834E+02  0.51100000000E-03 0. -1.
        -11    1    3    3    0    0 -0.27794772875E+02 -0.13405938421E+02  0.15061747890E+02  0.34338387176E+02  0.51100000000E-03 0.  1.
        -12    1    3    3    0    0  0.46667181925E+01  0.15314091572E+01 -0.82907946503E+01  0.96364282091E+01  0.00000000000E+00 0.  1.
</event>
<event>
 7    1  0.7674040E-012  0.5930201E+02  0.7816164E-02  0.1266605E+00
        -11   -1    0    0    0    0  0.00000000000E+00  0.00000000000E+00  0.45593999997E+02  0.45594000000E+02  0.51100000000E-03 0.  1.
         11   -1    0    0    0    0 -0.00000000000E+00 -0.00000000000E+00 -0.45593999997E+02  0.45594000000E+02  0.51100000000E-03 0. -1.
    9900012    2    1    2    0    0 -0.11987522392E+02 -0.25861303017E+02  0.14290167405E+02  0.59302006660E+02  0.50000114225E+02 0.  0.
         12    1    1    2    0    0  0.11987522392E+02  0.25861303017E+02 -0.14290167405E+02  0.31885993340E+02  0.00000000000E+00 0. -1.
         11    1    3    3    0    0  0.49101635684E+00  0.56056260732E+01  0.56714595192E+01  0.79893425308E+01  0.51100000000E-03 0. -1.
        -11    1    3    3    0    0 -0.19922872908E+02 -0.33345381329E+02  0.14685751594E+02  0.41527179305E+02  0.51100000000E-03 0.  1.
        -12    1    3    3    0    0  0.74443341588E+01  0.18784522387E+01 -0.60670437081E+01  0.97854848238E+01  0.00000000000E+00 0.  1.
</event>
<event>
 7    1  0.7674040E-012  0.5930196E+02  0.7816164E-02  0.1266605E+00
        -11   -1    0    0    0    0  0.00000000000E+00  0.00000000000E+00  0.45593999997E+02  0.45594000000E+02  0.51100000000E-03 0. -1.
         11   -1    0    0    0    0 -0.00000000000E+00 -0.00000000000E+00 -0.45593999997E+02  0.45594000000E+02  0.51100000000E-03 0.  1.
    9900012    2    1    2    0    0  0.70355339891E+01 -0.29888779884E+02 -0.85954556038E+01  0.59301956681E+02  0.50000023077E+02 0.  0.
         12    1    1    2    0    0 -0.70355339891E+01  0.29888779884E+02  0.85954556038E+01  0.31886043319E+02  0.00000000000E+00 0. -1.
         11    1    3    3    0    0  0.11841113141E+02  0.71614850955E+00 -0.38023018756E+01  0.12457219952E+02  0.51100000000E-03 0. -1.
        -11    1    3    3    0    0 -0.18721572379E+02 -0.88285361811E+01 -0.32830690704E+01  0.20957549146E+02  0.51100000000E-03 0.  1.
        -12    1    3    3    0    0  0.13915993227E+02 -0.21776392213E+02 -0.15100846578E+01  0.25887187583E+02  0.00000000000E+00 0.  1.
</event>
<event>
 7    1  0.7674040E-012  0.5930193E+02  0.7816164E-02  0.1266605E+00
        -11   -1    0    0    0    0  0.00000000000E+00  0.00000000000E+00  0.45593999997E+02  0.45594000000E+02  0.51100000000E-03 0. -1.
         11   -1    0    0    0    0 -0.00000000000E+00 -0.00000000000E+00 -0.45593999997E+02  0.45594000000E+02  0.51100000000E-03 0.  1.
    9900012    2    1    2    0    0  0.13679505725E+02 -0.28060925279E+02  0.64944002183E+01  0.59301927200E+02  0.49999969310E+02 0.  0.
         12    1    1    2    0    0 -0.13679505725E+02  0.28060925279E+02 -0.64944002183E+01  0.31886072800E+02  0.00000000000E+00 0. -1.
         11    1    3    3    0    0  0.21018891696E+02 -0.20502293179E+02  0.10129943108E+02  0.31060482633E+02  0.51100000000E-03 0. -1.
        -11    1    3    3    0    0 -0.69009386916E+01 -0.31608438765E+01  0.10768416704E+02  0.13174698760E+02  0.51100000000E-03 0.  1.
         12    1    3    3    0    0 -0.43844727962E+00 -0.43977882234E+01 -0.14403959593E+02  0.15066745808E+02  0.00000000000E+00 0. -1.
</event>
<event>
 7    1  0.7674040E-012  0.5930194E+02  0.7816164E-02  0.1266605E+00
        -11   -1    0    0    0    0  0.00000000000E+00  0.00000000000E+00  0.45593999997E+02  0.45594000000E+02  0.51100000000E-03 0.  1.
         11   -1    0    0    0    0 -0.00000000000E+00 -0.00000000000E+00 -0.45593999997E+02  0.45594000000E+02  0.51100000000E-03 0. -1.
    9900012    2    1    2    0    0 -0.11032436945E+02 -0.26163993006E+02  0.14506945376E+02  0.59301942560E+02  0.49999997323E+02 0.  0.
         12    1    1    2    0    0  0.11032436945E+02  0.26163993006E+02 -0.14506945376E+02  0.31886057440E+02  0.00000000000E+00 0. -1.
         11    1    3    3    0    0  0.79314491685E+01 -0.34378248805E+01 -0.49085807613E+01  0.99408596798E+01  0.51100000000E-03 0. -1.
        -11    1    3    3    0    0 -0.80099470240E+01 -0.28415850118E+02  0.21913835384E+02  0.36767322050E+02  0.51100000000E-03 0.  1.
        -12    1    3    3    0    0 -0.10953939089E+02  0.56896819931E+01 -0.24983092462E+01  0.12593760830E+02  0.00000000000E+00 0.  1.
</event>
<event>
 7    1  0.7674040E-012  0.5930194E+02  0.7816164E-02  0.1266605E+00
        -11   -1    0    0    0    0  0.00000000000E+00  0.00000000000E+00  0.45593999997E+02  0.45594000000E+02  0.51100000000E-03 0.  1.
         11   -1    0    0    0    0 -0.00000000000E+00 -0.00000000000E+00 -0.45593999997E+02  0.45594000000E+02  0.51100000000E-03 0. -1.
    9900012    2    1    2    0    0 -0.98139405465E+01 -0.24738965433E+02  0.17561062791E+02  0.59301940882E+02  0.49999994263E+02 0.  0.
         12    1    1    2    0    0  0.98139405465E+01  0.24738965433E+02 -0.17561062791E+02  0.31886059118E+02  0.00000000000E+00 0. -1.
         11    1    3    3    0    0 -0.39641195413E+01  0.11368114073E+00  0.16672098826E+02  0.17137270689E+02  0.51100000000E-03 0.  1.
        -11    1    3    3    0    0  0.33214290994E+00 -0.31767647444E+02 -0.33901272644E+01  0.31949752835E+02  0.51100000000E-03 0. -1.
         12    1    3    3    0    0 -0.61819639151E+01  0.69150008706E+01  0.42790912288E+01  0.10214917358E+02  0.00000000000E+00 0. -1.
</event>
<event>
 7    1  0.7674040E-012  0.5930195E+02  0.7816164E-02  0.1266605E+00
        -11   -1    0    0    0    0  0.00000000000E+00  0.00000000000E+00  0.45593999997E+02  0.45594000000E+02  0.51100000000E-03 0. -1.
         11   -1    0    0    0    0 -0.00000000000E+00 -0.00000000000E+00 -0.45593999997E+02  0.45594000000E+02  0.51100000000E-03 0.  1.
    9900012    2    1    2    0    0  0.12331085561E+02  0.24091917591E+02 -0.16859544412E+02  0.59301946590E+02  0.50000004672E+02 0.  0.
         12    1    1    2    0    0 -0.12331085561E+02 -0.24091917591E+02  0.16859544412E+02  0.31886053410E+02  0.00000000000E+00 0. -1.
         11    1    3    3    0    0 -0.17889191710E+01 -0.35469869541E+01  0.55524863747E+01  0.68272581213E+01  0.51100000000E-03 0. -1.
        -11    1    3    3    0    0 -0.16713316739E+01  0.15011262317E+02 -0.27722055862E+02  0.31569664670E+02  0.51100000000E-03 0.  1.
        -12    1    3    3    0    0  0.15791336406E+02  0.12627642227E+02  0.53100250748E+01  0.20905023798E+02  0.00000000000E+00 0.  1.
</event>
<event>
 7    1  0.7674040E-012  0.5930194E+02  0.7816164E-02  0.1266605E+00
        -11   -1    0    0    0    0  0.00000000000E+00  0.00000000000E+00  0.45593999997E+02  0.45594000000E+02  0.51100000000E-03 0.  1.
         11   -1    0    0    0    0 -0.00000000000E+00 -0.00000000000E+00 -0.45593999997E+02  0.45594000000E+02  0.51100000000E-03 0. -1.
    9900012    2    1    2    0    0 -0.16601162444E+02  0.61334313650E+01  0.26523636197E+02  0.59301939537E+02  0.49999991809E+02 0.  0.
         12    1    1    2    0    0  0.16601162444E+02 -0.61334313650E+01 -0.26523636197E+02  0.31886060463E+02  0.00000000000E+00 0. -1.
         11    1    3    3    0    0  0.56473572118E+01  0.22581220781E+01 -0.91498787665E+01  0.10986903135E+02  0.51100000000E-03 0. -1.
        -11    1    3    3    0    0 -0.14334923576E+02  0.13344410028E+02  0.26435296953E+02  0.32899669271E+02  0.51100000000E-03 0.  1.
        -12    1    3    3    0    0 -0.79135960794E+01 -0.94691007409E+01  0.92382180106E+01  0.15415367130E+02  0.00000000000E+00 0.  1.
</event>
<event>
 7    1  0.7674040E-012  0.5930195E+02  0.7816164E-02  0.1266605E+00
        -11   -1    0    0    0    0  0.00000000000E+00  0.00000000000E+00  0.45593999997E+02  0.45594000000E+02  0.51100000000E-03 0.  1.
         11   -1    0    0    0    0 -0.00000000000E+00 -0.00000000000E+00 -0.45593999997E+02  0.45594000000E+02  0.51100000000E-03 0. -1.
    9900012    2    1    2    0    0  0.46223375698E+01 -0.17970041867E+02  0.25931288371E+02  0.59301950920E+02  0.50000012570E+02 0.  0.
         12    1    1    2    0    0 -0.46223375698E+01  0.17970041867E+02 -0.25931288371E+02  0.31886049080E+02  0.00000000000E+00 0. -1.
         11    1    3    3    0    0  0.18606333784E+02 -0.20171984530E+01 -0.41112658285E+00  0.18719876383E+02  0.51100000000E-03 0. -1.
        -11    1    3    3    0    0 -0.25281674735E+01 -0.83064188536E+01  0.25324054068E+02  0.26771177405E+02  0.51100000000E-03 0.  1.
         12    1    3    3    0    0 -0.11455828741E+02 -0.76464245604E+01  0.10183608858E+01  0.13810897132E+02  0.00000000000E+00 0. -1.
</event>
<event>
 7    1  0.7674040E-012  0.5930194E+02  0.7816164E-02  0.1266605E+00
        -11   -1    0    0    0    0  0.00000000000E+00  0.00000000000E+00  0.45593999997E+02  0.45594000000E+02  0.51100000000E-03 0.  1.
         11   -1    0    0    0    0 -0.00000000000E+00 -0.00000000000E+00 -0.45593999997E+02  0.45594000000E+02  0.51100000000E-03 0. -1.
    9900012    2    1    2    0    0 -0.58256922376E+00 -0.23188454770E+02  0.21878689185E+02  0.59301939378E+02  0.49999991520E+02 0.  0.
         12    1    1    2    0    0  0.58256922376E+00  0.23188454770E+02 -0.21878689185E+02  0.31886060622E+02  0.00000000000E+00 0. -1.
         11    1    3    3    0    0 -0.64476066006E+01  0.98244672596E+01  0.29604974797E+01  0.12118429494E+02  0.51100000000E-03 0. -1.
        -11    1    3    3    0    0 -0.22235089409E+01 -0.32941648041E+02  0.20607699614E+02  0.38920090587E+02  0.51100000000E-03 0.  1.
        -12    1    3    3    0    0  0.80885463177E+01 -0.71273988963E-01 -0.16895079081E+01  0.82634192975E+01  0.00000000000E+00 0.  1.
</event>
<event>
 7    1  0.7674040E-012  0.5930193E+02  0.7816164E-02  0.1266605E+00
        -11   -1    0    0    0    0  0.00000000000E+00  0.00000000000E+00  0.45593999997E+02  0.45594000000E+02  0.51100000000E-03 0. -1.
         11   -1    0    0    0    0 -0.00000000000E+00 -0.00000000000E+00 -0.45593999997E+02  0.45594000000E+02  0.51100000000E-03 0.  1.
    9900012    2    1    2    0    0  0.21129792859E+02  0.53734539319E+01 -0.23267555872E+02  0.59301932358E+02  0.49999978716E+02 0.  0.
         12    1    1    2    0    0 -0.21129792859E+02 -0.53734539319E+01  0.23267555872E+02  0.31886067642E+02  0.00000000000E+00 0. -1.
         11    1    3    3    0    0  0.26712664359E+02  0.81901500551E+01 -0.30061650601E+02  0.41040806915E+02  0.51100000000E-03 0. -1.
        -11    1    3    3    0    0 -0.13889557504E+01 -0.84023669207E+01 -0.84021191330E-03  0.85163941262E+01  0.51100000000E-03 0.  1.
         12    1    3    3    0    0 -0.41939157498E+01  0.55856707975E+01  0.67949349410E+01  0.97447313163E+01  0.00000000000E+00 0. -1.
</event>
<event>
 7    1  0.7674040E-012  0.5930194E+02  0.7816164E-02  0.1266605E+00
        -11   -1    0    0    0    0  0.00000000000E+00  0.00000000000E+00  0.45593999997E+02  0.45594000000E+02  0.51100000000E-03 0.  1.
         11   -1    0    0    0    0 -0.00000000000E+00 -0.00000000000E+00 -0.45593999997E+02  0.45594000000E+02  0.51100000000E-03 0. -1.
    9900012    2    1    2    0    0 -0.30565254592E+02  0.59236639754E+01  0.68844805941E+01  0.59301942605E+02  0.49999997405E+02 0.  0.
         12    1    1    2    0    0  0.30565254592E+02 -0.59236639754E+01 -0.68844805941E+01  0.31886057395E+02  0.00000000000E+00 0. -1.
         11    1    3    3    0    0  0.34578273220E+00  0.21983298504E+02  0.14193787343E+01  0.22031786470E+02  0.51100000000E-03 0. -1.
        -11    1    3    3    0    0 -0.22303607609E+01 -0.17217518362E+01  0.43538485401E+01  0.51860327689E+01  0.51100000000E-03 0.  1.
         12    1    3    3    0    0 -0.28680676563E+02 -0.14337882692E+02  0.11112533197E+01  0.32084123366E+02  0.00000000000E+00 0. -1.
</event>
<event>
 7    1  0.7674040E-012  0.5930194E+02  0.7816164E-02  0.1266605E+00
        -11   -1    0    0    0    0  0.00000000000E+00  0.00000000000E+00  0.45593999997E+02  0.45594000000E+02  0.51100000000E-03 0.  1.
         11   -1    0    0    0    0 -0.00000000000E+00 -0.00000000000E+00 -0.45593999997E+02  0.45594000000E+02  0.51100000000E-03 0. -1.
    9900012    2    1    2    0    0 -0.69583970990E-01 -0.16571285814E+02  0.27241669837E+02  0.59301938297E+02  0.49999989548E+02 0.  0.
         12    1    1    2    0    0  0.69583970990E-01  0.16571285814E+02 -0.27241669837E+02  0.31886061703E+02  0.00000000000E+00 0. -1.
         11    1    3    3    0    0 -0.22151888266E+01  0.21724295027E+01 -0.55035884433E+01  0.63179108490E+01  0.51100000000E-03 0. -1.
        -11    1    3    3    0    0  0.14829538785E+02  0.18775291790E+01  0.21757205294E+02  0.26397278627E+02  0.51100000000E-03 0.  1.
        -12    1    3    3    0    0 -0.12683933930E+02 -0.20621244495E+02  0.10988052986E+02  0.26586748821E+02  0.00000000000E+00 0.  1.
</event>
<event>
 7    1  0.7674040E-012  0.5930194E+02  0.7816164E-02  0.1266605E+00
        -11   -1    0    0    0    0  0.00000000000E+00  0.00000000000E+00  0.45593999997E+02  0.45594000000E+02  0.51100000000E-03 0. -1.
         11   -1    0    0    0    0 -0.00000000000E+00 -0.00000000000E+00 -0.45593999997E+02  0.45594000000E+02  0.51100000000E-03 0.  1.
    9900012    2    1    2    0    0 -0.25344676854E+02  0.15194978930E+02  0.11978334522E+02  0.59301944624E+02  0.50000001088E+02 0.  0.
         12    1    1    2    0    0  0.25344676854E+02 -0.15194978930E+02 -0.11978334522E+02  0.31886055376E+02  0.00000000000E+00 0. -1.
         11    1    3    3    0    0 -0.11129249757E+02  0.14826286924E+02  0.29705788590E+02  0.35015894393E+02  0.51100000000E-03 0. -1.
        -11    1    3    3    0    0 -0.11607725474E+02  0.37485034512E+01 -0.14410709924E+02  0.18880125254E+02  0.51100000000E-03 0.  1.
         12    1    3    3    0    0 -0.26077016225E+01 -0.33798114449E+01 -0.33167441437E+01  0.54059249782E+01  0.00000000000E+00 0. -1.
</event>
<event>
 7    1  0.7674040E-012  0.5930193E+02  0.7816164E-02  0.1266605E+00
        -11   -1    0    0    0    0  0.00000000000E+00  0.00000000000E+00  0.45593999997E+02  0.45594000000E+02  0.51100000000E-03 0.  1.
         11   -1    0    0    0    0 -0.00000000000E+00 -0.00000000000E+00 -0.45593999997E+02  0.45594000000E+02  0.51100000000E-03 0. -1.
    9900012    2    1    2    0    0 -0.15815924389E+01  0.27098218362E+01  0.31731320010E+02  0.59301933472E+02  0.49999980749E+02 0.  0.
         12    1    1    2    0    0  0.15815924389E+01 -0.27098218362E+01 -0.31731320010E+02  0.31886066528E+02  0.00000000000E+00 0. -1.
         11    1    3    3    0    0  0.43812456125E+01  0.20569468590E+01 -0.28944176523E+01  0.56395032853E+01  0.51100000000E-03 0. -1.
        -11    1    3    3    0    0 -0.20301434416E+02  0.11108358806E+02  0.17647970951E+02  0.29103174288E+02  0.51100000000E-03 0.  1.
        -12    1    3    3    0    0  0.14338596364E+02 -0.10455483829E+02  0.16977766711E+02  0.24559255899E+02  0.00000000000E+00 0.  1.
</event>
<event>
 7    1  0.7674040E-012  0.5930194E+02  0.7816164E-02  0.1266605E+00
        -11   -1    0    0    0    0  0.00000000000E+00  0.00000000000E+00  0.45593999997E+02  0.45594000000E+02  0.51100000000E-03 0.  1.
         11   -1    0    0    0    0 -0.00000000000E+00 -0.00000000000E+00 -0.45593999997E+02  0.45594000000E+02  0.51100000000E-03 0. -1.
    9900012    2    1    2    0    0 -0.13669739637E+02  0.20172907070E+02  0.20564848247E+02  0.59301938080E+02  0.49999989152E+02 0.  0.
         12    1    1    2    0    0  0.13669739637E+02 -0.20172907070E+02 -0.20564848247E+02  0.31886061920E+02  0.00000000000E+00 0. -1.
         11    1    3    3    0    0 -0.10185796904E+02  0.16452008490E+02 -0.23786191326E+00  0.19351372573E+02  0.51100000000E-03 0. -1.
        -11    1    3    3    0    0 -0.16494218574E+01 -0.36394626270E+01  0.28713733342E+02  0.28990425374E+02  0.51100000000E-03 0.  1.
        -12    1    3    3    0    0 -0.18345208752E+01  0.73603612066E+01 -0.79110231816E+01  0.10960140132E+02  0.00000000000E+00 0.  1.
</event>
<event>
 7    1  0.7674040E-012  0.5930196E+02  0.7816164E-02  0.1266605E+00
        -11   -1    0    0    0    0  0.00000000000E+00  0.00000000000E+00  0.45593999997E+02  0.45594000000E+02  0.51100000000E-03 0.  1.
         11   -1    0    0    0    0 -0.00000000000E+00 -0.00000000000E+00 -0.45593999997E+02  0.45594000000E+02  0.51100000000E-03 0. -1.
    9900012    2    1    2    0    0 -0.99159748491E+01  0.24455425195E+02  0.17897637123E+02  0.59301956136E+02  0.50000022083E+02 0.  0.
         12    1    1    2    0    0  0.99159748491E+01 -0.24455425195E+02 -0.17897637123E+02  0.31886043864E+02  0.00000000000E+00 0. -1.
         11    1    3    3    0    0 -0.22745659152E+02  0.96810505548E+01  0.92721698972E+00  0.24737572268E+02  0.51100000000E-03 0. -1.
        -11    1    3    3    0    0  0.16478956089E+02  0.28414131303E+01  0.13821326481E+02  0.21694669582E+02  0.51100000000E-03 0.  1.
        -12    1    3    3    0    0 -0.36492717852E+01  0.11932961510E+02  0.31490936523E+01  0.12869714286E+02  0.00000000000E+00 0.  1.
</event>
<event>
 7    1  0.7674040E-012  0.5930173E+02  0.7816164E-02  0.1266605E+00
        -11   -1    0    0    0    0  0.00000000000E+00  0.00000000000E+00  0.45593999997E+02  0.45594000000E+02  0.51100000000E-03 0.  1.
         11   -1    0    0    0    0 -0.00000000000E+00 -0.00000000000E+00 -0.45593999997E+02  0.45594000000E+02  0.51100000000E-03 0. -1.
    9900012    2    1    2    0    0  0.17574887896E+02 -0.15305664395E+02  0.21762215295E+02  0.59301732397E+02  0.49999614034E+02 0.  0.
         12    1    1    2    0    0 -0.17574887896E+02  0.15305664395E+02 -0.21762215295E+02  0.31886267603E+02  0.00000000000E+00 0. -1.
         11    1    3    3    0    0  0.59596676589E+01  0.43204641445E+01 -0.13015791652E+02  0.14953089367E+02  0.51100000000E-03 0. -1.
        -11    1    3    3    0    0  0.72834749792E+01 -0.20159853146E+02  0.21450903566E+02  0.30325071322E+02  0.51100000000E-03 0.  1.
         12    1    3    3    0    0  0.43317452578E+01  0.53372460638E+00  0.13327103380E+02  0.14023571708E+02  0.00000000000E+00 0. -1.
</event>
<event>
 7    1  0.7674040E-012  0.5930195E+02  0.7816164E-02  0.1266605E+00
        -11   -1    0    0    0    0  0.00000000000E+00  0.00000000000E+00  0.45593999997E+02  0.45594000000E+02  0.51100000000E-03 0.  1.
         11   -1    0    0    0    0 -0.00000000000E+00 -0.00000000000E+00 -0.45593999997E+02  0.45594000000E+02  0.51100000000E-03 0. -1.
    9900012    2    1    2    0    0  0.19560449516E+00  0.29305382086E+02  0.12564885596E+02  0.59301952418E+02  0.50000015302E+02 0.  0.
         12    1    1    2    0    0 -0.19560449516E+00 -0.29305382086E+02 -0.12564885596E+02  0.31886047582E+02  0.00000000000E+00 0. -1.
         11    1    3    3    0    0 -0.37277847348E+01  0.13889803967E+02 -0.14215465651E+02  0.20221337671E+02  0.51100000000E-03 0. -1.
        -11    1    3    3    0    0 -0.70276042660E+01  0.13370897053E+02  0.22597145312E+02  0.27180858821E+02  0.51100000000E-03 0.  1.
        -12    1    3    3    0    0  0.10950993496E+02  0.20446810664E+01  0.41832059347E+01  0.11899755926E+02  0.00000000000E+00 0.  1.
</event>
<event>
 7    1  0.7674040E-012  0.5930194E+02  0.7816164E-02  0.1266605E+00
        -11   -1    0    0    0    0  0.00000000000E+00  0.00000000000E+00  0.45593999997E+02  0.45594000000E+02  0.51100000000E-03 0. -1.
         11   -1    0    0    0    0 -0.00000000000E+00 -0.00000000000E+00 -0.45593999997E+02  0.45594000000E+02  0.51100000000E-03 0.  1.
    9900012    2    1    2    0    0  0.42635038540E+01 -0.30474611543E+02  0.83571151844E+01  0.59301940538E+02  0.49999993636E+02 0.  0.
         12    1    1    2    0    0 -0.42635038540E+01  0.30474611543E+02 -0.83571151844E+01  0.31886059462E+02  0.00000000000E+00 0. -1.
         11    1    3    3    0    0 -0.12751239316E+01  0.94156647908E+01  0.10727780386E+02  0.14330595130E+02  0.51100000000E-03 0. -1.
        -11    1    3    3    0    0 -0.17589791455E+01 -0.20987596552E+02 -0.10007062454E+02  0.23317686761E+02  0.51100000000E-03 0.  1.
         12    1    3    3    0    0  0.72976069311E+01 -0.18902679781E+02  0.76363972520E+01  0.21653658647E+02  0.00000000000E+00 0. -1.
</event>
<event>
 7    1  0.7674040E-012  0.5930195E+02  0.7816164E-02  0.1266605E+00
        -11   -1    0    0    0    0  0.00000000000E+00  0.00000000000E+00  0.45593999997E+02  0.45594000000E+02  0.51100000000E-03 0. -1.
         11   -1    0    0    0    0 -0.00000000000E+00 -0.00000000000E+00 -0.45593999997E+02  0.45594000000E+02  0.51100000000E-03 0.  1.
    9900012    2    1    2    0    0  0.24069451265E+02 -0.18155879409E+02 -0.10380078159E+02  0.59301945621E+02  0.50000002906E+02 0.  0.
         12    1    1    2    0    0 -0.24069451265E+02  0.18155879409E+02  0.10380078159E+02  0.31886054379E+02  0.00000000000E+00 0. -1.
         11    1    3    3    0    0 -0.47662444737E+01 -0.11443353964E+02  0.66061899274E+00  0.12413857339E+02  0.51100000000E-03 0. -1.
        -11    1    3    3    0    0  0.20668376075E+02  0.12344328546E+02 -0.10176905222E+02  0.26136824922E+02  0.51100000000E-03 0.  1.
        -12    1    3    3    0    0  0.81673196635E+01 -0.19056853991E+02 -0.86379192951E+00  0.20751263360E+02  0.00000000000E+00 0.  1.
</event>
<event>
 7    1  0.7674040E-012  0.5930195E+02  0.7816164E-02  0.1266605E+00
        -11   -1    0    0    0    0  0.00000000000E+00  0.00000000000E+00  0.45593999997E+02  0.45594000000E+02  0.51100000000E-03 0.  1.
         11   -1    0    0    0    0 -0.00000000000E+00 -0.00000000000E+00 -0.45593999997E+02  0.45594000000E+02  0.51100000000E-03 0. -1.
    9900012    2    1    2    0    0 -0.21561731009E+02 -0.32463027054E+00  0.23488433604E+02  0.59301950667E+02  0.50000012108E+02 0.  0.
         12    1    1    2    0    0  0.21561731009E+02  0.32463027054E+00 -0.23488433604E+02  0.31886049333E+02  0.00000000000E+00 0. -1.
         11    1    3    3    0    0 -0.14058991555E+01  0.16936108399E+02  0.37873518905E-02  0.16994361852E+02  0.51100000000E-03 0. -1.
        -11    1    3    3    0    0 -0.23488178294E+02 -0.17554240129E+02  0.14483687213E+02  0.32705092289E+02  0.51100000000E-03 0.  1.
        -12    1    3    3    0    0  0.33323464400E+01  0.29350145955E+00  0.90009590389E+01  0.96024965255E+01  0.00000000000E+00 0.  1.
</event>
<event>
 7    1  0.7674040E-012  0.5930193E+02  0.7816164E-02  0.1266605E+00
        -11   -1    0    0    0    0  0.00000000000E+00  0.00000000000E+00  0.45593999997E+02  0.45594000000E+02  0.51100000000E-03 0. -1.
         11   -1    0    0    0    0 -0.00000000000E+00 -0.00000000000E+00 -0.45593999997E+02  0.45594000000E+02  0.51100000000E-03 0.  1.
    9900012    2    1    2    0    0 -0.99207910230E+01  0.13428343886E+02 -0.27165765604E+02  0.59301931963E+02  0.49999977996E+02 0.  0.
         12    1    1    2    0    0  0.99207910230E+01 -0.13428343886E+02  0.27165765604E+02  0.31886068037E+02  0.00000000000E+00 0. -1.
         11    1    3    3    0    0 -0.15597780562E+02 -0.67307181447E+01 -0.19374184692E+02  0.25767273001E+02  0.51100000000E-03 0. -1.
        -11    1    3    3    0    0  0.13854611960E+02  0.19831550387E+02 -0.75663111858E+01  0.25347381099E+02  0.51100000000E-03 0.  1.
         12    1    3    3    0    0 -0.81776224216E+01  0.32751164292E+00 -0.22526972640E+00  0.81872778624E+01  0.00000000000E+00 0. -1.
</event>
<event>
 7    1  0.7674040E-012  0.5930194E+02  0.7816164E-02  0.1266605E+00
        -11   -1    0    0    0    0  0.00000000000E+00  0.00000000000E+00  0.45593999997E+02  0.45594000000E+02  0.51100000000E-03 0.  1.
         11   -1    0    0    0    0 -0.00000000000E+00 -0.00000000000E+00 -0.45593999997E+02  0.45594000000E+02  0.51100000000E-03 0. -1.
    9900012    2    1    2    0    0 -0.16852296414E+02 -0.16494798161E+02  0.21462584509E+02  0.59301940435E+02  0.49999993448E+02 0.  0.
         12    1    1    2    0    0  0.16852296414E+02  0.16494798161E+02 -0.21462584509E+02  0.31886059565E+02  0.00000000000E+00 0. -1.
         11    1    3    3    0    0  0.48672952368E+01 -0.20766406612E+02 -0.14341292292E+00  0.21329668868E+02  0.51100000000E-03 0.  1.
        -11    1    3    3    0    0 -0.21916786930E+01  0.88078766749E+01  0.13674141486E+02  0.16412321367E+02  0.51100000000E-03 0. -1.
        -12    1    3    3    0    0 -0.19527912957E+02 -0.45362682236E+01  0.79318559463E+01  0.21559950200E+02  0.00000000000E+00 0.  1.
</event>
<event>
 7    1  0.7674040E-012  0.5930197E+02  0.7816164E-02  0.1266605E+00
        -11   -1    0    0    0    0  0.00000000000E+00  0.00000000000E+00  0.45593999997E+02  0.45594000000E+02  0.51100000000E-03 0. -1.
         11   -1    0    0    0    0 -0.00000000000E+00 -0.00000000000E+00 -0.45593999997E+02  0.45594000000E+02  0.51100000000E-03 0.  1.
    9900012    2    1    2    0    0  0.10954561302E+01  0.31738594251E+02 -0.28601908851E+01  0.59301967305E+02  0.50000042452E+02 0.  0.
         12    1    1    2    0    0 -0.10954561302E+01 -0.31738594251E+02  0.28601908851E+01  0.31886032695E+02  0.00000000000E+00 0. -1.
         11    1    3    3    0    0  0.34663081706E+01  0.18890938385E+02 -0.94986641604E+01  0.21426793192E+02  0.51100000000E-03 0.  1.
        -11    1    3    3    0    0  0.72079648953E+01  0.96608273097E-01  0.17266026844E+02  0.18710418871E+02  0.51100000000E-03 0. -1.
         12    1    3    3    0    0 -0.95788169357E+01  0.12751047593E+02 -0.10627553569E+02  0.19164755241E+02  0.00000000000E+00 0. -1.
</event>
<event>
 7    1  0.7674040E-012  0.5930197E+02  0.7816164E-02  0.1266605E+00
        -11   -1    0    0    0    0  0.00000000000E+00  0.00000000000E+00  0.45593999997E+02  0.45594000000E+02  0.51100000000E-03 0.  1.
         11   -1    0    0    0    0 -0.00000000000E+00 -0.00000000000E+00 -0.45593999997E+02  0.45594000000E+02  0.51100000000E-03 0. -1.
    9900012    2    1    2    0    0 -0.70845768283E+01  0.22292646662E+02  0.21669457870E+02  0.59301972834E+02  0.50000052536E+02 0.  0.
         12    1    1    2    0    0  0.70845768283E+01 -0.22292646662E+02 -0.21669457870E+02  0.31886027166E+02  0.00000000000E+00 0. -1.
         11    1    3    3    0    0 -0.15864395270E+02 -0.79860287793E+01  0.55781838879E+01  0.18616439742E+02  0.51100000000E-03 0. -1.
        -11    1    3    3    0    0  0.96816896807E+00  0.24218021574E+02  0.32125998794E+01  0.24449350060E+02  0.51100000000E-03 0.  1.
         12    1    3    3    0    0  0.78116494733E+01  0.60606538670E+01  0.12878674103E+02  0.16236183032E+02  0.00000000000E+00 0. -1.
</event>
<event>
 7    1  0.7674040E-012  0.5930191E+02  0.7816164E-02  0.1266605E+00
        -11   -1    0    0    0    0  0.00000000000E+00  0.00000000000E+00  0.45593999997E+02  0.45594000000E+02  0.51100000000E-03 0.  1.
         11   -1    0    0    0    0 -0.00000000000E+00 -0.00000000000E+00 -0.45593999997E+02  0.45594000000E+02  0.51100000000E-03 0. -1.
    9900012    2    1    2    0    0  0.21931973936E+02 -0.21711058570E+02 -0.80213043605E+01  0.59301907913E+02  0.49999934135E+02 0.  0.
         12    1    1    2    0    0 -0.21931973936E+02  0.21711058570E+02  0.80213043605E+01  0.31886092087E+02  0.00000000000E+00 0. -1.
         11    1    3    3    0    0 -0.62532828938E+01 -0.24307624327E+02  0.48599040590E+00  0.25103791233E+02  0.51100000000E-03 0. -1.
        -11    1    3    3    0    0  0.41160435762E+01  0.43410382670E+01  0.38217557686E+01  0.70987495640E+01  0.51100000000E-03 0.  1.
         12    1    3    3    0    0  0.24069213253E+02 -0.17444725104E+01 -0.12329050535E+02  0.27099367116E+02  0.00000000000E+00 0. -1.
</event>
<event>
 7    1  0.7674040E-012  0.5930195E+02  0.7816164E-02  0.1266605E+00
        -11   -1    0    0    0    0  0.00000000000E+00  0.00000000000E+00  0.45593999997E+02  0.45594000000E+02  0.51100000000E-03 0.  1.
         11   -1    0    0    0    0 -0.00000000000E+00 -0.00000000000E+00 -0.45593999997E+02  0.45594000000E+02  0.51100000000E-03 0. -1.
    9900012    2    1    2    0    0 -0.90630576154E+01 -0.24602702544E+02  0.18146306343E+02  0.59301946313E+02  0.50000004168E+02 0.  0.
         12    1    1    2    0    0  0.90630576154E+01  0.24602702544E+02 -0.18146306343E+02  0.31886053687E+02  0.00000000000E+00 0. -1.
         11    1    3    3    0    0  0.95634439024E+01  0.59404386969E+01  0.12827858047E+02  0.17067577846E+02  0.51100000000E-03 0. -1.
        -11    1    3    3    0    0 -0.20565763329E+02 -0.14158711979E+02  0.23249740476E+00  0.24969457373E+02  0.51100000000E-03 0.  1.
         12    1    3    3    0    0  0.19392618112E+01 -0.16384429262E+02  0.50859508912E+01  0.17264911094E+02  0.00000000000E+00 0. -1.
</event>
<event>
 7    1  0.7674040E-012  0.5930190E+02  0.7816164E-02  0.1266605E+00
        -11   -1    0    0    0    0  0.00000000000E+00  0.00000000000E+00  0.45593999997E+02  0.45594000000E+02  0.51100000000E-03 0. -1.
         11   -1    0    0    0    0 -0.00000000000E+00 -0.00000000000E+00 -0.45593999997E+02  0.45594000000E+02  0.51100000000E-03 0.  1.
    9900012    2    1    2    0    0  0.19518964666E+02  0.89166385225E+01  0.23584466537E+02  0.59301898232E+02  0.49999916479E+02 0.  0.
         12    1    1    2    0    0 -0.19518964666E+02 -0.89166385225E+01 -0.23584466537E+02  0.31886101768E+02  0.00000000000E+00 0. -1.
         11    1    3    3    0    0  0.22066118979E+00  0.11279322231E+02  0.87942869689E+01  0.14304240102E+02  0.51100000000E-03 0. -1.
        -11    1    3    3    0    0  0.11605225986E+02 -0.19929458908E+02  0.56025481587E+01  0.23732954909E+02  0.51100000000E-03 0.  1.
        -12    1    3    3    0    0  0.76930774894E+01  0.17566775199E+02  0.91876314090E+01  0.21264703221E+02  0.00000000000E+00 0.  1.
</event>
<event>
 7    1  0.7674040E-012  0.5930197E+02  0.7816164E-02  0.1266605E+00
        -11   -1    0    0    0    0  0.00000000000E+00  0.00000000000E+00  0.45593999997E+02  0.45594000000E+02  0.51100000000E-03 0.  1.
         11   -1    0    0    0    0 -0.00000000000E+00 -0.00000000000E+00 -0.45593999997E+02  0.45594000000E+02  0.51100000000E-03 0. -1.
    9900012    2    1    2    0    0 -0.29532915060E+02  0.99138154784E+01  0.68001439278E+01  0.59301972234E+02  0.50000051441E+02 0.  0.
         12    1    1    2    0    0  0.29532915060E+02 -0.99138154784E+01 -0.68001439278E+01  0.31886027766E+02  0.00000000000E+00 0. -1.
         11    1    3    3    0    0 -0.49246363366E+01 -0.10675740146E+02 -0.10876386624E+02  0.16016218560E+02  0.51100000000E-03 0. -1.
        -11    1    3    3    0    0 -0.19000853792E+02  0.15500183139E+02  0.23321578933E+02  0.33840569829E+02  0.51100000000E-03 0.  1.
         12    1    3    3    0    0 -0.56074249312E+01  0.50893724848E+01 -0.56450483811E+01  0.94451838454E+01  0.00000000000E+00 0. -1.
</event>
<event>
 7    1  0.7674040E-012  0.5930194E+02  0.7816164E-02  0.1266605E+00
        -11   -1    0    0    0    0  0.00000000000E+00  0.00000000000E+00  0.45593999997E+02  0.45594000000E+02  0.51100000000E-03 0. -1.
         11   -1    0    0    0    0 -0.00000000000E+00 -0.00000000000E+00 -0.45593999997E+02  0.45594000000E+02  0.51100000000E-03 0.  1.
    9900012    2    1    2    0    0  0.13769061736E+02 -0.21546680606E+02  0.19049257607E+02  0.59301941580E+02  0.49999995536E+02 0.  0.
         12    1    1    2    0    0 -0.13769061736E+02  0.21546680606E+02 -0.19049257607E+02  0.31886058420E+02  0.00000000000E+00 0. -1.
         11    1    3    3    0    0 -0.58864758808E+01 -0.11195416504E+02  0.21371371714E+02  0.24833917898E+02  0.51100000000E-03 0. -1.
        -11    1    3    3    0    0 -0.18096415660E+01  0.55515466054E+01 -0.49094827875E+01  0.76287281909E+01  0.51100000000E-03 0.  1.
         12    1    3    3    0    0  0.21465179183E+02 -0.15902810707E+02  0.25873686801E+01  0.26839295490E+02  0.00000000000E+00 0. -1.
</event>
<event>
 7    1  0.7674040E-012  0.5930192E+02  0.7816164E-02  0.1266605E+00
        -11   -1    0    0    0    0  0.00000000000E+00  0.00000000000E+00  0.45593999997E+02  0.45594000000E+02  0.51100000000E-03 0. -1.
         11   -1    0    0    0    0 -0.00000000000E+00 -0.00000000000E+00 -0.45593999997E+02  0.45594000000E+02  0.51100000000E-03 0.  1.
    9900012    2    1    2    0    0 -0.13491400068E+02 -0.51897814042E+01 -0.28421297873E+02  0.59301923421E+02  0.49999962418E+02 0.  0.
         12    1    1    2    0    0  0.13491400068E+02  0.51897814042E+01  0.28421297873E+02  0.31886076579E+02  0.00000000000E+00 0. -1.
         11    1    3    3    0    0 -0.21268126194E+02  0.13443935563E+02 -0.86744214918E+01  0.26614247758E+02  0.51100000000E-03 0. -1.
        -11    1    3    3    0    0  0.45311243915E+01 -0.39189206737E+01 -0.16108141594E+02  0.17186077312E+02  0.51100000000E-03 0.  1.
         12    1    3    3    0    0  0.32456017346E+01 -0.14714796294E+02 -0.36387347872E+01  0.15501598351E+02  0.00000000000E+00 0. -1.
</event>
<event>
 7    1  0.7674040E-012  0.5930194E+02  0.7816164E-02  0.1266605E+00
        -11   -1    0    0    0    0  0.00000000000E+00  0.00000000000E+00  0.45593999997E+02  0.45594000000E+02  0.51100000000E-03 0.  1.
         11   -1    0    0    0    0 -0.00000000000E+00 -0.00000000000E+00 -0.45593999997E+02  0.45594000000E+02  0.51100000000E-03 0. -1.
    9900012    2    1    2    0    0  0.10115628658E+02 -0.11012397579E+02  0.28162425812E+02  0.59301936097E+02  0.49999985537E+02 0.  0.
         12    1    1    2    0    0 -0.10115628658E+02  0.11012397579E+02 -0.28162425812E+02  0.31886063903E+02  0.00000000000E+00 0. -1.
         11    1    3    3    0    0  0.15492836084E+02  0.76986920661E+01  0.19393710398E+02  0.25988725107E+02  0.51100000000E-03 0.  1.
        -11    1    3    3    0    0  0.65719951995E+01 -0.18813841425E+02  0.75128190882E+01  0.21297751078E+02  0.51100000000E-03 0. -1.
         12    1    3    3    0    0 -0.11949202625E+02  0.10275177993E+00  0.12558963260E+01  0.12015459912E+02  0.00000000000E+00 0. -1.
</event>
<event>
 7    1  0.7674040E-012  0.5930187E+02  0.7816164E-02  0.1266605E+00
        -11   -1    0    0    0    0  0.00000000000E+00  0.00000000000E+00  0.45593999997E+02  0.45594000000E+02  0.51100000000E-03 0. -1.
         11   -1    0    0    0    0 -0.00000000000E+00 -0.00000000000E+00 -0.45593999997E+02  0.45594000000E+02  0.51100000000E-03 0.  1.
    9900012    2    1    2    0    0 -0.15656243786E+01 -0.69233193630E+01 -0.31086040219E+02  0.59301867791E+02  0.49999860963E+02 0.  0.
         12    1    1    2    0    0  0.15656243786E+01  0.69233193630E+01  0.31086040219E+02  0.31886132209E+02  0.00000000000E+00 0. -1.
         11    1    3    3    0    0 -0.15653711240E+01 -0.20904407997E+02 -0.21299435075E+02  0.29884956002E+02  0.51100000000E-03 0. -1.
        -11    1    3    3    0    0  0.41221972294E+01  0.13888603699E+02 -0.16237310890E+02  0.21760884355E+02  0.51100000000E-03 0.  1.
         12    1    3    3    0    0 -0.41224504840E+01  0.92484934417E-01  0.64507057458E+01  0.76560274343E+01  0.00000000000E+00 0. -1.
</event>
<event>
 7    1  0.7674040E-012  0.5930196E+02  0.7816164E-02  0.1266605E+00
        -11   -1    0    0    0    0  0.00000000000E+00  0.00000000000E+00  0.45593999997E+02  0.45594000000E+02  0.51100000000E-03 0.  1.
         11   -1    0    0    0    0 -0.00000000000E+00 -0.00000000000E+00 -0.45593999997E+02  0.45594000000E+02  0.51100000000E-03 0. -1.
    9900012    2    1    2    0    0  0.27147761992E+02 -0.17294283087E+01 -0.16635124875E+02  0.59301964138E+02  0.50000036675E+02 0.  0.
         12    1    1    2    0    0 -0.27147761992E+02  0.17294283087E+01  0.16635124875E+02  0.31886035862E+02  0.00000000000E+00 0. -1.
         11    1    3    3    0    0  0.80391233689E+01  0.43098766510E+01 -0.32082351891E+02  0.33353858014E+02  0.51100000000E-03 0. -1.
        -11    1    3    3    0    0  0.14205923789E+01 -0.15903137337E+01  0.36471479597E+01  0.42247921819E+01  0.51100000000E-03 0.  1.
         12    1    3    3    0    0  0.17688046244E+02 -0.44489912260E+01  0.11800079057E+02  0.21723313942E+02  0.00000000000E+00 0. -1.
</event>
<event>
 7    1  0.7674040E-012  0.5930195E+02  0.7816164E-02  0.1266605E+00
        -11   -1    0    0    0    0  0.00000000000E+00  0.00000000000E+00  0.45593999997E+02  0.45594000000E+02  0.51100000000E-03 0.  1.
         11   -1    0    0    0    0 -0.00000000000E+00 -0.00000000000E+00 -0.45593999997E+02  0.45594000000E+02  0.51100000000E-03 0. -1.
    9900012    2    1    2    0    0 -0.23077421872E+02 -0.47827351769E+01  0.21477384347E+02  0.59301952983E+02  0.50000016332E+02 0.  0.
         12    1    1    2    0    0  0.23077421872E+02  0.47827351769E+01 -0.21477384347E+02  0.31886047017E+02  0.00000000000E+00 0. -1.
         11    1    3    3    0    0 -0.76079964223E+01  0.15419257464E+02  0.25239773612E+02  0.30539831083E+02  0.51100000000E-03 0.  1.
        -11    1    3    3    0    0 -0.13131475387E+02 -0.20550566931E+02 -0.64067886728E+01  0.25215241192E+02  0.51100000000E-03 0. -1.
        -12    1    3    3    0    0 -0.23379500624E+01  0.34857428931E+00  0.26443994073E+01  0.35468807077E+01  0.00000000000E+00 0.  1.
</event>
<event>
 7    1  0.7674040E-012  0.5930193E+02  0.7816164E-02  0.1266605E+00
        -11   -1    0    0    0    0  0.00000000000E+00  0.00000000000E+00  0.45593999997E+02  0.45594000000E+02  0.51100000000E-03 0.  1.
         11   -1    0    0    0    0 -0.00000000000E+00 -0.00000000000E+00 -0.45593999997E+02  0.45594000000E+02  0.51100000000E-03 0. -1.
    9900012    2    1    2    0    0  0.19441046811E+02  0.22035682574E+02  0.12377225599E+02  0.59301932178E+02  0.49999978390E+02 0.  0.
         12    1    1    2    0    0 -0.19441046811E+02 -0.22035682574E+02 -0.12377225599E+02  0.31886067822E+02  0.00000000000E+00 0. -1.
         11    1    3    3    0    0  0.20382879116E+00 -0.21966014503E+00 -0.23637724624E+01  0.23826911824E+01  0.51100000000E-03 0. -1.
        -11    1    3    3    0    0  0.22632028319E+02 -0.35701175324E+01  0.19921432267E+02  0.30361454328E+02  0.51100000000E-03 0.  1.
        -12    1    3    3    0    0 -0.33948102999E+01  0.25825460251E+02 -0.51804342059E+01  0.26557786668E+02  0.00000000000E+00 0.  1.
</event>
<event>
 7    1  0.7674040E-012  0.5930194E+02  0.7816164E-02  0.1266605E+00
        -11   -1    0    0    0    0  0.00000000000E+00  0.00000000000E+00  0.45593999997E+02  0.45594000000E+02  0.51100000000E-03 0.  1.
         11   -1    0    0    0    0 -0.00000000000E+00 -0.00000000000E+00 -0.45593999997E+02  0.45594000000E+02  0.51100000000E-03 0. -1.
    9900012    2    1    2    0    0 -0.10868154885E+02  0.11291807162E+02  0.27768673632E+02  0.59301938236E+02  0.49999989436E+02 0.  0.
         12    1    1    2    0    0  0.10868154885E+02 -0.11291807162E+02 -0.27768673632E+02  0.31886061764E+02  0.00000000000E+00 0. -1.
         11    1    3    3    0    0  0.24232358017E+01  0.83970382684E+01 -0.10778955336E+02  0.13876894531E+02  0.51100000000E-03 0. -1.
        -11    1    3    3    0    0  0.43818323494E+01 -0.30426545040E+01  0.98782335820E+01  0.11226651332E+02  0.51100000000E-03 0.  1.
         12    1    3    3    0    0 -0.17673223036E+02  0.59374233973E+01  0.28669395386E+02  0.34198392372E+02  0.00000000000E+00 0. -1.
</event>
<event>
 7    1  0.7674040E-012  0.5930177E+02  0.7816164E-02  0.1266605E+00
        -11   -1    0    0    0    0  0.00000000000E+00  0.00000000000E+00  0.45593999997E+02  0.45594000000E+02  0.51100000000E-03 0. -1.
         11   -1    0    0    0    0 -0.00000000000E+00 -0.00000000000E+00 -0.45593999997E+02  0.45594000000E+02  0.51100000000E-03 0.  1.
    9900012    2    1    2    0    0  0.42742471933E+01  0.27783049609E+02 -0.15052062790E+02  0.59301770545E+02  0.49999683607E+02 0.  0.
         12    1    1    2    0    0 -0.42742471933E+01 -0.27783049609E+02  0.15052062790E+02  0.31886229455E+02  0.00000000000E+00 0. -1.
         11    1    3    3    0    0  0.36485737717E+01 -0.13227530782E+02 -0.31992644622E+01  0.14089533509E+02  0.51100000000E-03 0. -1.
        -11    1    3    3    0    0  0.26565216874E+01  0.89335209787E+01 -0.89807264146E+01  0.12942888076E+02  0.51100000000E-03 0.  1.
         12    1    3    3    0    0 -0.20308482658E+01  0.32077059412E+02 -0.28720719134E+01  0.32269348959E+02  0.00000000000E+00 0. -1.
</event>
<event>
 7    1  0.7674040E-012  0.5930194E+02  0.7816164E-02  0.1266605E+00
        -11   -1    0    0    0    0  0.00000000000E+00  0.00000000000E+00  0.45593999997E+02  0.45594000000E+02  0.51100000000E-03 0.  1.
         11   -1    0    0    0    0 -0.00000000000E+00 -0.00000000000E+00 -0.45593999997E+02  0.45594000000E+02  0.51100000000E-03 0. -1.
    9900012    2    1    2    0    0 -0.21055995048E+02 -0.22979343503E+02  0.67316908068E+01  0.59301940093E+02  0.49999992824E+02 0.  0.
         12    1    1    2    0    0  0.21055995048E+02  0.22979343503E+02 -0.67316908068E+01  0.31886059907E+02  0.00000000000E+00 0. -1.
         11    1    3    3    0    0  0.77481943407E+01 -0.14295167926E+02  0.10721086926E+02  0.19476345825E+02  0.51100000000E-03 0.  1.
        -11    1    3    3    0    0 -0.83849609624E+01  0.49467740941E+01 -0.10607988361E+02  0.14398179107E+02  0.51100000000E-03 0. -1.
         12    1    3    3    0    0 -0.20419228426E+02 -0.13630949671E+02  0.66185922420E+01  0.25427415160E+02  0.00000000000E+00 0. -1.
</event>
<event>
 7    1  0.7674040E-012  0.5930194E+02  0.7816164E-02  0.1266605E+00
        -11   -1    0    0    0    0  0.00000000000E+00  0.00000000000E+00  0.45593999997E+02  0.45594000000E+02  0.51100000000E-03 0.  1.
         11   -1    0    0    0    0 -0.00000000000E+00 -0.00000000000E+00 -0.45593999997E+02  0.45594000000E+02  0.51100000000E-03 0. -1.
    9900012    2    1    2    0    0 -0.67540851680E+01  0.20637324667E+02  0.23349607801E+02  0.59301936895E+02  0.49999986992E+02 0.  0.
         12    1    1    2    0    0  0.67540851680E+01 -0.20637324667E+02 -0.23349607801E+02  0.31886063105E+02  0.00000000000E+00 0. -1.
         11    1    3    3    0    0  0.63904786389E+01 -0.80663921045E+01 -0.61723582242E+01  0.12000121046E+02  0.51100000000E-03 0. -1.
        -11    1    3    3    0    0 -0.12854490163E+02  0.12475861007E+02  0.24425332453E+02  0.30289963534E+02  0.51100000000E-03 0.  1.
        -12    1    3    3    0    0 -0.29007364435E+00  0.16227855764E+02  0.50966335722E+01  0.17011852315E+02  0.00000000000E+00 0.  1.
</event>
<event>
 7    1  0.7674040E-012  0.5930195E+02  0.7816164E-02  0.1266605E+00
        -11   -1    0    0    0    0  0.00000000000E+00  0.00000000000E+00  0.45593999997E+02  0.45594000000E+02  0.51100000000E-03 0.  1.
         11   -1    0    0    0    0 -0.00000000000E+00 -0.00000000000E+00 -0.45593999997E+02  0.45594000000E+02  0.51100000000E-03 0. -1.
    9900012    2    1    2    0    0  0.28114755960E+02 -0.80519398307E+01 -0.12706188171E+02  0.59301945751E+02  0.50000003144E+02 0.  0.
         12    1    1    2    0    0 -0.28114755960E+02  0.80519398307E+01  0.12706188171E+02  0.31886054249E+02  0.00000000000E+00 0. -1.
         11    1    3    3    0    0  0.32674200970E+01  0.36083759332E+01 -0.16847348232E+02  0.17536520569E+02  0.51100000000E-03 0. -1.
        -11    1    3    3    0    0  0.12855332872E+02 -0.28965843949E+01  0.17419551830E+02  0.21842403041E+02  0.51100000000E-03 0.  1.
         12    1    3    3    0    0  0.11992002991E+02 -0.87637313691E+01 -0.13278391769E+02  0.19923022141E+02  0.00000000000E+00 0. -1.
</event>
<event>
 7    1  0.7674040E-012  0.5930201E+02  0.7816164E-02  0.1266605E+00
        -11   -1    0    0    0    0  0.00000000000E+00  0.00000000000E+00  0.45593999997E+02  0.45594000000E+02  0.51100000000E-03 0.  1.
         11   -1    0    0    0    0 -0.00000000000E+00 -0.00000000000E+00 -0.45593999997E+02  0.45594000000E+02  0.51100000000E-03 0. -1.
    9900012    2    1    2    0    0 -0.85191881466E+01 -0.64213734082E+01  0.30048394362E+02  0.59302006102E+02  0.50000113208E+02 0.  0.
         12    1    1    2    0    0  0.85191881466E+01  0.64213734082E+01 -0.30048394362E+02  0.31885993898E+02  0.00000000000E+00 0. -1.
         11    1    3    3    0    0 -0.18388881648E+02 -0.15484415534E+02  0.88181021658E+01  0.25606191024E+02  0.51100000000E-03 0. -1.
        -11    1    3    3    0    0  0.40426310742E+01  0.13717027088E+02  0.38901132329E+01  0.14820009425E+02  0.51100000000E-03 0.  1.
        -12    1    3    3    0    0  0.58270624273E+01 -0.46539849618E+01  0.17340178963E+02  0.18875805653E+02  0.00000000000E+00 0.  1.
</event>
<event>
 7    1  0.7674040E-012  0.5930194E+02  0.7816164E-02  0.1266605E+00
        -11   -1    0    0    0    0  0.00000000000E+00  0.00000000000E+00  0.45593999997E+02  0.45594000000E+02  0.51100000000E-03 0.  1.
         11   -1    0    0    0    0 -0.00000000000E+00 -0.00000000000E+00 -0.45593999997E+02  0.45594000000E+02  0.51100000000E-03 0. -1.
    9900012    2    1    2    0    0  0.59080265229E+00  0.15516244998E+02  0.27849913235E+02  0.59301943897E+02  0.49999999761E+02 0.  0.
         12    1    1    2    0    0 -0.59080265229E+00 -0.15516244998E+02 -0.27849913235E+02  0.31886056103E+02  0.00000000000E+00 0. -1.
         11    1    3    3    0    0 -0.12251079616E+02 -0.60853416978E+00  0.91880081420E+00  0.12300547174E+02  0.51100000000E-03 0. -1.
        -11    1    3    3    0    0  0.22267561145E+02  0.17164011815E+02  0.15346892476E+02  0.32030839668E+02  0.51100000000E-03 0.  1.
         12    1    3    3    0    0 -0.94256788762E+01 -0.10392326471E+01  0.11584219945E+02  0.14970557054E+02  0.00000000000E+00 0. -1.
</event>
<event>
 7    1  0.7674040E-012  0.5930195E+02  0.7816164E-02  0.1266605E+00
        -11   -1    0    0    0    0  0.00000000000E+00  0.00000000000E+00  0.45593999997E+02  0.45594000000E+02  0.51100000000E-03 0.  1.
         11   -1    0    0    0    0 -0.00000000000E+00 -0.00000000000E+00 -0.45593999997E+02  0.45594000000E+02  0.51100000000E-03 0. -1.
    9900012    2    1    2    0    0 -0.31654712300E+02  0.35975122411E+01  0.13255331295E+01  0.59301953785E+02  0.50000017796E+02 0.  0.
         12    1    1    2    0    0  0.31654712300E+02 -0.35975122411E+01 -0.13255331295E+01  0.31886046215E+02  0.00000000000E+00 0. -1.
         11    1    3    3    0    0  0.32068272721E+01  0.92025268789E+01  0.52816732334E+01  0.11084507861E+02  0.51100000000E-03 0. -1.
        -11    1    3    3    0    0 -0.23117844954E+02 -0.18856192205E+02 -0.58813679979E+01  0.30406927329E+02  0.51100000000E-03 0.  1.
        -12    1    3    3    0    0 -0.11743694618E+02  0.13251177567E+02  0.19252278940E+01  0.17810518596E+02  0.00000000000E+00 0.  1.
</event>
<event>
 7    1  0.7674040E-012  0.5930193E+02  0.7816164E-02  0.1266605E+00
        -11   -1    0    0    0    0  0.00000000000E+00  0.00000000000E+00  0.45593999997E+02  0.45594000000E+02  0.51100000000E-03 0.  1.
         11   -1    0    0    0    0 -0.00000000000E+00 -0.00000000000E+00 -0.45593999997E+02  0.45594000000E+02  0.51100000000E-03 0. -1.
    9900012    2    1    2    0    0  0.18926184934E+02  0.51232086906E+01  0.25145049562E+02  0.59301933122E+02  0.49999980111E+02 0.  0.
         12    1    1    2    0    0 -0.18926184934E+02 -0.51232086906E+01 -0.25145049562E+02  0.31886066878E+02  0.00000000000E+00 0. -1.
         11    1    3    3    0    0  0.15780966513E+02 -0.54948268969E+01 -0.64823635446E+01  0.17923533806E+02  0.51100000000E-03 0. -1.
        -11    1    3    3    0    0  0.53372500595E+01  0.17445264144E+02  0.16333003165E+02  0.24486536543E+02  0.51100000000E-03 0.  1.
         12    1    3    3    0    0 -0.21920316390E+01 -0.68272285562E+01  0.15294409942E+02  0.16891862773E+02  0.00000000000E+00 0. -1.
</event>
<event>
 7    1  0.7674040E-012  0.5930196E+02  0.7816164E-02  0.1266605E+00
        -11   -1    0    0    0    0  0.00000000000E+00  0.00000000000E+00  0.45593999997E+02  0.45594000000E+02  0.51100000000E-03 0.  1.
         11   -1    0    0    0    0 -0.00000000000E+00 -0.00000000000E+00 -0.45593999997E+02  0.45594000000E+02  0.51100000000E-03 0. -1.
    9900012    2    1    2    0    0 -0.15549826753E+02  0.24188564958E+02 -0.13778088139E+02  0.59301960742E+02  0.50000030483E+02 0.  0.
         12    1    1    2    0    0  0.15549826753E+02 -0.24188564958E+02  0.13778088139E+02  0.31886039258E+02  0.00000000000E+00 0. -1.
         11    1    3    3    0    0  0.19316879528E+01  0.98052819714E+01 -0.87995106484E+01  0.13315643462E+02  0.51100000000E-03 0. -1.
        -11    1    3    3    0    0 -0.27717621341E+02  0.33352675958E+01  0.43732177936E+01  0.28258017921E+02  0.51100000000E-03 0.  1.
        -12    1    3    3    0    0  0.10236106635E+02  0.11048015391E+02 -0.93517952843E+01  0.17728299359E+02  0.00000000000E+00 0.  1.
</event>
<event>
 7    1  0.7674040E-012  0.5930188E+02  0.7816164E-02  0.1266605E+00
        -11   -1    0    0    0    0  0.00000000000E+00  0.00000000000E+00  0.45593999997E+02  0.45594000000E+02  0.51100000000E-03 0.  1.
         11   -1    0    0    0    0 -0.00000000000E+00 -0.00000000000E+00 -0.45593999997E+02  0.45594000000E+02  0.51100000000E-03 0. -1.
    9900012    2    1    2    0    0 -0.18746428995E+02  0.14752159046E+02  0.21158213976E+02  0.59301877388E+02  0.49999878465E+02 0.  0.
         12    1    1    2    0    0  0.18746428995E+02 -0.14752159046E+02 -0.21158213976E+02  0.31886122612E+02  0.00000000000E+00 0. -1.
         11    1    3    3    0    0 -0.30774306007E+02  0.65615420952E+01 -0.62492497471E+00  0.31472246128E+02  0.51100000000E-03 0. -1.
        -11    1    3    3    0    0  0.82094014784E+01  0.15169442344E+01  0.16527106349E+02  0.18515956280E+02  0.51100000000E-03 0.  1.
         12    1    3    3    0    0  0.38184755335E+01  0.66736727162E+01  0.52560326014E+01  0.93136749798E+01  0.00000000000E+00 0. -1.
</event>
<event>
 7    1  0.7674040E-012  0.5930204E+02  0.7816164E-02  0.1266604E+00
        -11   -1    0    0    0    0  0.00000000000E+00  0.00000000000E+00  0.45593999997E+02  0.45594000000E+02  0.51100000000E-03 0.  1.
         11   -1    0    0    0    0 -0.00000000000E+00 -0.00000000000E+00 -0.45593999997E+02  0.45594000000E+02  0.51100000000E-03 0. -1.
    9900012    2    1    2    0    0 -0.46070505800E+01  0.47061902909E+00  0.31547872830E+02  0.59302036358E+02  0.50000168388E+02 0.  0.
         12    1    1    2    0    0  0.46070505800E+01 -0.47061902909E+00 -0.31547872830E+02  0.31885963642E+02  0.00000000000E+00 0. -1.
         11    1    3    3    0    0 -0.15296414211E+02  0.79282604026E+01 -0.66560393107E+01  0.18469988097E+02  0.51100000000E-03 0. -1.
        -11    1    3    3    0    0  0.58845546917E+00 -0.35047733740E+01  0.10154684176E+02  0.10758593180E+02  0.51100000000E-03 0.  1.
         12    1    3    3    0    0  0.10100908162E+02 -0.39528679996E+01  0.28049227964E+02  0.30073455081E+02  0.00000000000E+00 0. -1.
</event>
<event>
 7    1  0.7674040E-012  0.5930196E+02  0.7816164E-02  0.1266605E+00
        -11   -1    0    0    0    0  0.00000000000E+00  0.00000000000E+00  0.45593999997E+02  0.45594000000E+02  0.51100000000E-03 0.  1.
         11   -1    0    0    0    0 -0.00000000000E+00 -0.00000000000E+00 -0.45593999997E+02  0.45594000000E+02  0.51100000000E-03 0. -1.
    9900012    2    1    2    0    0  0.26494605326E+02 -0.63957278911E+01  0.16548408632E+02  0.59301964264E+02  0.50000036907E+02 0.  0.
         12    1    1    2    0    0 -0.26494605326E+02  0.63957278911E+01 -0.16548408632E+02  0.31886035736E+02  0.00000000000E+00 0. -1.
         11    1    3    3    0    0  0.88023227912E+01  0.11088167139E+02 -0.13040694558E+02  0.19248066184E+02  0.51100000000E-03 0. -1.
        -11    1    3    3    0    0  0.90605845414E+01 -0.12667028144E+02  0.11222095938E+02  0.19195917059E+02  0.51100000000E-03 0.  1.
         12    1    3    3    0    0  0.86316979939E+01 -0.48168668859E+01  0.18367007253E+02  0.20857981021E+02  0.00000000000E+00 0. -1.
</event>
<event>
 7    1  0.7674040E-012  0.5930194E+02  0.7816164E-02  0.1266605E+00
        -11   -1    0    0    0    0  0.00000000000E+00  0.00000000000E+00  0.45593999997E+02  0.45594000000E+02  0.51100000000E-03 0. -1.
         11   -1    0    0    0    0 -0.00000000000E+00 -0.00000000000E+00 -0.45593999997E+02  0.45594000000E+02  0.51100000000E-03 0.  1.
    9900012    2    1    2    0    0  0.13096341680E+02 -0.23345716756E+01 -0.28978555627E+02  0.59301936013E+02  0.49999985384E+02 0.  0.
         12    1    1    2    0    0 -0.13096341680E+02  0.23345716756E+01  0.28978555627E+02  0.31886063987E+02  0.00000000000E+00 0. -1.
         11    1    3    3    0    0  0.31411470744E+01 -0.11058596055E+02 -0.10168089953E+02  0.15347618878E+02  0.51100000000E-03 0. -1.
        -11    1    3    3    0    0  0.10288263936E+02  0.18376273413E+02  0.18565751757E+01  0.21141964691E+02  0.51100000000E-03 0.  1.
        -12    1    3    3    0    0 -0.33306933015E+00 -0.96522490333E+01 -0.20667040850E+02  0.22812352445E+02  0.00000000000E+00 0.  1.
</event>
<event>
 7    1  0.7674040E-012  0.5930192E+02  0.7816164E-02  0.1266605E+00
        -11   -1    0    0    0    0  0.00000000000E+00  0.00000000000E+00  0.45593999997E+02  0.45594000000E+02  0.51100000000E-03 0. -1.
         11   -1    0    0    0    0 -0.00000000000E+00 -0.00000000000E+00 -0.45593999997E+02  0.45594000000E+02  0.51100000000E-03 0.  1.
    9900012    2    1    2    0    0 -0.10016039212E+02 -0.13144712806E+02 -0.27269346587E+02  0.59301924990E+02  0.49999965281E+02 0.  0.
         12    1    1    2    0    0  0.10016039212E+02  0.13144712806E+02  0.27269346587E+02  0.31886075010E+02  0.00000000000E+00 0. -1.
         11    1    3    3    0    0  0.36327374229E+01 -0.43490590117E+01  0.60833791412E+01  0.83137595291E+01  0.51100000000E-03 0. -1.
        -11    1    3    3    0    0 -0.36537455248E+01 -0.88428110498E+01 -0.38552037365E+02  0.39721590463E+02  0.51100000000E-03 0.  1.
        -12    1    3    3    0    0 -0.99950311102E+01  0.47157255437E-01  0.51993116372E+01  0.11266574999E+02  0.00000000000E+00 0.  1.
</event>
<event>
 7    1  0.7674040E-012  0.5930195E+02  0.7816164E-02  0.1266605E+00
        -11   -1    0    0    0    0  0.00000000000E+00  0.00000000000E+00  0.45593999997E+02  0.45594000000E+02  0.51100000000E-03 0.  1.
         11   -1    0    0    0    0 -0.00000000000E+00 -0.00000000000E+00 -0.45593999997E+02  0.45594000000E+02  0.51100000000E-03 0. -1.
    9900012    2    1    2    0    0  0.17516521360E+02 -0.11894484255E+02  0.23841413638E+02  0.59301948496E+02  0.50000008150E+02 0.  0.
         12    1    1    2    0    0 -0.17516521360E+02  0.11894484255E+02 -0.23841413638E+02  0.31886051504E+02  0.00000000000E+00 0. -1.
         11    1    3    3    0    0  0.46883563022E+01  0.16664960973E+02  0.62249980392E+01  0.18397070688E+02  0.51100000000E-03 0. -1.
        -11    1    3    3    0    0  0.15301813663E+02 -0.17085932279E+02  0.18008353460E+02  0.29161196439E+02  0.51100000000E-03 0.  1.
         12    1    3    3    0    0 -0.24736486051E+01 -0.11473512949E+02 -0.39193786102E+00  0.11743681369E+02  0.00000000000E+00 0. -1.
</event>
<event>
 7    1  0.7674040E-012  0.5930194E+02  0.7816164E-02  0.1266605E+00
        -11   -1    0    0    0    0  0.00000000000E+00  0.00000000000E+00  0.45593999997E+02  0.45594000000E+02  0.51100000000E-03 0. -1.
         11   -1    0    0    0    0 -0.00000000000E+00 -0.00000000000E+00 -0.45593999997E+02  0.45594000000E+02  0.51100000000E-03 0.  1.
    9900012    2    1    2    0    0 -0.14182032981E+02 -0.17144303036E+02  0.22839954130E+02  0.59301942064E+02  0.49999996418E+02 0.  0.
         12    1    1    2    0    0  0.14182032981E+02  0.17144303036E+02 -0.22839954130E+02  0.31886057936E+02  0.00000000000E+00 0. -1.
         11    1    3    3    0    0 -0.11522752375E+02  0.10109916475E+02  0.25208132420E+01  0.15535080724E+02  0.51100000000E-03 0. -1.
        -11    1    3    3    0    0 -0.40480804977E+00 -0.32020844478E+02  0.12587770736E+02  0.34408579206E+02  0.51100000000E-03 0.  1.
        -12    1    3    3    0    0 -0.22544725563E+01  0.47666249661E+01  0.77313701520E+01  0.93582821341E+01  0.00000000000E+00 0.  1.
</event>
<event>
 7    1  0.7674040E-012  0.5930193E+02  0.7816164E-02  0.1266605E+00
        -11   -1    0    0    0    0  0.00000000000E+00  0.00000000000E+00  0.45593999997E+02  0.45594000000E+02  0.51100000000E-03 0.  1.
         11   -1    0    0    0    0 -0.00000000000E+00 -0.00000000000E+00 -0.45593999997E+02  0.45594000000E+02  0.51100000000E-03 0. -1.
    9900012    2    1    2    0    0  0.24824844407E+02 -0.63626280897E+01  0.18972756336E+02  0.59301930643E+02  0.49999975590E+02 0.  0.
         12    1    1    2    0    0 -0.24824844407E+02  0.63626280897E+01 -0.18972756336E+02  0.31886069357E+02  0.00000000000E+00 0. -1.
         11    1    3    3    0    0 -0.63527740546E+01  0.15411517144E+02  0.53198154611E+01  0.17497800881E+02  0.51100000000E-03 0. -1.
        -11    1    3    3    0    0  0.13929054679E+02 -0.61510805578E+01  0.10075981172E+02  0.18258689797E+02  0.51100000000E-03 0.  1.
         12    1    3    3    0    0  0.17248563783E+02 -0.15623064676E+02  0.35769597030E+01  0.23545439965E+02  0.00000000000E+00 0. -1.
</event>
<event>
 7    1  0.7674040E-012  0.5930191E+02  0.7816164E-02  0.1266605E+00
        -11   -1    0    0    0    0  0.00000000000E+00  0.00000000000E+00  0.45593999997E+02  0.45594000000E+02  0.51100000000E-03 0. -1.
         11   -1    0    0    0    0 -0.00000000000E+00 -0.00000000000E+00 -0.45593999997E+02  0.45594000000E+02  0.51100000000E-03 0.  1.
    9900012    2    1    2    0    0 -0.24637772527E+02 -0.13240734083E+02 -0.15309668315E+02  0.59301908705E+02  0.49999935580E+02 0.  0.
         12    1    1    2    0    0  0.24637772527E+02  0.13240734083E+02  0.15309668315E+02  0.31886091295E+02  0.00000000000E+00 0. -1.
         11    1    3    3    0    0 -0.85096948758E+01  0.10775723055E+02  0.10569040823E+02  0.17327311922E+02  0.51100000000E-03 0. -1.
        -11    1    3    3    0    0 -0.13709082971E+02 -0.25660539347E+02 -0.19690540008E+02  0.35130038451E+02  0.51100000000E-03 0.  1.
         12    1    3    3    0    0 -0.24189946805E+01  0.16440822091E+01 -0.61881691305E+01  0.68445583322E+01  0.00000000000E+00 0. -1.
</event>
<event>
 7    1  0.7674040E-012  0.5930203E+02  0.7816164E-02  0.1266604E+00
        -11   -1    0    0    0    0  0.00000000000E+00  0.00000000000E+00  0.45593999997E+02  0.45594000000E+02  0.51100000000E-03 0.  1.
         11   -1    0    0    0    0 -0.00000000000E+00 -0.00000000000E+00 -0.45593999997E+02  0.45594000000E+02  0.51100000000E-03 0. -1.
    9900012    2    1    2    0    0  0.14209414016E+02 -0.13730522661E+02  0.25025591282E+02  0.59302032581E+02  0.50000161500E+02 0.  0.
         12    1    1    2    0    0 -0.14209414016E+02  0.13730522661E+02 -0.25025591282E+02  0.31885967419E+02  0.00000000000E+00 0. -1.
         11    1    3    3    0    0 -0.14391469096E+01  0.42873075265E+01  0.49253249044E+01  0.66866266030E+01  0.51100000000E-03 0. -1.
        -11    1    3    3    0    0  0.10196113773E+02 -0.15945456370E+01 -0.12195283420E+02  0.15975864603E+02  0.51100000000E-03 0.  1.
        -12    1    3    3    0    0  0.54524471526E+01 -0.16423284551E+02  0.32295549798E+02  0.36639541375E+02  0.00000000000E+00 0.  1.
</event>
<event>
 7    1  0.7674040E-012  0.5930199E+02  0.7816164E-02  0.1266605E+00
        -11   -1    0    0    0    0  0.00000000000E+00  0.00000000000E+00  0.45593999997E+02  0.45594000000E+02  0.51100000000E-03 0.  1.
         11   -1    0    0    0    0 -0.00000000000E+00 -0.00000000000E+00 -0.45593999997E+02  0.45594000000E+02  0.51100000000E-03 0. -1.
    9900012    2    1    2    0    0 -0.18774319526E+01  0.31405166999E+02  0.51873160329E+01  0.59301991899E+02  0.50000087305E+02 0.  0.
         12    1    1    2    0    0  0.18774319526E+01 -0.31405166999E+02 -0.51873160329E+01  0.31886008101E+02  0.00000000000E+00 0. -1.
         11    1    3    3    0    0  0.12967840820E+02  0.17828142467E+02 -0.75556498924E+01  0.23304407414E+02  0.51100000000E-03 0. -1.
        -11    1    3    3    0    0 -0.16088718944E+02  0.18418280812E+02  0.16707421658E+02  0.29617864272E+02  0.51100000000E-03 0.  1.
         12    1    3    3    0    0  0.12434461713E+01 -0.48412562791E+01 -0.39644557329E+01  0.63797202132E+01  0.00000000000E+00 0. -1.
</event>
<event>
 7    1  0.7674040E-012  0.5930200E+02  0.7816164E-02  0.1266605E+00
        -11   -1    0    0    0    0  0.00000000000E+00  0.00000000000E+00  0.45593999997E+02  0.45594000000E+02  0.51100000000E-03 0.  1.
         11   -1    0    0    0    0 -0.00000000000E+00 -0.00000000000E+00 -0.45593999997E+02  0.45594000000E+02  0.51100000000E-03 0. -1.
    9900012    2    1    2    0    0 -0.27909090057E+02 -0.13190592000E+02  0.79879793501E+01  0.59302002458E+02  0.50000106563E+02 0.  0.
         12    1    1    2    0    0  0.27909090057E+02  0.13190592000E+02 -0.79879793501E+01  0.31885997542E+02  0.00000000000E+00 0. -1.
         11    1    3    3    0    0 -0.10804485850E+02 -0.27952265479E+02  0.48128115043E+01  0.30351758018E+02  0.51100000000E-03 0. -1.
        -11    1    3    3    0    0 -0.45746306552E+01  0.12029130109E+02  0.81069341877E+01  0.15210180768E+02  0.51100000000E-03 0.  1.
         12    1    3    3    0    0 -0.12529973552E+02  0.27325433709E+01 -0.49317663419E+01  0.13740063673E+02  0.00000000000E+00 0. -1.
</event>
<event>
 7    1  0.7674040E-012  0.5930194E+02  0.7816164E-02  0.1266605E+00
        -11   -1    0    0    0    0  0.00000000000E+00  0.00000000000E+00  0.45593999997E+02  0.45594000000E+02  0.51100000000E-03 0. -1.
         11   -1    0    0    0    0 -0.00000000000E+00 -0.00000000000E+00 -0.45593999997E+02  0.45594000000E+02  0.51100000000E-03 0.  1.
    9900012    2    1    2    0    0 -0.22606449362E+01  0.55682941961E+01 -0.31314606479E+02  0.59301937297E+02  0.49999987724E+02 0.  0.
         12    1    1    2    0    0  0.22606449362E+01 -0.55682941961E+01  0.31314606479E+02  0.31886062703E+02  0.00000000000E+00 0. -1.
         11    1    3    3    0    0 -0.20263585693E+02 -0.91649101013E+00 -0.10434533637E+02  0.22810794668E+02  0.51100000000E-03 0. -1.
        -11    1    3    3    0    0  0.85579310282E+01  0.10056659606E+02 -0.22670332293E+02  0.26235825744E+02  0.51100000000E-03 0.  1.
         12    1    3    3    0    0  0.94450097286E+01 -0.35718744001E+01  0.17902594508E+01  0.10255316885E+02  0.00000000000E+00 0. -1.
</event>
<event>
 7    1  0.7674040E-012  0.5930193E+02  0.7816164E-02  0.1266605E+00
        -11   -1    0    0    0    0  0.00000000000E+00  0.00000000000E+00  0.45593999997E+02  0.45594000000E+02  0.51100000000E-03 0.  1.
         11   -1    0    0    0    0 -0.00000000000E+00 -0.00000000000E+00 -0.45593999997E+02  0.45594000000E+02  0.51100000000E-03 0. -1.
    9900012    2    1    2    0    0  0.14583518898E+02 -0.70927832782E+01 -0.27454228250E+02  0.59301933342E+02  0.49999980512E+02 0.  0.
         12    1    1    2    0    0 -0.14583518898E+02  0.70927832782E+01  0.27454228250E+02  0.31886066658E+02  0.00000000000E+00 0. -1.
         11    1    3    3    0    0  0.65878225650E+01 -0.49180668369E+01 -0.15052631075E+02  0.17151340767E+02  0.51100000000E-03 0. -1.
        -11    1    3    3    0    0  0.18078785607E+02  0.43667636150E+01  0.65420913666E+01  0.19715731617E+02  0.51100000000E-03 0.  1.
        -12    1    3    3    0    0 -0.10083089274E+02 -0.65414800563E+01 -0.18943688542E+02  0.22434860958E+02  0.00000000000E+00 0.  1.
</event>
<event>
 7    1  0.7674040E-012  0.5930195E+02  0.7816164E-02  0.1266605E+00
        -11   -1    0    0    0    0  0.00000000000E+00  0.00000000000E+00  0.45593999997E+02  0.45594000000E+02  0.51100000000E-03 0.  1.
         11   -1    0    0    0    0 -0.00000000000E+00 -0.00000000000E+00 -0.45593999997E+02  0.45594000000E+02  0.51100000000E-03 0. -1.
    9900012    2    1    2    0    0 -0.14711526472E+02 -0.27511970052E+02 -0.65865462945E+01  0.59301951336E+02  0.50000013329E+02 0.  0.
         12    1    1    2    0    0  0.14711526472E+02  0.27511970052E+02  0.65865462945E+01  0.31886048664E+02  0.00000000000E+00 0. -1.
         11    1    3    3    0    0  0.52058341206E+01 -0.24642292766E+02 -0.21756167395E+02  0.33281738561E+02  0.51100000000E-03 0. -1.
        -11    1    3    3    0    0 -0.41605364605E+01 -0.33451223354E+01  0.45320605265E+01  0.70028194290E+01  0.51100000000E-03 0.  1.
         12    1    3    3    0    0 -0.15756824132E+02  0.47544504875E+00  0.10637560574E+02  0.19017393346E+02  0.00000000000E+00 0. -1.
</event>
<event>
 7    1  0.7674040E-012  0.5930194E+02  0.7816164E-02  0.1266605E+00
        -11   -1    0    0    0    0  0.00000000000E+00  0.00000000000E+00  0.45593999997E+02  0.45594000000E+02  0.51100000000E-03 0. -1.
         11   -1    0    0    0    0 -0.00000000000E+00 -0.00000000000E+00 -0.45593999997E+02  0.45594000000E+02  0.51100000000E-03 0.  1.
    9900012    2    1    2    0    0  0.15715911598E+02 -0.11653760257E+02  0.25177785919E+02  0.59301938637E+02  0.49999990168E+02 0.  0.
         12    1    1    2    0    0 -0.15715911598E+02  0.11653760257E+02 -0.25177785919E+02  0.31886061363E+02  0.00000000000E+00 0. -1.
         11    1    3    3    0    0 -0.36176660477E+01  0.78403673440E+01  0.17728004417E+02  0.19719051919E+02  0.51100000000E-03 0. -1.
        -11    1    3    3    0    0  0.10303555290E+02 -0.23384964542E+02 -0.23982942438E+01  0.25666546978E+02  0.51100000000E-03 0.  1.
         12    1    3    3    0    0  0.90300223559E+01  0.38908369408E+01  0.98480757462E+01  0.13916339740E+02  0.00000000000E+00 0. -1.
</event>
<event>
 7    1  0.7674040E-012  0.5930176E+02  0.7816164E-02  0.1266605E+00
        -11   -1    0    0    0    0  0.00000000000E+00  0.00000000000E+00  0.45593999997E+02  0.45594000000E+02  0.51100000000E-03 0.  1.
         11   -1    0    0    0    0 -0.00000000000E+00 -0.00000000000E+00 -0.45593999997E+02  0.45594000000E+02  0.51100000000E-03 0. -1.
    9900012    2    1    2    0    0  0.14369277811E+02 -0.27880190726E+02  0.57403320073E+01  0.59301755453E+02  0.49999656084E+02 0.  0.
         12    1    1    2    0    0 -0.14369277811E+02  0.27880190726E+02 -0.57403320073E+01  0.31886244547E+02  0.00000000000E+00 0. -1.
         11    1    3    3    0    0  0.10605364800E+01 -0.25056049744E+02 -0.18009555977E+02  0.30875143290E+02  0.51100000000E-03 0. -1.
        -11    1    3    3    0    0  0.74464576366E+01 -0.36068171405E+01  0.19382200045E+02  0.21074357405E+02  0.51100000000E-03 0.  1.
         12    1    3    3    0    0  0.58622836948E+01  0.78267615792E+00  0.43676879399E+01  0.73522547580E+01  0.00000000000E+00 0. -1.
</event>
<event>
 7    1  0.7674040E-012  0.5930194E+02  0.7816164E-02  0.1266605E+00
        -11   -1    0    0    0    0  0.00000000000E+00  0.00000000000E+00  0.45593999997E+02  0.45594000000E+02  0.51100000000E-03 0. -1.
         11   -1    0    0    0    0 -0.00000000000E+00 -0.00000000000E+00 -0.45593999997E+02  0.45594000000E+02  0.51100000000E-03 0.  1.
    9900012    2    1    2    0    0  0.59898128006E+01 -0.12312848102E+02 -0.28796469552E+02  0.59301941221E+02  0.49999994881E+02 0.  0.
         12    1    1    2    0    0 -0.59898128006E+01  0.12312848102E+02  0.28796469552E+02  0.31886058779E+02  0.00000000000E+00 0. -1.
         11    1    3    3    0    0  0.51540364413E+01  0.14839965012E+02  0.35248758685E+01  0.16100105693E+02  0.51100000000E-03 0. -1.
        -11    1    3    3    0    0  0.44482506711E+01 -0.18692247748E+02 -0.19078790176E+02  0.27077431465E+02  0.51100000000E-03 0.  1.
         12    1    3    3    0    0 -0.36124743119E+01 -0.84605653660E+01 -0.13242555245E+02  0.16124404063E+02  0.00000000000E+00 0. -1.
</event>
<event>
 7    1  0.7674040E-012  0.5930171E+02  0.7816164E-02  0.1266606E+00
        -11   -1    0    0    0    0  0.00000000000E+00  0.00000000000E+00  0.45593999997E+02  0.45594000000E+02  0.51100000000E-03 0.  1.
         11   -1    0    0    0    0 -0.00000000000E+00 -0.00000000000E+00 -0.45593999997E+02  0.45594000000E+02  0.51100000000E-03 0. -1.
    9900012    2    1    2    0    0  0.20255892925E+02  0.26102421873E+01  0.24487157043E+02  0.59301711058E+02  0.49999575117E+02 0.  0.
         12    1    1    2    0    0 -0.20255892925E+02 -0.26102421873E+01 -0.24487157043E+02  0.31886288942E+02  0.00000000000E+00 0. -1.
         11    1    3    3    0    0  0.19176209882E+01 -0.62711043508E+01  0.27344749117E+01  0.71050245135E+01  0.51100000000E-03 0. -1.
        -11    1    3    3    0    0  0.28417063338E+02  0.10643156736E+02  0.25668859393E+01  0.30453163674E+02  0.51100000000E-03 0.  1.
        -12    1    3    3    0    0 -0.10078791402E+02 -0.17618101977E+01  0.19185796192E+02  0.21743522870E+02  0.00000000000E+00 0.  1.
</event>
<event>
 7    1  0.7674040E-012  0.5930194E+02  0.7816164E-02  0.1266605E+00
        -11   -1    0    0    0    0  0.00000000000E+00  0.00000000000E+00  0.45593999997E+02  0.45594000000E+02  0.51100000000E-03 0.  1.
         11   -1    0    0    0    0 -0.00000000000E+00 -0.00000000000E+00 -0.45593999997E+02  0.45594000000E+02  0.51100000000E-03 0. -1.
    9900012    2    1    2    0    0  0.29551238054E+02  0.11108394796E+02  0.44775952410E+01  0.59301937769E+02  0.49999988586E+02 0.  0.
         12    1    1    2    0    0 -0.29551238054E+02 -0.11108394796E+02 -0.44775952410E+01  0.31886062231E+02  0.00000000000E+00 0. -1.
         11    1    3    3    0    0 -0.34871640799E+01  0.68100526128E+01 -0.29846521030E+01  0.82125074335E+01  0.51100000000E-03 0. -1.
        -11    1    3    3    0    0  0.32342679503E+02  0.14595068167E+02 -0.39504614024E+01  0.35702536013E+02  0.51100000000E-03 0.  1.
        -12    1    3    3    0    0  0.69572263123E+00 -0.10296725984E+02  0.11412708746E+02  0.15386894323E+02  0.00000000000E+00 0.  1.
</event>
<event>
 7    1  0.7674040E-012  0.5930195E+02  0.7816164E-02  0.1266605E+00
        -11   -1    0    0    0    0  0.00000000000E+00  0.00000000000E+00  0.45593999997E+02  0.45594000000E+02  0.51100000000E-03 0.  1.
         11   -1    0    0    0    0 -0.00000000000E+00 -0.00000000000E+00 -0.45593999997E+02  0.45594000000E+02  0.51100000000E-03 0. -1.
    9900012    2    1    2    0    0 -0.11479927559E+02 -0.25847690458E+02  0.14725098778E+02  0.59301947049E+02  0.50000005509E+02 0.  0.
         12    1    1    2    0    0  0.11479927559E+02  0.25847690458E+02 -0.14725098778E+02  0.31886052951E+02  0.00000000000E+00 0. -1.
         11    1    3    3    0    0 -0.12035820036E+02 -0.16206988036E+02 -0.10303178393E+02  0.22664573907E+02  0.51100000000E-03 0. -1.
        -11    1    3    3    0    0 -0.97102013959E+01  0.29688340265E+01  0.12536751377E+02  0.16132951434E+02  0.51100000000E-03 0.  1.
        -12    1    3    3    0    0  0.10266093873E+02 -0.12609536449E+02  0.12491525794E+02  0.20504421707E+02  0.00000000000E+00 0.  1.
</event>
<event>
 7    1  0.7674040E-012  0.5930195E+02  0.7816164E-02  0.1266605E+00
        -11   -1    0    0    0    0  0.00000000000E+00  0.00000000000E+00  0.45593999997E+02  0.45594000000E+02  0.51100000000E-03 0.  1.
         11   -1    0    0    0    0 -0.00000000000E+00 -0.00000000000E+00 -0.45593999997E+02  0.45594000000E+02  0.51100000000E-03 0. -1.
    9900012    2    1    2    0    0 -0.10477528157E+02  0.83505354792E+01  0.28934580831E+02  0.59301952786E+02  0.50000015973E+02 0.  0.
         12    1    1    2    0    0  0.10477528157E+02 -0.83505354792E+01 -0.28934580831E+02  0.31886047214E+02  0.00000000000E+00 0. -1.
         11    1    3    3    0    0  0.35677609801E+01  0.15181186275E+02  0.20697073379E+02  0.25914593993E+02  0.51100000000E-03 0. -1.
        -11    1    3    3    0    0 -0.18828455019E+02  0.29146144700E+01  0.11243702400E+02  0.22122986684E+02  0.51100000000E-03 0.  1.
         12    1    3    3    0    0  0.47831658816E+01 -0.97452652654E+01 -0.30061949480E+01  0.11264372109E+02  0.00000000000E+00 0. -1.
</event>
<event>
 7    1  0.7674040E-012  0.5930195E+02  0.7816164E-02  0.1266605E+00
        -11   -1    0    0    0    0  0.00000000000E+00  0.00000000000E+00  0.45593999997E+02  0.45594000000E+02  0.51100000000E-03 0.  1.
         11   -1    0    0    0    0 -0.00000000000E+00 -0.00000000000E+00 -0.45593999997E+02  0.45594000000E+02  0.51100000000E-03 0. -1.
    9900012    2    1    2    0    0  0.46972306901E+01 -0.19887691604E+02  0.24477251919E+02  0.59301951091E+02  0.50000012883E+02 0.  0.
         12    1    1    2    0    0 -0.46972306901E+01  0.19887691604E+02 -0.24477251919E+02  0.31886048909E+02  0.00000000000E+00 0. -1.
         11    1    3    3    0    0 -0.79709000319E+01  0.92378800132E+01  0.38076860911E-01  0.12201439446E+02  0.51100000000E-03 0. -1.
        -11    1    3    3    0    0  0.18169894950E+02 -0.29017734953E+02  0.23479622309E+02  0.41514656308E+02  0.51100000000E-03 0.  1.
        -12    1    3    3    0    0 -0.55017642283E+01 -0.10783666390E+00  0.95955274908E+00  0.55858553372E+01  0.00000000000E+00 0.  1.
</event>
<event>
 7    1  0.7674040E-012  0.5930195E+02  0.7816164E-02  0.1266605E+00
        -11   -1    0    0    0    0  0.00000000000E+00  0.00000000000E+00  0.45593999997E+02  0.45594000000E+02  0.51100000000E-03 0. -1.
         11   -1    0    0    0    0 -0.00000000000E+00 -0.00000000000E+00 -0.45593999997E+02  0.45594000000E+02  0.51100000000E-03 0.  1.
    9900012    2    1    2    0    0 -0.10036821703E+01 -0.28983615381E+01 -0.31738187702E+02  0.59301946056E+02  0.50000003699E+02 0.  0.
         12    1    1    2    0    0  0.10036821703E+01  0.28983615381E+01  0.31738187702E+02  0.31886053944E+02  0.00000000000E+00 0. -1.
         11    1    3    3    0    0 -0.12963609451E+02  0.58594507542E+01  0.47907412517E+01  0.15011313571E+02  0.51100000000E-03 0. -1.
        -11    1    3    3    0    0  0.10622323957E+02 -0.81414339594E+01 -0.39100296884E+02  0.41327350869E+02  0.51100000000E-03 0.  1.
        -12    1    3    3    0    0  0.13376033231E+01 -0.61637833285E+00  0.25713679304E+01  0.29632816155E+01  0.00000000000E+00 0.  1.
</event>
<event>
 7    1  0.7674040E-012  0.5930180E+02  0.7816164E-02  0.1266605E+00
        -11   -1    0    0    0    0  0.00000000000E+00  0.00000000000E+00  0.45593999997E+02  0.45594000000E+02  0.51100000000E-03 0.  1.
         11   -1    0    0    0    0 -0.00000000000E+00 -0.00000000000E+00 -0.45593999997E+02  0.45594000000E+02  0.51100000000E-03 0. -1.
    9900012    2    1    2    0    0  0.26793866861E+02 -0.16972044964E+02 -0.32815010317E+01  0.59301798272E+02  0.49999734176E+02 0.  0.
         12    1    1    2    0    0 -0.26793866861E+02  0.16972044964E+02  0.32815010317E+01  0.31886201728E+02  0.00000000000E+00 0. -1.
         11    1    3    3    0    0  0.50078524963E+01  0.78443701960E+01 -0.12407228620E+02  0.15509740574E+02  0.51100000000E-03 0. -1.
        -11    1    3    3    0    0  0.27453127636E+02 -0.23306578500E+02  0.10967037698E+02  0.37645009423E+02  0.51100000000E-03 0.  1.
        -12    1    3    3    0    0 -0.56671132714E+01 -0.15098366597E+01 -0.18413101095E+01  0.61470482745E+01  0.00000000000E+00 0.  1.
</event>
<event>
 7    1  0.7674040E-012  0.5930195E+02  0.7816164E-02  0.1266605E+00
        -11   -1    0    0    0    0  0.00000000000E+00  0.00000000000E+00  0.45593999997E+02  0.45594000000E+02  0.51100000000E-03 0. -1.
         11   -1    0    0    0    0 -0.00000000000E+00 -0.00000000000E+00 -0.45593999997E+02  0.45594000000E+02  0.51100000000E-03 0.  1.
    9900012    2    1    2    0    0  0.44910436936E+01 -0.28769855030E+02  0.12994087903E+02  0.59301947370E+02  0.50000006095E+02 0.  0.
         12    1    1    2    0    0 -0.44910436936E+01  0.28769855030E+02 -0.12994087903E+02  0.31886052630E+02  0.00000000000E+00 0. -1.
         11    1    3    3    0    0 -0.97228968034E+01  0.63676517740E+01  0.85984484775E+01  0.14457352034E+02  0.51100000000E-03 0. -1.
        -11    1    3    3    0    0  0.23989993119E+01 -0.27592667704E+02 -0.47576689647E+01  0.28102418454E+02  0.51100000000E-03 0.  1.
         12    1    3    3    0    0  0.11814941185E+02 -0.75448390998E+01  0.91533083898E+01  0.16742176881E+02  0.00000000000E+00 0. -1.
</event>
<event>
 7    1  0.7674040E-012  0.5930196E+02  0.7816164E-02  0.1266605E+00
        -11   -1    0    0    0    0  0.00000000000E+00  0.00000000000E+00  0.45593999997E+02  0.45594000000E+02  0.51100000000E-03 0.  1.
         11   -1    0    0    0    0 -0.00000000000E+00 -0.00000000000E+00 -0.45593999997E+02  0.45594000000E+02  0.51100000000E-03 0. -1.
    9900012    2    1    2    0    0  0.16240902523E+02 -0.23340073400E+02  0.14428909956E+02  0.59301962561E+02  0.50000033800E+02 0.  0.
         12    1    1    2    0    0 -0.16240902523E+02  0.23340073400E+02 -0.14428909956E+02  0.31886037439E+02  0.00000000000E+00 0. -1.
         11    1    3    3    0    0  0.20861804423E+01 -0.26869500396E+01 -0.15617966970E+02  0.15984140323E+02  0.51100000000E-03 0. -1.
        -11    1    3    3    0    0  0.18696893443E+01 -0.18272416904E+02  0.20858965555E+02  0.27793405730E+02  0.51100000000E-03 0.  1.
         12    1    3    3    0    0  0.12285032736E+02 -0.23807064564E+01  0.91879113697E+01  0.15524416508E+02  0.00000000000E+00 0. -1.
</event>
<event>
 7    1  0.7674040E-012  0.5930196E+02  0.7816164E-02  0.1266605E+00
        -11   -1    0    0    0    0  0.00000000000E+00  0.00000000000E+00  0.45593999997E+02  0.45594000000E+02  0.51100000000E-03 0. -1.
         11   -1    0    0    0    0 -0.00000000000E+00 -0.00000000000E+00 -0.45593999997E+02  0.45594000000E+02  0.51100000000E-03 0.  1.
    9900012    2    1    2    0    0 -0.26102501772E+02 -0.66569861362E+01  0.17060583128E+02  0.59301959797E+02  0.50000028760E+02 0.  0.
         12    1    1    2    0    0  0.26102501772E+02  0.66569861362E+01 -0.17060583128E+02  0.31886040203E+02  0.00000000000E+00 0. -1.
         11    1    3    3    0    0 -0.43013925869E+01  0.11116214142E+02  0.94131942223E+00  0.11956516113E+02  0.51100000000E-03 0. -1.
        -11    1    3    3    0    0 -0.28120634737E+02 -0.21204833484E+02  0.73037062826E+01  0.35968864130E+02  0.51100000000E-03 0.  1.
        -12    1    3    3    0    0  0.63195255525E+01  0.34316332053E+01  0.88155574232E+01  0.11376579554E+02  0.00000000000E+00 0.  1.
</event>
<event>
 7    1  0.7674040E-012  0.5930193E+02  0.7816164E-02  0.1266605E+00
        -11   -1    0    0    0    0  0.00000000000E+00  0.00000000000E+00  0.45593999997E+02  0.45594000000E+02  0.51100000000E-03 0.  1.
         11   -1    0    0    0    0 -0.00000000000E+00 -0.00000000000E+00 -0.45593999997E+02  0.45594000000E+02  0.51100000000E-03 0. -1.
    9900012    2    1    2    0    0 -0.18428526884E+02  0.22578862958E+02  0.12934662751E+02  0.59301934767E+02  0.49999983110E+02 0.  0.
         12    1    1    2    0    0  0.18428526884E+02 -0.22578862958E+02 -0.12934662751E+02  0.31886065233E+02  0.00000000000E+00 0. -1.
         11    1    3    3    0    0 -0.89984506241E+01 -0.91776206258E+00  0.54665239593E+01  0.10568693642E+02  0.51100000000E-03 0. -1.
        -11    1    3    3    0    0  0.86270320637E+01 -0.15320002692E+01 -0.99795945928E+01  0.13280249077E+02  0.51100000000E-03 0.  1.
        -12    1    3    3    0    0 -0.18057108323E+02  0.25028625290E+02  0.17447733384E+02  0.35452992048E+02  0.00000000000E+00 0.  1.
</event>
<event>
 7    1  0.7674040E-012  0.5930195E+02  0.7816164E-02  0.1266605E+00
        -11   -1    0    0    0    0  0.00000000000E+00  0.00000000000E+00  0.45593999997E+02  0.45594000000E+02  0.51100000000E-03 0. -1.
         11   -1    0    0    0    0 -0.00000000000E+00 -0.00000000000E+00 -0.45593999997E+02  0.45594000000E+02  0.51100000000E-03 0.  1.
    9900012    2    1    2    0    0  0.20814705799E+02 -0.16935531374E+01 -0.24095644949E+02  0.59301949676E+02  0.50000010302E+02 0.  0.
         12    1    1    2    0    0 -0.20814705799E+02  0.16935531374E+01  0.24095644949E+02  0.31886050324E+02  0.00000000000E+00 0. -1.
         11    1    3    3    0    0 -0.11120906787E+02 -0.32054119311E+00  0.19322255284E+01  0.11292068463E+02  0.51100000000E-03 0. -1.
        -11    1    3    3    0    0  0.29964916977E+02  0.72925075783E+01 -0.23493385152E+02  0.38768751107E+02  0.51100000000E-03 0.  1.
        -12    1    3    3    0    0  0.19706956088E+01 -0.86655195226E+01 -0.25344853257E+01  0.92411301065E+01  0.00000000000E+00 0.  1.
</event>
<event>
 7    1  0.7674040E-012  0.5930196E+02  0.7816164E-02  0.1266605E+00
        -11   -1    0    0    0    0  0.00000000000E+00  0.00000000000E+00  0.45593999997E+02  0.45594000000E+02  0.51100000000E-03 0. -1.
         11   -1    0    0    0    0 -0.00000000000E+00 -0.00000000000E+00 -0.45593999997E+02  0.45594000000E+02  0.51100000000E-03 0.  1.
    9900012    2    1    2    0    0 -0.41939751367E+01 -0.27543237066E+02 -0.15508068484E+02  0.59301960365E+02  0.50000029794E+02 0.  0.
         12    1    1    2    0    0  0.41939751367E+01  0.27543237066E+02  0.15508068484E+02  0.31886039635E+02  0.00000000000E+00 0. -1.
         11    1    3    3    0    0  0.47789849091E+01 -0.78579501996E+01  0.11772321098E+02  0.14938996700E+02  0.51100000000E-03 0. -1.
        -11    1    3    3    0    0  0.91694527660E-01 -0.73225041025E+01 -0.28073142090E+02  0.29012562473E+02  0.51100000000E-03 0.  1.
        -12    1    3    3    0    0 -0.90646545735E+01 -0.12362782764E+02  0.79275250775E+00  0.15350401192E+02  0.00000000000E+00 0.  1.
</event>
<event>
 7    1  0.7674040E-012  0.5930193E+02  0.7816164E-02  0.1266605E+00
        -11   -1    0    0    0    0  0.00000000000E+00  0.00000000000E+00  0.45593999997E+02  0.45594000000E+02  0.51100000000E-03 0.  1.
         11   -1    0    0    0    0 -0.00000000000E+00 -0.00000000000E+00 -0.45593999997E+02  0.45594000000E+02  0.51100000000E-03 0. -1.
    9900012    2    1    2    0    0 -0.31968834378E+00  0.10023396354E+02  0.30267979868E+02  0.59301932817E+02  0.49999979555E+02 0.  0.
         12    1    1    2    0    0  0.31968834378E+00 -0.10023396354E+02 -0.30267979868E+02  0.31886067183E+02  0.00000000000E+00 0. -1.
         11    1    3    3    0    0  0.76056848344E+01 -0.37184999350E+01 -0.85162485160E+01  0.12008337629E+02  0.51100000000E-03 0. -1.
        -11    1    3    3    0    0 -0.11121730166E+02  0.69522507547E+01  0.37438508820E+02  0.39669492250E+02  0.51100000000E-03 0.  1.
        -12    1    3    3    0    0  0.31963569878E+01  0.67896455344E+01  0.13457195639E+01  0.76241029387E+01  0.00000000000E+00 0.  1.
</event>
<event>
 7    1  0.7674040E-012  0.5930196E+02  0.7816164E-02  0.1266605E+00
        -11   -1    0    0    0    0  0.00000000000E+00  0.00000000000E+00  0.45593999997E+02  0.45594000000E+02  0.51100000000E-03 0.  1.
         11   -1    0    0    0    0 -0.00000000000E+00 -0.00000000000E+00 -0.45593999997E+02  0.45594000000E+02  0.51100000000E-03 0. -1.
    9900012    2    1    2    0    0 -0.29928402040E+02  0.35240794228E+01  0.10420716763E+02  0.59301957249E+02  0.50000024112E+02 0.  0.
         12    1    1    2    0    0  0.29928402040E+02 -0.35240794228E+01 -0.10420716763E+02  0.31886042751E+02  0.00000000000E+00 0. -1.
         11    1    3    3    0    0  0.19590188752E+01 -0.97568855676E+01  0.14176516654E+02  0.17320744662E+02  0.51100000000E-03 0. -1.
        -11    1    3    3    0    0 -0.29397186216E+02  0.12237021668E+01 -0.14719658979E+01  0.29459441412E+02  0.51100000000E-03 0.  1.
        -12    1    3    3    0    0 -0.24902346990E+01  0.12057262824E+02 -0.22838339934E+01  0.12521771175E+02  0.00000000000E+00 0.  1.
</event>
<event>
 7    1  0.7674040E-012  0.5930198E+02  0.7816164E-02  0.1266605E+00
        -11   -1    0    0    0    0  0.00000000000E+00  0.00000000000E+00  0.45593999997E+02  0.45594000000E+02  0.51100000000E-03 0. -1.
         11   -1    0    0    0    0 -0.00000000000E+00 -0.00000000000E+00 -0.45593999997E+02  0.45594000000E+02  0.51100000000E-03 0.  1.
    9900012    2    1    2    0    0  0.26739496573E+02 -0.76371558072E+01 -0.15601014546E+02  0.59301976719E+02  0.50000059621E+02 0.  0.
         12    1    1    2    0    0 -0.26739496573E+02  0.76371558072E+01  0.15601014546E+02  0.31886023281E+02  0.00000000000E+00 0. -1.
         11    1    3    3    0    0  0.31432040515E+01  0.12064923905E+02 -0.75060058009E+01  0.14552740081E+02  0.51100000000E-03 0.  1.
        -11    1    3    3    0    0 -0.47049396659E+01 -0.82825644990E+01  0.58684385013E+01  0.11188203727E+02  0.51100000000E-03 0. -1.
         12    1    3    3    0    0  0.28301232187E+02 -0.11419515213E+02 -0.13963447246E+02  0.33561032910E+02  0.00000000000E+00 0. -1.
</event>
<event>
 7    1  0.7674040E-012  0.5930194E+02  0.7816164E-02  0.1266605E+00
        -11   -1    0    0    0    0  0.00000000000E+00  0.00000000000E+00  0.45593999997E+02  0.45594000000E+02  0.51100000000E-03 0. -1.
         11   -1    0    0    0    0 -0.00000000000E+00 -0.00000000000E+00 -0.45593999997E+02  0.45594000000E+02  0.51100000000E-03 0.  1.
    9900012    2    1    2    0    0 -0.30493856760E+02  0.42564549263E+01 -0.82902340761E+01  0.59301942080E+02  0.49999996448E+02 0.  0.
         12    1    1    2    0    0  0.30493856760E+02 -0.42564549263E+01  0.82902340761E+01  0.31886057920E+02  0.00000000000E+00 0. -1.
         11    1    3    3    0    0 -0.24151735198E+02 -0.83621971749E+01  0.13770780373E+02  0.29032172620E+02  0.51100000000E-03 0. -1.
        -11    1    3    3    0    0  0.41913507826E+01  0.52193894569E+01 -0.31618285971E+01  0.74031485210E+01  0.51100000000E-03 0.  1.
         12    1    3    3    0    0 -0.10533472345E+02  0.73992626443E+01 -0.18899185852E+02  0.22866620939E+02  0.00000000000E+00 0. -1.
</event>
<event>
 7    1  0.7674040E-012  0.5930187E+02  0.7816164E-02  0.1266605E+00
        -11   -1    0    0    0    0  0.00000000000E+00  0.00000000000E+00  0.45593999997E+02  0.45594000000E+02  0.51100000000E-03 0.  1.
         11   -1    0    0    0    0 -0.00000000000E+00 -0.00000000000E+00 -0.45593999997E+02  0.45594000000E+02  0.51100000000E-03 0. -1.
    9900012    2    1    2    0    0 -0.30752731326E+02  0.83621835513E+01  0.10338981787E+01  0.59301865973E+02  0.49999857647E+02 0.  0.
         12    1    1    2    0    0  0.30752731326E+02 -0.83621835513E+01 -0.10338981787E+01  0.31886134027E+02  0.00000000000E+00 0. -1.
         11    1    3    3    0    0  0.22031316078E+01  0.15785552429E+02  0.11706223676E+02  0.19775568952E+02  0.51100000000E-03 0. -1.
        -11    1    3    3    0    0 -0.26664910028E+02  0.29900107965E+00 -0.12414285924E+02  0.29414644715E+02  0.51100000000E-03 0.  1.
         12    1    3    3    0    0 -0.62909529050E+01 -0.77223699577E+01  0.17419604271E+01  0.10111652305E+02  0.00000000000E+00 0. -1.
</event>
<event>
 7    1  0.7674040E-012  0.5930185E+02  0.7816164E-02  0.1266605E+00
        -11   -1    0    0    0    0  0.00000000000E+00  0.00000000000E+00  0.45593999997E+02  0.45594000000E+02  0.51100000000E-03 0.  1.
         11   -1    0    0    0    0 -0.00000000000E+00 -0.00000000000E+00 -0.45593999997E+02  0.45594000000E+02  0.51100000000E-03 0. -1.
    9900012    2    1    2    0    0 -0.66703483992E+00 -0.18183269071E+02  0.26184927292E+02  0.59301848980E+02  0.49999826656E+02 0.  0.
         12    1    1    2    0    0  0.66703483992E+00  0.18183269071E+02 -0.26184927292E+02  0.31886151020E+02  0.00000000000E+00 0. -1.
         11    1    3    3    0    0  0.12155942290E+02 -0.57802327361E+01 -0.48401283959E+01  0.14304015750E+02  0.51100000000E-03 0. -1.
        -11    1    3    3    0    0 -0.47055905613E+01 -0.20048773527E+02  0.24768366080E+02  0.32211300206E+02  0.51100000000E-03 0.  1.
        -12    1    3    3    0    0 -0.81173865683E+01  0.76457371922E+01  0.62566896083E+01  0.12786533024E+02  0.00000000000E+00 0.  1.
</event>
<event>
 7    1  0.7674040E-012  0.5930194E+02  0.7816164E-02  0.1266605E+00
        -11   -1    0    0    0    0  0.00000000000E+00  0.00000000000E+00  0.45593999997E+02  0.45594000000E+02  0.51100000000E-03 0.  1.
         11   -1    0    0    0    0 -0.00000000000E+00 -0.00000000000E+00 -0.45593999997E+02  0.45594000000E+02  0.51100000000E-03 0. -1.
    9900012    2    1    2    0    0  0.11240945850E+02  0.96718344138E+01  0.28227955060E+02  0.59301942053E+02  0.49999996398E+02 0.  0.
         12    1    1    2    0    0 -0.11240945850E+02 -0.96718344138E+01 -0.28227955060E+02  0.31886057947E+02  0.00000000000E+00 0. -1.
         11    1    3    3    0    0 -0.12555596201E+02  0.16932381831E+02  0.87228943244E+01  0.22813097907E+02  0.51100000000E-03 0. -1.
        -11    1    3    3    0    0  0.21728487413E+02 -0.45472097874E+01  0.22745880784E+02  0.31783319131E+02  0.51100000000E-03 0.  1.
         12    1    3    3    0    0  0.20680546383E+01 -0.27133376302E+01 -0.32408200481E+01  0.47055250150E+01  0.00000000000E+00 0. -1.
</event>
<event>
 7    1  0.7674040E-012  0.5930195E+02  0.7816164E-02  0.1266605E+00
        -11   -1    0    0    0    0  0.00000000000E+00  0.00000000000E+00  0.45593999997E+02  0.45594000000E+02  0.51100000000E-03 0.  1.
         11   -1    0    0    0    0 -0.00000000000E+00 -0.00000000000E+00 -0.45593999997E+02  0.45594000000E+02  0.51100000000E-03 0. -1.
    9900012    2    1    2    0    0  0.10758171884E+02 -0.25113627530E+02  0.16440424252E+02  0.59301951333E+02  0.50000013324E+02 0.  0.
         12    1    1    2    0    0 -0.10758171884E+02  0.25113627530E+02 -0.16440424252E+02  0.31886048667E+02  0.00000000000E+00 0. -1.
         11    1    3    3    0    0  0.12823048617E+02 -0.15347822663E+02  0.12507748580E+02  0.23588768750E+02  0.51100000000E-03 0.  1.
        -11    1    3    3    0    0 -0.15265186830E+02 -0.35049311009E+01  0.11336343337E+02  0.19334506756E+02  0.51100000000E-03 0. -1.
        -12    1    3    3    0    0  0.13200310097E+02 -0.62608737657E+01 -0.74036676647E+01  0.16378675828E+02  0.00000000000E+00 0.  1.
</event>
<event>
 7    1  0.7674040E-012  0.5930197E+02  0.7816164E-02  0.1266605E+00
        -11   -1    0    0    0    0  0.00000000000E+00  0.00000000000E+00  0.45593999997E+02  0.45594000000E+02  0.51100000000E-03 0.  1.
         11   -1    0    0    0    0 -0.00000000000E+00 -0.00000000000E+00 -0.45593999997E+02  0.45594000000E+02  0.51100000000E-03 0. -1.
    9900012    2    1    2    0    0  0.44530274761E+01 -0.88943830991E+01  0.30294873643E+02  0.59301970560E+02  0.50000048388E+02 0.  0.
         12    1    1    2    0    0 -0.44530274761E+01  0.88943830991E+01 -0.30294873643E+02  0.31886029440E+02  0.00000000000E+00 0. -1.
         11    1    3    3    0    0 -0.12911789955E+02  0.71108521976E+01 -0.60635089302E+01  0.15938779113E+02  0.51100000000E-03 0. -1.
        -11    1    3    3    0    0  0.11778428989E+02 -0.11344892485E+02  0.25460621628E+02  0.30260225195E+02  0.51100000000E-03 0.  1.
         12    1    3    3    0    0  0.55863884424E+01 -0.46603428119E+01  0.10897760946E+02  0.13102966251E+02  0.00000000000E+00 0. -1.
</event>
<event>
 7    1  0.7674040E-012  0.5930191E+02  0.7816164E-02  0.1266605E+00
        -11   -1    0    0    0    0  0.00000000000E+00  0.00000000000E+00  0.45593999997E+02  0.45594000000E+02  0.51100000000E-03 0.  1.
         11   -1    0    0    0    0 -0.00000000000E+00 -0.00000000000E+00 -0.45593999997E+02  0.45594000000E+02  0.51100000000E-03 0. -1.
    9900012    2    1    2    0    0  0.84288784827E+01  0.30052249669E+02 -0.65222036314E+01  0.59301908317E+02  0.49999934871E+02 0.  0.
         12    1    1    2    0    0 -0.84288784827E+01 -0.30052249669E+02  0.65222036314E+01  0.31886091683E+02  0.00000000000E+00 0. -1.
         11    1    3    3    0    0  0.22520724111E+01 -0.11329805770E+02 -0.12227350994E+02  0.16820952456E+02  0.51100000000E-03 0. -1.
        -11    1    3    3    0    0  0.43095001528E+01  0.32148114797E+02  0.25084817896E+01  0.32532530761E+02  0.51100000000E-03 0.  1.
         12    1    3    3    0    0  0.18673059188E+01  0.92339406420E+01  0.31966655734E+01  0.99484250996E+01  0.00000000000E+00 0. -1.
</event>
<event>
 7    1  0.7674040E-012  0.5930195E+02  0.7816164E-02  0.1266605E+00
        -11   -1    0    0    0    0  0.00000000000E+00  0.00000000000E+00  0.45593999997E+02  0.45594000000E+02  0.51100000000E-03 0.  1.
         11   -1    0    0    0    0 -0.00000000000E+00 -0.00000000000E+00 -0.45593999997E+02  0.45594000000E+02  0.51100000000E-03 0. -1.
    9900012    2    1    2    0    0  0.21411380627E+02  0.61033283204E+01  0.22825915055E+02  0.59301949209E+02  0.50000009450E+02 0.  0.
         12    1    1    2    0    0 -0.21411380627E+02 -0.61033283204E+01 -0.22825915055E+02  0.31886050791E+02  0.00000000000E+00 0. -1.
         11    1    3    3    0    0  0.19773217842E+02  0.58420169241E+01 -0.24204329250E+01  0.20759764001E+02  0.51100000000E-03 0.  1.
        -11    1    3    3    0    0 -0.39234532488E+01 -0.11221019651E+02  0.22565780643E+02  0.25505278350E+02  0.51100000000E-03 0. -1.
        -12    1    3    3    0    0  0.55616160339E+01  0.11482331048E+02  0.26805673368E+01  0.13036906859E+02  0.00000000000E+00 0.  1.
</event>
<event>
 7    1  0.7674040E-012  0.5930194E+02  0.7816164E-02  0.1266605E+00
        -11   -1    0    0    0    0  0.00000000000E+00  0.00000000000E+00  0.45593999997E+02  0.45594000000E+02  0.51100000000E-03 0. -1.
         11   -1    0    0    0    0 -0.00000000000E+00 -0.00000000000E+00 -0.45593999997E+02  0.45594000000E+02  0.51100000000E-03 0.  1.
    9900012    2    1    2    0    0  0.25734576540E+02 -0.12751654697E+02 -0.13850906355E+02  0.59301941383E+02  0.49999995177E+02 0.  0.
         12    1    1    2    0    0 -0.25734576540E+02  0.12751654697E+02  0.13850906355E+02  0.31886058617E+02  0.00000000000E+00 0. -1.
         11    1    3    3    0    0  0.89030790602E+01 -0.12075193348E+02 -0.36427829853E+01  0.15438425414E+02  0.51100000000E-03 0. -1.
        -11    1    3    3    0    0  0.77724897008E+01  0.65298717966E+01 -0.23880731813E+02  0.25948799086E+02  0.51100000000E-03 0.  1.
        -12    1    3    3    0    0  0.90590077793E+01 -0.72063331464E+01  0.13672608443E+02  0.17914716883E+02  0.00000000000E+00 0.  1.
</event>
<event>
 7    1  0.7674040E-012  0.5930181E+02  0.7816164E-02  0.1266605E+00
        -11   -1    0    0    0    0  0.00000000000E+00  0.00000000000E+00  0.45593999997E+02  0.45594000000E+02  0.51100000000E-03 0. -1.
         11   -1    0    0    0    0 -0.00000000000E+00 -0.00000000000E+00 -0.45593999997E+02  0.45594000000E+02  0.51100000000E-03 0.  1.
    9900012    2    1    2    0    0  0.29938768584E+02  0.10887225369E+02 -0.13666607875E+01  0.59301807028E+02  0.49999750144E+02 0.  0.
         12    1    1    2    0    0 -0.29938768584E+02 -0.10887225369E+02  0.13666607875E+01  0.31886192972E+02  0.00000000000E+00 0. -1.
         11    1    3    3    0    0  0.19281481574E+02  0.20967499814E+02  0.11339289834E+02  0.30659273872E+02  0.51100000000E-03 0. -1.
        -11    1    3    3    0    0 -0.36391497351E+01 -0.10597604920E+02 -0.71715233990E+01  0.13303510400E+02  0.51100000000E-03 0.  1.
        -12    1    3    3    0    0  0.14296436745E+02  0.51733047465E+00 -0.55344272228E+01  0.15339022756E+02  0.00000000000E+00 0.  1.
</event>
<event>
 7    1  0.7674040E-012  0.5930194E+02  0.7816164E-02  0.1266605E+00
        -11   -1    0    0    0    0  0.00000000000E+00  0.00000000000E+00  0.45593999997E+02  0.45594000000E+02  0.51100000000E-03 0.  1.
         11   -1    0    0    0    0 -0.00000000000E+00 -0.00000000000E+00 -0.45593999997E+02  0.45594000000E+02  0.51100000000E-03 0. -1.
    9900012    2    1    2    0    0  0.10536262397E+02 -0.18876377585E+02  0.23439081733E+02  0.59301937080E+02  0.49999987329E+02 0.  0.
         12    1    1    2    0    0 -0.10536262397E+02  0.18876377585E+02 -0.23439081733E+02  0.31886062920E+02  0.00000000000E+00 0. -1.
         11    1    3    3    0    0  0.21585929497E+02 -0.10535762287E+02 -0.31174574891E+01  0.24221337302E+02  0.51100000000E-03 0. -1.
        -11    1    3    3    0    0 -0.30812537988E+01  0.53109828120E+01  0.33283975546E+01  0.69841888537E+01  0.51100000000E-03 0.  1.
         12    1    3    3    0    0 -0.79684133017E+01 -0.13651598110E+02  0.23228141668E+02  0.28096410925E+02  0.00000000000E+00 0. -1.
</event>
<event>
 7    1  0.7674040E-012  0.5930194E+02  0.7816164E-02  0.1266605E+00
        -11   -1    0    0    0    0  0.00000000000E+00  0.00000000000E+00  0.45593999997E+02  0.45594000000E+02  0.51100000000E-03 0. -1.
         11   -1    0    0    0    0 -0.00000000000E+00 -0.00000000000E+00 -0.45593999997E+02  0.45594000000E+02  0.51100000000E-03 0.  1.
    9900012    2    1    2    0    0 -0.43767019310E+01  0.28281562534E+02  0.14061246483E+02  0.59301937970E+02  0.49999988952E+02 0.  0.
         12    1    1    2    0    0  0.43767019310E+01 -0.28281562534E+02 -0.14061246483E+02  0.31886062030E+02  0.00000000000E+00 0. -1.
         11    1    3    3    0    0  0.34542013183E+01 -0.69616160983E+01 -0.66793536893E+01  0.10247408034E+02  0.51100000000E-03 0. -1.
        -11    1    3    3    0    0 -0.17309823854E+02  0.21717684810E+02  0.10938888344E+02  0.29848737223E+02  0.51100000000E-03 0.  1.
         12    1    3    3    0    0  0.94789206042E+01  0.13525493822E+02  0.98017118283E+01  0.19205792713E+02  0.00000000000E+00 0. -1.
</event>
<event>
 7    1  0.7674040E-012  0.5930196E+02  0.7816164E-02  0.1266605E+00
        -11   -1    0    0    0    0  0.00000000000E+00  0.00000000000E+00  0.45593999997E+02  0.45594000000E+02  0.51100000000E-03 0.  1.
         11   -1    0    0    0    0 -0.00000000000E+00 -0.00000000000E+00 -0.45593999997E+02  0.45594000000E+02  0.51100000000E-03 0. -1.
    9900012    2    1    2    0    0  0.14153114400E+02 -0.31118220049E+01  0.28402915119E+02  0.59301958059E+02  0.50000025589E+02 0.  0.
         12    1    1    2    0    0 -0.14153114400E+02  0.31118220049E+01 -0.28402915119E+02  0.31886041941E+02  0.00000000000E+00 0. -1.
         11    1    3    3    0    0  0.15667524742E+02  0.13550188353E+02  0.13145656664E+02  0.24533390009E+02  0.51100000000E-03 0. -1.
        -11    1    3    3    0    0 -0.20819840673E+01 -0.86345349868E+01  0.22344541283E+02  0.24045132096E+02  0.51100000000E-03 0.  1.
         12    1    3    3    0    0  0.56757372547E+00 -0.80274753706E+01 -0.70872828283E+01  0.10723435953E+02  0.00000000000E+00 0. -1.
</event>
<event>
 7    1  0.7674040E-012  0.5930197E+02  0.7816164E-02  0.1266605E+00
        -11   -1    0    0    0    0  0.00000000000E+00  0.00000000000E+00  0.45593999997E+02  0.45594000000E+02  0.51100000000E-03 0.  1.
         11   -1    0    0    0    0 -0.00000000000E+00 -0.00000000000E+00 -0.45593999997E+02  0.45594000000E+02  0.51100000000E-03 0. -1.
    9900012    2    1    2    0    0  0.20544224938E+02  0.36466936151E+01  0.24111309721E+02  0.59301971569E+02  0.50000050229E+02 0.  0.
         12    1    1    2    0    0 -0.20544224938E+02 -0.36466936151E+01 -0.24111309721E+02  0.31886028431E+02  0.00000000000E+00 0. -1.
         11    1    3    3    0    0 -0.26404447548E+01 -0.16926815259E+02  0.20699441525E+02  0.26869237113E+02  0.51100000000E-03 0. -1.
        -11    1    3    3    0    0  0.41153285117E+01  0.85448676014E+01 -0.71842810659E+00  0.95114052742E+01  0.51100000000E-03 0.  1.
         12    1    3    3    0    0  0.19069341181E+02  0.12028641273E+02  0.41302963028E+01  0.22921329182E+02  0.00000000000E+00 0. -1.
</event>
<event>
 7    1  0.7674040E-012  0.5930189E+02  0.7816164E-02  0.1266605E+00
        -11   -1    0    0    0    0  0.00000000000E+00  0.00000000000E+00  0.45593999997E+02  0.45594000000E+02  0.51100000000E-03 0.  1.
         11   -1    0    0    0    0 -0.00000000000E+00 -0.00000000000E+00 -0.45593999997E+02  0.45594000000E+02  0.51100000000E-03 0. -1.
    9900012    2    1    2    0    0  0.13663973436E+02  0.19344707970E+00  0.28809410872E+02  0.59301894145E+02  0.49999909025E+02 0.  0.
         12    1    1    2    0    0 -0.13663973436E+02 -0.19344707970E+00 -0.28809410872E+02  0.31886105855E+02  0.00000000000E+00 0. -1.
         11    1    3    3    0    0 -0.10061261720E+00  0.83406812613E+01 -0.31479170962E+01  0.89155184429E+01  0.51100000000E-03 0. -1.
        -11    1    3    3    0    0  0.32958799978E+01 -0.17766583011E+02  0.31315416528E+02  0.36154800642E+02  0.51100000000E-03 0.  1.
        -12    1    3    3    0    0  0.10468706055E+02  0.96193488298E+01  0.64191143961E+00  0.14231575060E+02  0.00000000000E+00 0.  1.
</event>
<event>
 7    1  0.7674040E-012  0.5930195E+02  0.7816164E-02  0.1266605E+00
        -11   -1    0    0    0    0  0.00000000000E+00  0.00000000000E+00  0.45593999997E+02  0.45594000000E+02  0.51100000000E-03 0. -1.
         11   -1    0    0    0    0 -0.00000000000E+00 -0.00000000000E+00 -0.45593999997E+02  0.45594000000E+02  0.51100000000E-03 0.  1.
    9900012    2    1    2    0    0 -0.46608859389E+00  0.17986806081E+02 -0.26324472105E+02  0.59301948768E+02  0.50000008645E+02 0.  0.
         12    1    1    2    0    0  0.46608859389E+00 -0.17986806081E+02  0.26324472105E+02  0.31886051232E+02  0.00000000000E+00 0. -1.
         11    1    3    3    0    0  0.40430404724E+01 -0.74077951475E+01  0.77878771798E+00  0.84751469474E+01  0.51100000000E-03 0. -1.
        -11    1    3    3    0    0  0.12557173714E+02  0.20993740774E+02 -0.10526048855E+02  0.26631137192E+02  0.51100000000E-03 0.  1.
        -12    1    3    3    0    0 -0.17066302781E+02  0.44008604548E+01 -0.16577210968E+02  0.24195664629E+02  0.00000000000E+00 0.  1.
</event>
<event>
 7    1  0.7674040E-012  0.5930195E+02  0.7816164E-02  0.1266605E+00
        -11   -1    0    0    0    0  0.00000000000E+00  0.00000000000E+00  0.45593999997E+02  0.45594000000E+02  0.51100000000E-03 0.  1.
         11   -1    0    0    0    0 -0.00000000000E+00 -0.00000000000E+00 -0.45593999997E+02  0.45594000000E+02  0.51100000000E-03 0. -1.
    9900012    2    1    2    0    0 -0.36577477210E+01  0.26443136740E+02  0.17438516937E+02  0.59301945493E+02  0.50000002673E+02 0.  0.
         12    1    1    2    0    0  0.36577477210E+01 -0.26443136740E+02 -0.17438516937E+02  0.31886054507E+02  0.00000000000E+00 0. -1.
         11    1    3    3    0    0 -0.27516996697E+01  0.16989225220E+02 -0.83079727096E+01  0.19110940204E+02  0.51100000000E-03 0. -1.
        -11    1    3    3    0    0 -0.82364279564E+01  0.12355178660E+02  0.28253911958E+02  0.31918219349E+02  0.51100000000E-03 0.  1.
        -12    1    3    3    0    0  0.73303799052E+01 -0.29012671400E+01 -0.25074223117E+01  0.82727859407E+01  0.00000000000E+00 0.  1.
</event>
<event>
 7    1  0.7674040E-012  0.5930192E+02  0.7816164E-02  0.1266605E+00
        -11   -1    0    0    0    0  0.00000000000E+00  0.00000000000E+00  0.45593999997E+02  0.45594000000E+02  0.51100000000E-03 0.  1.
         11   -1    0    0    0    0 -0.00000000000E+00 -0.00000000000E+00 -0.45593999997E+02  0.45594000000E+02  0.51100000000E-03 0. -1.
    9900012    2    1    2    0    0 -0.23664586217E+02  0.31575891089E+01  0.21136196734E+02  0.59301924321E+02  0.49999964060E+02 0.  0.
         12    1    1    2    0    0  0.23664586217E+02 -0.31575891089E+01 -0.21136196734E+02  0.31886075679E+02  0.00000000000E+00 0. -1.
         11    1    3    3    0    0 -0.15763849732E+02  0.17700414952E+02  0.25331831408E+02  0.34691574346E+02  0.51100000000E-03 0. -1.
        -11    1    3    3    0    0 -0.11598776466E+02 -0.10691438978E+02  0.25795366860E+01  0.15984132528E+02  0.51100000000E-03 0.  1.
         12    1    3    3    0    0  0.36980399807E+01 -0.38513868658E+01 -0.67751713598E+01  0.86262174470E+01  0.00000000000E+00 0. -1.
</event>
<event>
 7    1  0.7674040E-012  0.5930194E+02  0.7816164E-02  0.1266605E+00
        -11   -1    0    0    0    0  0.00000000000E+00  0.00000000000E+00  0.45593999997E+02  0.45594000000E+02  0.51100000000E-03 0.  1.
         11   -1    0    0    0    0 -0.00000000000E+00 -0.00000000000E+00 -0.45593999997E+02  0.45594000000E+02  0.51100000000E-03 0. -1.
    9900012    2    1    2    0    0  0.26105035391E+02  0.55898916144E+01  0.17435617815E+02  0.59301944589E+02  0.50000001024E+02 0.  0.
         12    1    1    2    0    0 -0.26105035391E+02 -0.55898916144E+01 -0.17435617815E+02  0.31886055411E+02  0.00000000000E+00 0. -1.
         11    1    3    3    0    0 -0.78272915772E+01  0.65674888165E+01  0.75869816214E+01  0.12726377850E+02  0.51100000000E-03 0. -1.
        -11    1    3    3    0    0  0.25174183899E+02  0.11412512922E+02  0.13803905298E+02  0.30895514042E+02  0.51100000000E-03 0.  1.
         12    1    3    3    0    0  0.87581430701E+01 -0.12390110124E+02 -0.39552691039E+01  0.15680052698E+02  0.00000000000E+00 0. -1.
</event>
<event>
 7    1  0.7674040E-012  0.5930194E+02  0.7816164E-02  0.1266605E+00
        -11   -1    0    0    0    0  0.00000000000E+00  0.00000000000E+00  0.45593999997E+02  0.45594000000E+02  0.51100000000E-03 0.  1.
         11   -1    0    0    0    0 -0.00000000000E+00 -0.00000000000E+00 -0.45593999997E+02  0.45594000000E+02  0.51100000000E-03 0. -1.
    9900012    2    1    2    0    0  0.50087389917E+01  0.18203812158E+02  0.25695424956E+02  0.59301935536E+02  0.49999984513E+02 0.  0.
         12    1    1    2    0    0 -0.50087389917E+01 -0.18203812158E+02 -0.25695424956E+02  0.31886064464E+02  0.00000000000E+00 0. -1.
         11    1    3    3    0    0  0.11436294834E+01  0.30805431931E+01 -0.14719091681E+02  0.15081422179E+02  0.51100000000E-03 0. -1.
        -11    1    3    3    0    0  0.57576645500E+01  0.56159229975E+01  0.15005318800E+02  0.17024948891E+02  0.51100000000E-03 0.  1.
         12    1    3    3    0    0 -0.18925550417E+01  0.95073459671E+01  0.25409197836E+02  0.27195564466E+02  0.00000000000E+00 0. -1.
</event>
<event>
 7    1  0.7674040E-012  0.5930195E+02  0.7816164E-02  0.1266605E+00
        -11   -1    0    0    0    0  0.00000000000E+00  0.00000000000E+00  0.45593999997E+02  0.45594000000E+02  0.51100000000E-03 0.  1.
         11   -1    0    0    0    0 -0.00000000000E+00 -0.00000000000E+00 -0.45593999997E+02  0.45594000000E+02  0.51100000000E-03 0. -1.
    9900012    2    1    2    0    0  0.29437293023E+02 -0.45435204482E+01  0.11380790311E+02  0.59301949968E+02  0.50000010833E+02 0.  0.
         12    1    1    2    0    0 -0.29437293023E+02  0.45435204482E+01 -0.11380790311E+02  0.31886050032E+02  0.00000000000E+00 0. -1.
         11    1    3    3    0    0 -0.12697386746E+02  0.31152798322E+01 -0.17611358689E+01  0.13192050577E+02  0.51100000000E-03 0. -1.
        -11    1    3    3    0    0  0.16804904963E+02 -0.64297171326E+01  0.10730265743E+01  0.18024912747E+02  0.51100000000E-03 0.  1.
         12    1    3    3    0    0  0.25329774806E+02 -0.12290831479E+01  0.12068899605E+02  0.28084986644E+02  0.00000000000E+00 0. -1.
</event>
<event>
 7    1  0.7674040E-012  0.5930200E+02  0.7816164E-02  0.1266605E+00
        -11   -1    0    0    0    0  0.00000000000E+00  0.00000000000E+00  0.45593999997E+02  0.45594000000E+02  0.51100000000E-03 0.  1.
         11   -1    0    0    0    0 -0.00000000000E+00 -0.00000000000E+00 -0.45593999997E+02  0.45594000000E+02  0.51100000000E-03 0. -1.
    9900012    2    1    2    0    0 -0.83976437454E+01  0.16443677482E+02  0.25996196735E+02  0.59301996891E+02  0.50000096410E+02 0.  0.
         12    1    1    2    0    0  0.83976437454E+01 -0.16443677482E+02 -0.25996196735E+02  0.31886003109E+02  0.00000000000E+00 0. -1.
         11    1    3    3    0    0  0.46526270855E+01  0.76728271103E+01 -0.41211484490E+01  0.98743647624E+01  0.51100000000E-03 0. -1.
        -11    1    3    3    0    0 -0.14683444861E+02 -0.11272651635E+02  0.10254248382E+02  0.21161895898E+02  0.51100000000E-03 0.  1.
        -12    1    3    3    0    0  0.16331740297E+01  0.20043502007E+02  0.19863096802E+02  0.28265736231E+02  0.00000000000E+00 0.  1.
</event>
<event>
 7    1  0.7674040E-012  0.5930192E+02  0.7816164E-02  0.1266605E+00
        -11   -1    0    0    0    0  0.00000000000E+00  0.00000000000E+00  0.45593999997E+02  0.45594000000E+02  0.51100000000E-03 0.  1.
         11   -1    0    0    0    0 -0.00000000000E+00 -0.00000000000E+00 -0.45593999997E+02  0.45594000000E+02  0.51100000000E-03 0. -1.
    9900012    2    1    2    0    0  0.87692192749E+01  0.27253477440E+02  0.14038182198E+02  0.59301924689E+02  0.49999964731E+02 0.  0.
         12    1    1    2    0    0 -0.87692192749E+01 -0.27253477440E+02 -0.14038182198E+02  0.31886075311E+02  0.00000000000E+00 0. -1.
         11    1    3    3    0    0 -0.77302823221E+01  0.20786248550E+02  0.24451092115E+02  0.33010321105E+02  0.51100000000E-03 0. -1.
        -11    1    3    3    0    0  0.58678563392E+01  0.94612276630E+01 -0.10416667990E+02  0.15246427096E+02  0.51100000000E-03 0.  1.
         12    1    3    3    0    0  0.10631645258E+02 -0.29939987731E+01  0.37580730936E-02  0.11045176489E+02  0.00000000000E+00 0. -1.
</event>
<event>
 7    1  0.7674040E-012  0.5930194E+02  0.7816164E-02  0.1266605E+00
        -11   -1    0    0    0    0  0.00000000000E+00  0.00000000000E+00  0.45593999997E+02  0.45594000000E+02  0.51100000000E-03 0.  1.
         11   -1    0    0    0    0 -0.00000000000E+00 -0.00000000000E+00 -0.45593999997E+02  0.45594000000E+02  0.51100000000E-03 0. -1.
    9900012    2    1    2    0    0  0.20188460263E+02 -0.58390754438E+01  0.23980241910E+02  0.59301941418E+02  0.49999995241E+02 0.  0.
         12    1    1    2    0    0 -0.20188460263E+02  0.58390754438E+01 -0.23980241910E+02  0.31886058582E+02  0.00000000000E+00 0. -1.
         11    1    3    3    0    0  0.22167062742E+01 -0.18042613366E+02 -0.13194737160E+01  0.18226099279E+02  0.51100000000E-03 0. -1.
        -11    1    3    3    0    0  0.39938390701E+01  0.14939920306E+02  0.49513547599E+01  0.16237853413E+02  0.51100000000E-03 0.  1.
         12    1    3    3    0    0  0.13977914918E+02 -0.27363823832E+01  0.20348360866E+02  0.24837988726E+02  0.00000000000E+00 0. -1.
</event>
<event>
 7    1  0.7674040E-012  0.5930196E+02  0.7816164E-02  0.1266605E+00
        -11   -1    0    0    0    0  0.00000000000E+00  0.00000000000E+00  0.45593999997E+02  0.45594000000E+02  0.51100000000E-03 0. -1.
         11   -1    0    0    0    0 -0.00000000000E+00 -0.00000000000E+00 -0.45593999997E+02  0.45594000000E+02  0.51100000000E-03 0.  1.
    9900012    2    1    2    0    0  0.24157666530E+02 -0.12765609212E+02 -0.16436723757E+02  0.59301960444E+02  0.50000029939E+02 0.  0.
         12    1    1    2    0    0 -0.24157666530E+02  0.12765609212E+02  0.16436723757E+02  0.31886039556E+02  0.00000000000E+00 0. -1.
         11    1    3    3    0    0 -0.21400787572E+01 -0.36705083343E+01  0.10805857477E+02  0.11611163792E+02  0.51100000000E-03 0. -1.
        -11    1    3    3    0    0  0.28614694208E+02 -0.19024811985E+01 -0.12829271094E+02  0.31416720968E+02  0.51100000000E-03 0.  1.
         12    1    3    3    0    0 -0.23169489212E+01 -0.71926196792E+01 -0.14413310141E+02  0.16274075684E+02  0.00000000000E+00 0. -1.
</event>
<event>
 7    1  0.7674040E-012  0.5930194E+02  0.7816164E-02  0.1266605E+00
        -11   -1    0    0    0    0  0.00000000000E+00  0.00000000000E+00  0.45593999997E+02  0.45594000000E+02  0.51100000000E-03 0.  1.
         11   -1    0    0    0    0 -0.00000000000E+00 -0.00000000000E+00 -0.45593999997E+02  0.45594000000E+02  0.51100000000E-03 0. -1.
    9900012    2    1    2    0    0 -0.22259460987E+02 -0.21191192049E+02  0.84953288504E+01  0.59301939783E+02  0.49999992259E+02 0.  0.
         12    1    1    2    0    0  0.22259460987E+02  0.21191192049E+02 -0.84953288504E+01  0.31886060217E+02  0.00000000000E+00 0. -1.
         11    1    3    3    0    0 -0.11719098277E+02 -0.11437432068E+02 -0.13198874696E+02  0.21032413324E+02  0.51100000000E-03 0. -1.
        -11    1    3    3    0    0 -0.19749223917E+02 -0.96261362837E+01  0.12602569671E+02  0.25328227488E+02  0.51100000000E-03 0.  1.
         12    1    3    3    0    0  0.92088612073E+01 -0.12762369750E+00  0.90916338753E+01  0.12941298971E+02  0.00000000000E+00 0. -1.
</event>
<event>
 7    1  0.7674040E-012  0.5930195E+02  0.7816164E-02  0.1266605E+00
        -11   -1    0    0    0    0  0.00000000000E+00  0.00000000000E+00  0.45593999997E+02  0.45594000000E+02  0.51100000000E-03 0.  1.
         11   -1    0    0    0    0 -0.00000000000E+00 -0.00000000000E+00 -0.45593999997E+02  0.45594000000E+02  0.51100000000E-03 0. -1.
    9900012    2    1    2    0    0 -0.19782698942E+02 -0.25006773943E+02  0.16195968349E+00  0.59301950521E+02  0.50000011842E+02 0.  0.
         12    1    1    2    0    0  0.19782698942E+02  0.25006773943E+02 -0.16195968349E+00  0.31886049479E+02  0.00000000000E+00 0. -1.
         11    1    3    3    0    0 -0.23447378959E+01 -0.13405181443E+01 -0.86352397027E+01  0.90477704259E+01  0.51100000000E-03 0. -1.
        -11    1    3    3    0    0 -0.23595797099E+02 -0.17864405399E+02  0.20362981649E+02  0.35924220839E+02  0.51100000000E-03 0.  1.
        -12    1    3    3    0    0  0.61578360527E+01 -0.58018504000E+01 -0.11565782263E+02  0.14329959256E+02  0.00000000000E+00 0.  1.
</event>
<event>
 7    1  0.7674040E-012  0.5930178E+02  0.7816164E-02  0.1266605E+00
        -11   -1    0    0    0    0  0.00000000000E+00  0.00000000000E+00  0.45593999997E+02  0.45594000000E+02  0.51100000000E-03 0.  1.
         11   -1    0    0    0    0 -0.00000000000E+00 -0.00000000000E+00 -0.45593999997E+02  0.45594000000E+02  0.51100000000E-03 0. -1.
    9900012    2    1    2    0    0 -0.14932394061E+02 -0.24157559536E+02  0.14497133198E+02  0.59301781251E+02  0.49999703134E+02 0.  0.
         12    1    1    2    0    0  0.14932394061E+02  0.24157559536E+02 -0.14497133198E+02  0.31886218749E+02  0.00000000000E+00 0. -1.
         11    1    3    3    0    0 -0.14473280289E+02 -0.31872919886E+02  0.22351478146E+01  0.35076413020E+02  0.51100000000E-03 0.  1.
        -11    1    3    3    0    0  0.56233601823E+01  0.69212119532E+01 -0.16061534563E+01  0.90611855641E+01  0.51100000000E-03 0. -1.
        -12    1    3    3    0    0 -0.60824739545E+01  0.79414839656E+00  0.13868138839E+02  0.15164182667E+02  0.00000000000E+00 0.  1.
</event>
<event>
 7    1  0.7674040E-012  0.5930183E+02  0.7816164E-02  0.1266605E+00
        -11   -1    0    0    0    0  0.00000000000E+00  0.00000000000E+00  0.45593999997E+02  0.45594000000E+02  0.51100000000E-03 0.  1.
         11   -1    0    0    0    0 -0.00000000000E+00 -0.00000000000E+00 -0.45593999997E+02  0.45594000000E+02  0.51100000000E-03 0. -1.
    9900012    2    1    2    0    0  0.16451446666E+02  0.81136032870E+01  0.26081546002E+02  0.59301832191E+02  0.49999796036E+02 0.  0.
         12    1    1    2    0    0 -0.16451446666E+02 -0.81136032870E+01 -0.26081546002E+02  0.31886167809E+02  0.00000000000E+00 0. -1.
         11    1    3    3    0    0  0.13651326788E+01  0.37504330207E+01 -0.90348396338E+01  0.98771282538E+01  0.51100000000E-03 0. -1.
        -11    1    3    3    0    0  0.31955168552E+00 -0.12079311425E+02  0.16951578057E+02  0.20817489682E+02  0.51100000000E-03 0.  1.
        -12    1    3    3    0    0  0.14766762302E+02  0.16442481691E+02  0.18164807579E+02  0.28607214255E+02  0.00000000000E+00 0.  1.
</event>
<event>
 7    1  0.7674040E-012  0.5930192E+02  0.7816164E-02  0.1266605E+00
        -11   -1    0    0    0    0  0.00000000000E+00  0.00000000000E+00  0.45593999997E+02  0.45594000000E+02  0.51100000000E-03 0.  1.
         11   -1    0    0    0    0 -0.00000000000E+00 -0.00000000000E+00 -0.45593999997E+02  0.45594000000E+02  0.51100000000E-03 0. -1.
    9900012    2    1    2    0    0 -0.28223893893E+02 -0.88805186915E+01  0.11885715791E+02  0.59301920928E+02  0.49999957872E+02 0.  0.
         12    1    1    2    0    0  0.28223893893E+02  0.88805186915E+01 -0.11885715791E+02  0.31886079072E+02  0.00000000000E+00 0. -1.
         11    1    3    3    0    0 -0.16243214214E+02 -0.19175414701E+02 -0.11110222675E+02  0.27476819050E+02  0.51100000000E-03 0. -1.
        -11    1    3    3    0    0  0.17559615225E+01  0.57620966357E+01  0.12742303526E+02  0.14094376819E+02  0.51100000000E-03 0.  1.
        -12    1    3    3    0    0 -0.13736641201E+02  0.45327993737E+01  0.10253634940E+02  0.17730725060E+02  0.00000000000E+00 0.  1.
</event>
<event>
 7    1  0.7674040E-012  0.5930198E+02  0.7816164E-02  0.1266605E+00
        -11   -1    0    0    0    0  0.00000000000E+00  0.00000000000E+00  0.45593999997E+02  0.45594000000E+02  0.51100000000E-03 0. -1.
         11   -1    0    0    0    0 -0.00000000000E+00 -0.00000000000E+00 -0.45593999997E+02  0.45594000000E+02  0.51100000000E-03 0.  1.
    9900012    2    1    2    0    0 -0.19777316018E+02 -0.24432348605E+02 -0.53513023193E+01  0.59301979180E+02  0.50000064109E+02 0.  0.
         12    1    1    2    0    0  0.19777316018E+02  0.24432348605E+02  0.53513023193E+01  0.31886020820E+02  0.00000000000E+00 0. -1.
         11    1    3    3    0    0  0.57853666182E+01 -0.19118975760E+02  0.94822206204E+00  0.19997620518E+02  0.51100000000E-03 0. -1.
        -11    1    3    3    0    0 -0.30540704188E+02 -0.25221733214E+01 -0.10306074648E+02  0.32331271943E+02  0.51100000000E-03 0.  1.
        -12    1    3    3    0    0  0.49780215519E+01 -0.27911995232E+01  0.40065502665E+01  0.69730867188E+01  0.00000000000E+00 0.  1.
</event>
<event>
 7    1  0.7674040E-012  0.5930187E+02  0.7816164E-02  0.1266605E+00
        -11   -1    0    0    0    0  0.00000000000E+00  0.00000000000E+00  0.45593999997E+02  0.45594000000E+02  0.51100000000E-03 0.  1.
         11   -1    0    0    0    0 -0.00000000000E+00 -0.00000000000E+00 -0.45593999997E+02  0.45594000000E+02  0.51100000000E-03 0. -1.
    9900012    2    1    2    0    0 -0.23482848785E+02 -0.12828127267E+02  0.17341287614E+02  0.59301869906E+02  0.49999864820E+02 0.  0.
         12    1    1    2    0    0  0.23482848785E+02  0.12828127267E+02 -0.17341287614E+02  0.31886130094E+02  0.00000000000E+00 0. -1.
         11    1    3    3    0    0 -0.78303706787E+01  0.77226150064E+01 -0.10193418231E+02  0.14995308033E+02  0.51100000000E-03 0. -1.
        -11    1    3    3    0    0 -0.20360671844E+02 -0.95598057508E+01  0.20501617793E+02  0.30434572058E+02  0.51100000000E-03 0.  1.
         12    1    3    3    0    0  0.47081937372E+01 -0.10990936522E+02  0.70330880519E+01  0.13871989816E+02  0.00000000000E+00 0. -1.
</event>
<event>
 7    1  0.7674040E-012  0.5930196E+02  0.7816164E-02  0.1266605E+00
        -11   -1    0    0    0    0  0.00000000000E+00  0.00000000000E+00  0.45593999997E+02  0.45594000000E+02  0.51100000000E-03 0. -1.
         11   -1    0    0    0    0 -0.00000000000E+00 -0.00000000000E+00 -0.45593999997E+02  0.45594000000E+02  0.51100000000E-03 0.  1.
    9900012    2    1    2    0    0 -0.27304804312E+02  0.13043297734E+02 -0.10051844547E+02  0.59301960216E+02  0.50000029524E+02 0.  0.
         12    1    1    2    0    0  0.27304804312E+02 -0.13043297734E+02  0.10051844547E+02  0.31886039784E+02  0.00000000000E+00 0. -1.
         11    1    3    3    0    0 -0.94166610289E+00  0.69916674866E+00  0.36224252310E+01  0.38075627384E+01  0.51100000000E-03 0. -1.
        -11    1    3    3    0    0 -0.28946458688E+02  0.11771661703E+02 -0.27373187889E+02  0.41542278528E+02  0.51100000000E-03 0.  1.
        -12    1    3    3    0    0  0.25833204792E+01  0.57246928195E+00  0.13698918111E+02  0.13952118950E+02  0.00000000000E+00 0.  1.
</event>
<event>
 7    1  0.7674040E-012  0.5930193E+02  0.7816164E-02  0.1266605E+00
        -11   -1    0    0    0    0  0.00000000000E+00  0.00000000000E+00  0.45593999997E+02  0.45594000000E+02  0.51100000000E-03 0.  1.
         11   -1    0    0    0    0 -0.00000000000E+00 -0.00000000000E+00 -0.45593999997E+02  0.45594000000E+02  0.51100000000E-03 0. -1.
    9900012    2    1    2    0    0 -0.83016416710E+01 -0.18089588729E+01  0.30733239163E+02  0.59301928181E+02  0.49999971099E+02 0.  0.
         12    1    1    2    0    0  0.83016416710E+01  0.18089588729E+01 -0.30733239163E+02  0.31886071819E+02  0.00000000000E+00 0. -1.
         11    1    3    3    0    0 -0.22398070965E+01 -0.11920664857E+02  0.55240758817E+01  0.13327955622E+02  0.51100000000E-03 0. -1.
        -11    1    3    3    0    0  0.11696938989E+01  0.23160552219E+02  0.12325199158E+02  0.26261947709E+02  0.51100000000E-03 0.  1.
        -12    1    3    3    0    0 -0.72315284735E+01 -0.13048846235E+02  0.12883964123E+02  0.19712024850E+02  0.00000000000E+00 0.  1.
</event>
<event>
 7    1  0.7674040E-012  0.5930195E+02  0.7816164E-02  0.1266605E+00
        -11   -1    0    0    0    0  0.00000000000E+00  0.00000000000E+00  0.45593999997E+02  0.45594000000E+02  0.51100000000E-03 0.  1.
         11   -1    0    0    0    0 -0.00000000000E+00 -0.00000000000E+00 -0.45593999997E+02  0.45594000000E+02  0.51100000000E-03 0. -1.
    9900012    2    1    2    0    0  0.15980433569E+02  0.20223390190E+02  0.18771264066E+02  0.59301950975E+02  0.50000012670E+02 0.  0.
         12    1    1    2    0    0 -0.15980433569E+02 -0.20223390190E+02 -0.18771264066E+02  0.31886049025E+02  0.00000000000E+00 0. -1.
         11    1    3    3    0    0  0.34247024944E+01  0.23661175487E+01 -0.44412130108E+01  0.60869920896E+01  0.51100000000E-03 0. -1.
        -11    1    3    3    0    0 -0.52847464594E+01 -0.12431635406E+01  0.26338606482E+02  0.26892307309E+02  0.51100000000E-03 0.  1.
        -12    1    3    3    0    0  0.17840477534E+02  0.19100436182E+02 -0.31261294053E+01  0.26322651577E+02  0.00000000000E+00 0.  1.
</event>
<event>
 7    1  0.7674040E-012  0.5930193E+02  0.7816164E-02  0.1266605E+00
        -11   -1    0    0    0    0  0.00000000000E+00  0.00000000000E+00  0.45593999997E+02  0.45594000000E+02  0.51100000000E-03 0. -1.
         11   -1    0    0    0    0 -0.00000000000E+00 -0.00000000000E+00 -0.45593999997E+02  0.45594000000E+02  0.51100000000E-03 0.  1.
    9900012    2    1    2    0    0 -0.14430079947E+02  0.34567710008E+01 -0.28223132968E+02  0.59301926119E+02  0.49999967339E+02 0.  0.
         12    1    1    2    0    0  0.14430079947E+02 -0.34567710008E+01  0.28223132968E+02  0.31886073881E+02  0.00000000000E+00 0. -1.
         11    1    3    3    0    0  0.93061253915E+01 -0.79954134386E+01  0.36735904383E+01  0.12807258599E+02  0.51100000000E-03 0. -1.
        -11    1    3    3    0    0 -0.21048725082E+01  0.12006410011E+02 -0.11593580131E+02  0.16822469204E+02  0.51100000000E-03 0.  1.
         12    1    3    3    0    0 -0.21631332830E+02 -0.55422557156E+00 -0.20303143276E+02  0.29672198315E+02  0.00000000000E+00 0. -1.
</event>
<event>
 7    1  0.7674040E-012  0.5930193E+02  0.7816164E-02  0.1266605E+00
        -11   -1    0    0    0    0  0.00000000000E+00  0.00000000000E+00  0.45593999997E+02  0.45594000000E+02  0.51100000000E-03 0.  1.
         11   -1    0    0    0    0 -0.00000000000E+00 -0.00000000000E+00 -0.45593999997E+02  0.45594000000E+02  0.51100000000E-03 0. -1.
    9900012    2    1    2    0    0  0.12942542262E+02 -0.17322376985E+02  0.23433897508E+02  0.59301926284E+02  0.49999967640E+02 0.  0.
         12    1    1    2    0    0 -0.12942542262E+02  0.17322376985E+02 -0.23433897508E+02  0.31886073716E+02  0.00000000000E+00 0. -1.
         11    1    3    3    0    0  0.10204041485E+02 -0.11171489534E+02  0.53033448844E+01  0.16032782299E+02  0.51100000000E-03 0.  1.
        -11    1    3    3    0    0  0.56292573824E+01  0.15639559870E+02  0.11832771240E+02  0.20403402831E+02  0.51100000000E-03 0. -1.
        -12    1    3    3    0    0 -0.28907566053E+01 -0.21790447320E+02  0.62977813842E+01  0.22865741154E+02  0.00000000000E+00 0.  1.
</event>
<event>
 7    1  0.7674040E-012  0.5930196E+02  0.7816164E-02  0.1266605E+00
        -11   -1    0    0    0    0  0.00000000000E+00  0.00000000000E+00  0.45593999997E+02  0.45594000000E+02  0.51100000000E-03 0.  1.
         11   -1    0    0    0    0 -0.00000000000E+00 -0.00000000000E+00 -0.45593999997E+02  0.45594000000E+02  0.51100000000E-03 0. -1.
    9900012    2    1    2    0    0  0.49845633007E+01 -0.17796156868E+02 -0.25984043027E+02  0.59301959754E+02  0.50000028681E+02 0.  0.
         12    1    1    2    0    0 -0.49845633007E+01  0.17796156868E+02  0.25984043027E+02  0.31886040246E+02  0.00000000000E+00 0. -1.
         11    1    3    3    0    0 -0.58568008764E+00  0.88180655995E+01 -0.27157914176E+02  0.28559649940E+02  0.51100000000E-03 0. -1.
        -11    1    3    3    0    0  0.61481801854E+01 -0.24628255692E+02 -0.35066588428E+01  0.25625139113E+02  0.51100000000E-03 0.  1.
        -12    1    3    3    0    0 -0.57793679708E+00 -0.19859667751E+01  0.46805299921E+01  0.51171707007E+01  0.00000000000E+00 0.  1.
</event>
<event>
 7    1  0.7674040E-012  0.5930195E+02  0.7816164E-02  0.1266605E+00
        -11   -1    0    0    0    0  0.00000000000E+00  0.00000000000E+00  0.45593999997E+02  0.45594000000E+02  0.51100000000E-03 0. -1.
         11   -1    0    0    0    0 -0.00000000000E+00 -0.00000000000E+00 -0.45593999997E+02  0.45594000000E+02  0.51100000000E-03 0.  1.
    9900012    2    1    2    0    0  0.19366524686E+02 -0.24719181730E+02 -0.55335334484E+01  0.59301949504E+02  0.50000009987E+02 0.  0.
         12    1    1    2    0    0 -0.19366524686E+02  0.24719181730E+02  0.55335334484E+01  0.31886050496E+02  0.00000000000E+00 0. -1.
         11    1    3    3    0    0  0.89498497690E+01 -0.13815417115E+02  0.97061466859E+01  0.19109548521E+02  0.51100000000E-03 0. -1.
        -11    1    3    3    0    0  0.77522350100E-02  0.12311662559E+01 -0.22570636122E+02  0.22604190887E+02  0.51100000000E-03 0.  1.
        -12    1    3    3    0    0  0.10408922682E+02 -0.12134930872E+02  0.73309559877E+01  0.17588210095E+02  0.00000000000E+00 0.  1.
</event>
<event>
 7    1  0.7674040E-012  0.5930189E+02  0.7816164E-02  0.1266605E+00
        -11   -1    0    0    0    0  0.00000000000E+00  0.00000000000E+00  0.45593999997E+02  0.45594000000E+02  0.51100000000E-03 0. -1.
         11   -1    0    0    0    0 -0.00000000000E+00 -0.00000000000E+00 -0.45593999997E+02  0.45594000000E+02  0.51100000000E-03 0.  1.
    9900012    2    1    2    0    0  0.14855437880E+02  0.24940794124E+02 -0.13190775309E+02  0.59301893318E+02  0.49999907517E+02 0.  0.
         12    1    1    2    0    0 -0.14855437880E+02 -0.24940794124E+02  0.13190775309E+02  0.31886106682E+02  0.00000000000E+00 0. -1.
         11    1    3    3    0    0  0.15470360228E+02  0.23604731598E+00  0.74827691333E+01  0.17186611012E+02  0.51100000000E-03 0. -1.
        -11    1    3    3    0    0 -0.25503424265E+01  0.25155348872E+02 -0.43312262593E+01  0.25652589431E+02  0.51100000000E-03 0.  1.
        -12    1    3    3    0    0  0.19354200788E+01 -0.45060206412E+00 -0.16342318183E+02  0.16462692875E+02  0.00000000000E+00 0.  1.
</event>
<event>
 7    1  0.7674040E-012  0.5930200E+02  0.7816164E-02  0.1266605E+00
        -11   -1    0    0    0    0  0.00000000000E+00  0.00000000000E+00  0.45593999997E+02  0.45594000000E+02  0.51100000000E-03 0. -1.
         11   -1    0    0    0    0 -0.00000000000E+00 -0.00000000000E+00 -0.45593999997E+02  0.45594000000E+02  0.51100000000E-03 0.  1.
    9900012    2    1    2    0    0 -0.19346630119E+02  0.16467717948E+02 -0.19267570188E+02  0.59301998489E+02  0.50000099325E+02 0.  0.
         12    1    1    2    0    0  0.19346630119E+02 -0.16467717948E+02  0.19267570188E+02  0.31886001511E+02  0.00000000000E+00 0. -1.
         11    1    3    3    0    0 -0.51151214434E+01  0.13928346449E+02  0.88696466796E+01  0.17286813896E+02  0.51100000000E-03 0. -1.
        -11    1    3    3    0    0 -0.96064276649E+01  0.89075675254E+01 -0.30988616692E+02  0.33644057075E+02  0.51100000000E-03 0.  1.
         12    1    3    3    0    0 -0.46250810103E+01 -0.63681960265E+01  0.28513998238E+01  0.83711275190E+01  0.00000000000E+00 0. -1.
</event>
<event>
 7    1  0.7674040E-012  0.5930193E+02  0.7816164E-02  0.1266605E+00
        -11   -1    0    0    0    0  0.00000000000E+00  0.00000000000E+00  0.45593999997E+02  0.45594000000E+02  0.51100000000E-03 0. -1.
         11   -1    0    0    0    0 -0.00000000000E+00 -0.00000000000E+00 -0.45593999997E+02  0.45594000000E+02  0.51100000000E-03 0.  1.
    9900012    2    1    2    0    0  0.88018610086E+01 -0.26662353588E+02 -0.15111831027E+02  0.59301932618E+02  0.49999979192E+02 0.  0.
         12    1    1    2    0    0 -0.88018610086E+01  0.26662353588E+02  0.15111831027E+02  0.31886067382E+02  0.00000000000E+00 0. -1.
         11    1    3    3    0    0  0.24037694838E+02 -0.66609186105E+01 -0.25836390024E+01  0.25076957563E+02  0.51100000000E-03 0. -1.
        -11    1    3    3    0    0 -0.81073142356E+01 -0.17650685764E+02  0.22721089746E+00  0.19424903529E+02  0.51100000000E-03 0.  1.
         12    1    3    3    0    0 -0.71285195939E+01 -0.23507492134E+01 -0.12755402922E+02  0.14800071526E+02  0.00000000000E+00 0. -1.
</event>
<event>
 7    1  0.7674040E-012  0.5930194E+02  0.7816164E-02  0.1266605E+00
        -11   -1    0    0    0    0  0.00000000000E+00  0.00000000000E+00  0.45593999997E+02  0.45594000000E+02  0.51100000000E-03 0.  1.
         11   -1    0    0    0    0 -0.00000000000E+00 -0.00000000000E+00 -0.45593999997E+02  0.45594000000E+02  0.51100000000E-03 0. -1.
    9900012    2    1    2    0    0  0.25851598630E+02 -0.18536817690E+02  0.21913438707E+01  0.59301941138E+02  0.49999994730E+02 0.  0.
         12    1    1    2    0    0 -0.25851598630E+02  0.18536817690E+02 -0.21913438707E+01  0.31886058862E+02  0.00000000000E+00 0. -1.
         11    1    3    3    0    0 -0.59569925993E+01  0.23832111087E+01  0.20218132737E+01  0.67270487728E+01  0.51100000000E-03 0. -1.
        -11    1    3    3    0    0  0.22723207781E+02 -0.25156669318E+02  0.12987352025E+02  0.36302527404E+02  0.51100000000E-03 0.  1.
        -12    1    3    3    0    0  0.90853834483E+01  0.42366405187E+01 -0.12817821428E+02  0.16272364961E+02  0.00000000000E+00 0.  1.
</event>
<event>
 7    1  0.7674040E-012  0.5930187E+02  0.7816164E-02  0.1266605E+00
        -11   -1    0    0    0    0  0.00000000000E+00  0.00000000000E+00  0.45593999997E+02  0.45594000000E+02  0.51100000000E-03 0.  1.
         11   -1    0    0    0    0 -0.00000000000E+00 -0.00000000000E+00 -0.45593999997E+02  0.45594000000E+02  0.51100000000E-03 0. -1.
    9900012    2    1    2    0    0  0.29897318515E+02 -0.98651445142E+01 -0.50551367694E+01  0.59301872320E+02  0.49999869222E+02 0.  0.
         12    1    1    2    0    0 -0.29897318515E+02  0.98651445142E+01  0.50551367694E+01  0.31886127680E+02  0.00000000000E+00 0. -1.
         11    1    3    3    0    0  0.22535409525E+02  0.54560704833E+01 -0.13058011211E+02  0.26610619020E+02  0.51100000000E-03 0. -1.
        -11    1    3    3    0    0  0.78780379391E+00 -0.41983507814E+01  0.16620485102E+02  0.17160632546E+02  0.51100000000E-03 0.  1.
         12    1    3    3    0    0  0.65741051960E+01 -0.11122864216E+02 -0.86176106603E+01  0.15530620754E+02  0.00000000000E+00 0. -1.
</event>
<event>
 7    1  0.7674040E-012  0.5930192E+02  0.7816164E-02  0.1266605E+00
        -11   -1    0    0    0    0  0.00000000000E+00  0.00000000000E+00  0.45593999997E+02  0.45594000000E+02  0.51100000000E-03 0. -1.
         11   -1    0    0    0    0 -0.00000000000E+00 -0.00000000000E+00 -0.45593999997E+02  0.45594000000E+02  0.51100000000E-03 0.  1.
    9900012    2    1    2    0    0  0.18501596561E+02 -0.22012740981E+02 -0.13778690597E+02  0.59301919097E+02  0.49999954532E+02 0.  0.
         12    1    1    2    0    0 -0.18501596561E+02  0.22012740981E+02  0.13778690597E+02  0.31886080903E+02  0.00000000000E+00 0. -1.
         11    1    3    3    0    0 -0.16365841138E+01  0.79879964290E+01 -0.11069093276E+02  0.13748138810E+02  0.51100000000E-03 0. -1.
        -11    1    3    3    0    0  0.16270287975E+02 -0.16036227068E+02 -0.14340644183E+02  0.26972892414E+02  0.51100000000E-03 0.  1.
         12    1    3    3    0    0  0.38678927001E+01 -0.13964510343E+02  0.11631046862E+02  0.18580887873E+02  0.00000000000E+00 0. -1.
</event>
<event>
 7    1  0.7674040E-012  0.5930194E+02  0.7816164E-02  0.1266605E+00
        -11   -1    0    0    0    0  0.00000000000E+00  0.00000000000E+00  0.45593999997E+02  0.45594000000E+02  0.51100000000E-03 0.  1.
         11   -1    0    0    0    0 -0.00000000000E+00 -0.00000000000E+00 -0.45593999997E+02  0.45594000000E+02  0.51100000000E-03 0. -1.
    9900012    2    1    2    0    0 -0.11354111770E+02  0.62046275302E+01  0.29142881511E+02  0.59301940355E+02  0.49999993302E+02 0.  0.
         12    1    1    2    0    0  0.11354111770E+02 -0.62046275302E+01 -0.29142881511E+02  0.31886059645E+02  0.00000000000E+00 0. -1.
         11    1    3    3    0    0 -0.19289885792E+02  0.81264519028E+01  0.14261607643E+02  0.25328489241E+02  0.51100000000E-03 0. -1.
        -11    1    3    3    0    0  0.13939812459E+02 -0.11964317951E+02  0.61428697540E+01  0.19370031608E+02  0.51100000000E-03 0.  1.
        -12    1    3    3    0    0 -0.60040384367E+01  0.10042493578E+02  0.87384041148E+01  0.14603419507E+02  0.00000000000E+00 0.  1.
</event>
<event>
 7    1  0.7674040E-012  0.5930195E+02  0.7816164E-02  0.1266605E+00
        -11   -1    0    0    0    0  0.00000000000E+00  0.00000000000E+00  0.45593999997E+02  0.45594000000E+02  0.51100000000E-03 0. -1.
         11   -1    0    0    0    0 -0.00000000000E+00 -0.00000000000E+00 -0.45593999997E+02  0.45594000000E+02  0.51100000000E-03 0.  1.
    9900012    2    1    2    0    0 -0.26637486365E+02 -0.14744469671E+02 -0.94744611152E+01  0.59301945381E+02  0.50000002469E+02 0.  0.
         12    1    1    2    0    0  0.26637486365E+02  0.14744469671E+02  0.94744611152E+01  0.31886054619E+02  0.00000000000E+00 0. -1.
         11    1    3    3    0    0  0.50423464625E+01  0.63571740976E+01  0.35683600043E+01  0.88640912527E+01  0.51100000000E-03 0. -1.
        -11    1    3    3    0    0 -0.14124053883E+02 -0.26775491986E+02 -0.81411125191E+01  0.31347943832E+02  0.51100000000E-03 0.  1.
        -12    1    3    3    0    0 -0.17555778944E+02  0.56738482177E+01 -0.49017086004E+01  0.19089910297E+02  0.00000000000E+00 0.  1.
</event>
<event>
 7    1  0.7674040E-012  0.5930194E+02  0.7816164E-02  0.1266605E+00
        -11   -1    0    0    0    0  0.00000000000E+00  0.00000000000E+00  0.45593999997E+02  0.45594000000E+02  0.51100000000E-03 0.  1.
         11   -1    0    0    0    0 -0.00000000000E+00 -0.00000000000E+00 -0.45593999997E+02  0.45594000000E+02  0.51100000000E-03 0. -1.
    9900012    2    1    2    0    0 -0.12417755046E+02  0.23593081806E+02  0.17489620156E+02  0.59301937799E+02  0.49999988640E+02 0.  0.
         12    1    1    2    0    0  0.12417755046E+02 -0.23593081806E+02 -0.17489620156E+02  0.31886062201E+02  0.00000000000E+00 0. -1.
         11    1    3    3    0    0 -0.11712711070E+02 -0.81139824821E+01  0.19397300422E+02  0.24068227526E+02  0.51100000000E-03 0. -1.
        -11    1    3    3    0    0 -0.45282157317E+01  0.13689632525E+02  0.54295332104E+01  0.15407485439E+02  0.51100000000E-03 0.  1.
         12    1    3    3    0    0  0.38231717553E+01  0.18017431763E+02 -0.73372134763E+01  0.19826224834E+02  0.00000000000E+00 0. -1.
</event>
<event>
 7    1  0.7674040E-012  0.5930194E+02  0.7816164E-02  0.1266605E+00
        -11   -1    0    0    0    0  0.00000000000E+00  0.00000000000E+00  0.45593999997E+02  0.45594000000E+02  0.51100000000E-03 0.  1.
         11   -1    0    0    0    0 -0.00000000000E+00 -0.00000000000E+00 -0.45593999997E+02  0.45594000000E+02  0.51100000000E-03 0. -1.
    9900012    2    1    2    0    0  0.81657780499E+01  0.19197377633E+01  0.30762894987E+02  0.59301936708E+02  0.49999986651E+02 0.  0.
         12    1    1    2    0    0 -0.81657780499E+01 -0.19197377633E+01 -0.30762894987E+02  0.31886063292E+02  0.00000000000E+00 0. -1.
         11    1    3    3    0    0 -0.15842454527E+02  0.33460355275E+01  0.12084131194E+02  0.20204097262E+02  0.51100000000E-03 0. -1.
        -11    1    3    3    0    0  0.24157833081E+02 -0.74353829767E+01  0.74330456458E+01  0.26346460617E+02  0.51100000000E-03 0.  1.
        -12    1    3    3    0    0 -0.14960050406E+00  0.60090852125E+01  0.11245718148E+02  0.12751378830E+02  0.00000000000E+00 0.  1.
</event>
<event>
 7    1  0.7674040E-012  0.5930185E+02  0.7816164E-02  0.1266605E+00
        -11   -1    0    0    0    0  0.00000000000E+00  0.00000000000E+00  0.45593999997E+02  0.45594000000E+02  0.51100000000E-03 0. -1.
         11   -1    0    0    0    0 -0.00000000000E+00 -0.00000000000E+00 -0.45593999997E+02  0.45594000000E+02  0.51100000000E-03 0.  1.
    9900012    2    1    2    0    0 -0.80819226062E+01  0.17885410788E+02 -0.25130078643E+02  0.59301854973E+02  0.49999837586E+02 0.  0.
         12    1    1    2    0    0  0.80819226062E+01 -0.17885410788E+02  0.25130078643E+02  0.31886145027E+02  0.00000000000E+00 0. -1.
         11    1    3    3    0    0 -0.50880266593E+01 -0.10584015773E+02  0.61642363139E+01  0.13263001725E+02  0.51100000000E-03 0. -1.
        -11    1    3    3    0    0 -0.86505343028E+01  0.24935687925E+02 -0.20800282126E+02  0.33604642727E+02  0.51100000000E-03 0.  1.
         12    1    3    3    0    0  0.56566383558E+01  0.35337386362E+01 -0.10494032831E+02  0.12434210522E+02  0.00000000000E+00 0. -1.
</event>
<event>
 7    1  0.7674040E-012  0.5930197E+02  0.7816164E-02  0.1266605E+00
        -11   -1    0    0    0    0  0.00000000000E+00  0.00000000000E+00  0.45593999997E+02  0.45594000000E+02  0.51100000000E-03 0.  1.
         11   -1    0    0    0    0 -0.00000000000E+00 -0.00000000000E+00 -0.45593999997E+02  0.45594000000E+02  0.51100000000E-03 0. -1.
    9900012    2    1    2    0    0  0.22524219629E+02 -0.70581756083E+01  0.21437371591E+02  0.59301965227E+02  0.50000038662E+02 0.  0.
         12    1    1    2    0    0 -0.22524219629E+02  0.70581756083E+01 -0.21437371591E+02  0.31886034773E+02  0.00000000000E+00 0. -1.
         11    1    3    3    0    0  0.16292873701E+02 -0.11916573658E+02 -0.67503816524E+01  0.21284504079E+02  0.51100000000E-03 0. -1.
        -11    1    3    3    0    0  0.24877877770E+01  0.13338827099E+02  0.78726570839E+01  0.15687323743E+02  0.51100000000E-03 0.  1.
         12    1    3    3    0    0  0.37435581512E+01 -0.84804290499E+01  0.20315096160E+02  0.22330137404E+02  0.00000000000E+00 0. -1.
</event>
<event>
 7    1  0.7674040E-012  0.5930193E+02  0.7816164E-02  0.1266605E+00
        -11   -1    0    0    0    0  0.00000000000E+00  0.00000000000E+00  0.45593999997E+02  0.45594000000E+02  0.51100000000E-03 0. -1.
         11   -1    0    0    0    0 -0.00000000000E+00 -0.00000000000E+00 -0.45593999997E+02  0.45594000000E+02  0.51100000000E-03 0.  1.
    9900012    2    1    2    0    0 -0.31882025486E+02 -0.25373605992E+00 -0.44023283362E+00  0.59301925672E+02  0.49999966523E+02 0.  0.
         12    1    1    2    0    0  0.31882025486E+02  0.25373605992E+00  0.44023283362E+00  0.31886074328E+02  0.00000000000E+00 0. -1.
         11    1    3    3    0    0 -0.26161958032E+01 -0.12833588010E+02 -0.69104973758E+01  0.14808795897E+02  0.51100000000E-03 0. -1.
        -11    1    3    3    0    0 -0.57215192090E+01  0.18765270476E+02  0.17457915022E+01  0.19695658058E+02  0.51100000000E-03 0.  1.
         12    1    3    3    0    0 -0.23544310474E+02 -0.61854185261E+01  0.47244730400E+01  0.24797471717E+02  0.00000000000E+00 0. -1.
</event>
<event>
 7    1  0.7674040E-012  0.5930196E+02  0.7816164E-02  0.1266605E+00
        -11   -1    0    0    0    0  0.00000000000E+00  0.00000000000E+00  0.45593999997E+02  0.45594000000E+02  0.51100000000E-03 0.  1.
         11   -1    0    0    0    0 -0.00000000000E+00 -0.00000000000E+00 -0.45593999997E+02  0.45594000000E+02  0.51100000000E-03 0. -1.
    9900012    2    1    2    0    0 -0.84072360678E+01  0.81920474921E+01  0.29646725197E+02  0.59301959554E+02  0.50000028316E+02 0.  0.
         12    1    1    2    0    0  0.84072360678E+01 -0.81920474921E+01 -0.29646725197E+02  0.31886040446E+02  0.00000000000E+00 0. -1.
         11    1    3    3    0    0 -0.64139000217E+01  0.24831777445E+02  0.20514859334E+02  0.32842270602E+02  0.51100000000E-03 0. -1.
        -11    1    3    3    0    0  0.62515228944E+01 -0.14239027517E+02  0.87952548579E+01  0.17865831954E+02  0.51100000000E-03 0.  1.
         12    1    3    3    0    0 -0.82448589404E+01 -0.24007024354E+01  0.33661100577E+00  0.85938569978E+01  0.00000000000E+00 0. -1.
</event>
<event>
 7    1  0.7674040E-012  0.5930194E+02  0.7816164E-02  0.1266605E+00
        -11   -1    0    0    0    0  0.00000000000E+00  0.00000000000E+00  0.45593999997E+02  0.45594000000E+02  0.51100000000E-03 0. -1.
         11   -1    0    0    0    0 -0.00000000000E+00 -0.00000000000E+00 -0.45593999997E+02  0.45594000000E+02  0.51100000000E-03 0.  1.
    9900012    2    1    2    0    0 -0.81852806259E+01  0.30527867994E+00 -0.30816043285E+02  0.59301944463E+02  0.50000000794E+02 0.  0.
         12    1    1    2    0    0  0.81852806259E+01 -0.30527867994E+00  0.30816043285E+02  0.31886055537E+02  0.00000000000E+00 0. -1.
         11    1    3    3    0    0  0.61822588034E+01  0.35412722945E+01  0.57409276449E+01  0.91498187885E+01  0.51100000000E-03 0. -1.
        -11    1    3    3    0    0 -0.30441010668E+01 -0.59266054752E+01 -0.37859008834E+02  0.38440808445E+02  0.51100000000E-03 0.  1.
        -12    1    3    3    0    0 -0.11323438362E+02  0.26906118606E+01  0.13020379048E+01  0.11711317229E+02  0.00000000000E+00 0.  1.
</event>
<event>
 7    1  0.7674040E-012  0.5930198E+02  0.7816164E-02  0.1266605E+00
        -11   -1    0    0    0    0  0.00000000000E+00  0.00000000000E+00  0.45593999997E+02  0.45594000000E+02  0.51100000000E-03 0.  1.
         11   -1    0    0    0    0 -0.00000000000E+00 -0.00000000000E+00 -0.45593999997E+02  0.45594000000E+02  0.51100000000E-03 0. -1.
    9900012    2    1    2    0    0 -0.16307329706E+02  0.12701781202E+01  0.27371074225E+02  0.59301983334E+02  0.50000071685E+02 0.  0.
         12    1    1    2    0    0  0.16307329706E+02 -0.12701781202E+01 -0.27371074225E+02  0.31886016666E+02  0.00000000000E+00 0. -1.
         11    1    3    3    0    0 -0.21829602417E+02 -0.61427842033E+01 -0.18815143255E+01  0.22755338623E+02  0.51100000000E-03 0. -1.
        -11    1    3    3    0    0 -0.32861813945E+01  0.40731455040E+01  0.26089780806E+02  0.26609512683E+02  0.51100000000E-03 0.  1.
         12    1    3    3    0    0  0.88084541052E+01  0.33398168194E+01  0.31628077447E+01  0.99371320279E+01  0.00000000000E+00 0. -1.
</event>
<event>
 7    1  0.7674040E-012  0.5930190E+02  0.7816164E-02  0.1266605E+00
        -11   -1    0    0    0    0  0.00000000000E+00  0.00000000000E+00  0.45593999997E+02  0.45594000000E+02  0.51100000000E-03 0.  1.
         11   -1    0    0    0    0 -0.00000000000E+00 -0.00000000000E+00 -0.45593999997E+02  0.45594000000E+02  0.51100000000E-03 0. -1.
    9900012    2    1    2    0    0  0.16282994853E+02 -0.27390309825E+02 -0.11654887987E+01  0.59301900241E+02  0.49999920144E+02 0.  0.
         12    1    1    2    0    0 -0.16282994853E+02  0.27390309825E+02  0.11654887987E+01  0.31886099759E+02  0.00000000000E+00 0. -1.
         11    1    3    3    0    0  0.11044518352E+02 -0.22836666951E+02 -0.16933219551E+02  0.30499650288E+02  0.51100000000E-03 0. -1.
        -11    1    3    3    0    0  0.90730731415E+00 -0.11476201951E+02  0.17013140037E+02  0.20541989971E+02  0.51100000000E-03 0.  1.
         12    1    3    3    0    0  0.43311691867E+01  0.69225590766E+01 -0.12454092853E+01  0.82602599826E+01  0.00000000000E+00 0. -1.
</event>
<event>
 7    1  0.7674040E-012  0.5930194E+02  0.7816164E-02  0.1266605E+00
        -11   -1    0    0    0    0  0.00000000000E+00  0.00000000000E+00  0.45593999997E+02  0.45594000000E+02  0.51100000000E-03 0.  1.
         11   -1    0    0    0    0 -0.00000000000E+00 -0.00000000000E+00 -0.45593999997E+02  0.45594000000E+02  0.51100000000E-03 0. -1.
    9900012    2    1    2    0    0  0.24032583811E+02  0.20920807992E+02 -0.12147066429E+01  0.59301940289E+02  0.49999993182E+02 0.  0.
         12    1    1    2    0    0 -0.24032583811E+02 -0.20920807992E+02  0.12147066429E+01  0.31886059711E+02  0.00000000000E+00 0. -1.
         11    1    3    3    0    0  0.63015949093E+01 -0.82656568836E+01  0.13383169484E+02  0.16945217845E+02  0.51100000000E-03 0. -1.
        -11    1    3    3    0    0  0.11403671667E+02  0.28520705230E+02 -0.54219558547E+01  0.31190895465E+02  0.51100000000E-03 0.  1.
         12    1    3    3    0    0  0.63273172338E+01  0.66575964529E+00 -0.91759202723E+01  0.11165826979E+02  0.00000000000E+00 0. -1.
</event>
<event>
 7    1  0.7674040E-012  0.5930195E+02  0.7816164E-02  0.1266605E+00
        -11   -1    0    0    0    0  0.00000000000E+00  0.00000000000E+00  0.45593999997E+02  0.45594000000E+02  0.51100000000E-03 0. -1.
         11   -1    0    0    0    0 -0.00000000000E+00 -0.00000000000E+00 -0.45593999997E+02  0.45594000000E+02  0.51100000000E-03 0.  1.
    9900012    2    1    2    0    0 -0.28671362480E+02 -0.23922030629E+01 -0.13745924858E+02  0.59301951136E+02  0.50000012964E+02 0.  0.
         12    1    1    2    0    0  0.28671362480E+02  0.23922030629E+01  0.13745924858E+02  0.31886048864E+02  0.00000000000E+00 0. -1.
         11    1    3    3    0    0 -0.48905806663E+00  0.28878478488E+01 -0.38926690490E+01  0.48715208689E+01  0.51100000000E-03 0. -1.
        -11    1    3    3    0    0 -0.36489191416E+02 -0.16088878067E+02 -0.79943437718E+01  0.40672135674E+02  0.51100000000E-03 0.  1.
        -12    1    3    3    0    0  0.83068870025E+01  0.10808827156E+02 -0.18589120375E+01  0.13758294593E+02  0.00000000000E+00 0.  1.
</event>
<event>
 7    1  0.7674040E-012  0.5930196E+02  0.7816164E-02  0.1266605E+00
        -11   -1    0    0    0    0  0.00000000000E+00  0.00000000000E+00  0.45593999997E+02  0.45594000000E+02  0.51100000000E-03 0.  1.
         11   -1    0    0    0    0 -0.00000000000E+00 -0.00000000000E+00 -0.45593999997E+02  0.45594000000E+02  0.51100000000E-03 0. -1.
    9900012    2    1    2    0    0 -0.19742907896E+02 -0.21414846129E+02  0.12974650461E+02  0.59301959143E+02  0.50000027567E+02 0.  0.
         12    1    1    2    0    0  0.19742907896E+02  0.21414846129E+02 -0.12974650461E+02  0.31886040857E+02  0.00000000000E+00 0. -1.
         11    1    3    3    0    0 -0.14923270813E+01  0.83525243718E+01 -0.10448047949E+02  0.13459324266E+02  0.51100000000E-03 0. -1.
        -11    1    3    3    0    0 -0.58603736150E+01 -0.57753176634E+00  0.95736053958E+01  0.11239726081E+02  0.51100000000E-03 0.  1.
         12    1    3    3    0    0 -0.12390207200E+02 -0.29189838735E+02  0.13849093014E+02  0.34602908796E+02  0.00000000000E+00 0. -1.
</event>
<event>
 7    1  0.7674040E-012  0.5930196E+02  0.7816164E-02  0.1266605E+00
        -11   -1    0    0    0    0  0.00000000000E+00  0.00000000000E+00  0.45593999997E+02  0.45594000000E+02  0.51100000000E-03 0. -1.
         11   -1    0    0    0    0 -0.00000000000E+00 -0.00000000000E+00 -0.45593999997E+02  0.45594000000E+02  0.51100000000E-03 0.  1.
    9900012    2    1    2    0    0 -0.27948272546E+02 -0.14092612891E+02  0.60837152439E+01  0.59301964380E+02  0.50000037118E+02 0.  0.
         12    1    1    2    0    0  0.27948272546E+02  0.14092612891E+02 -0.60837152439E+01  0.31886035620E+02  0.00000000000E+00 0. -1.
         11    1    3    3    0    0  0.14783000883E+01 -0.17976924268E+02  0.65408283497E+01  0.19186912546E+02  0.51100000000E-03 0. -1.
        -11    1    3    3    0    0 -0.10235082829E+02  0.14811255742E+02  0.49397916193E+00  0.18010392357E+02  0.51100000000E-03 0.  1.
        -12    1    3    3    0    0 -0.19191489805E+02 -0.10926944366E+02 -0.95109226781E+00  0.22104659478E+02  0.00000000000E+00 0.  1.
</event>
<event>
 7    1  0.7674040E-012  0.5930194E+02  0.7816164E-02  0.1266605E+00
        -11   -1    0    0    0    0  0.00000000000E+00  0.00000000000E+00  0.45593999997E+02  0.45594000000E+02  0.51100000000E-03 0.  1.
         11   -1    0    0    0    0 -0.00000000000E+00 -0.00000000000E+00 -0.45593999997E+02  0.45594000000E+02  0.51100000000E-03 0. -1.
    9900012    2    1    2    0    0  0.19616107174E+01 -0.31436146881E+02 -0.49640573611E+01  0.59301935445E+02  0.49999984347E+02 0.  0.
         12    1    1    2    0    0 -0.19616107174E+01  0.31436146881E+02  0.49640573611E+01  0.31886064555E+02  0.00000000000E+00 0. -1.
         11    1    3    3    0    0 -0.10430651041E+02 -0.11527803653E+02  0.17154933728E+01  0.15640705098E+02  0.51100000000E-03 0. -1.
        -11    1    3    3    0    0  0.14644380305E+02 -0.28496156799E+02  0.80521702208E+00  0.32048981287E+02  0.51100000000E-03 0.  1.
        -12    1    3    3    0    0 -0.22521185463E+01  0.85878135702E+01 -0.74847677559E+01  0.11612249060E+02  0.00000000000E+00 0.  1.
</event>
<event>
 7    1  0.7674040E-012  0.5930198E+02  0.7816164E-02  0.1266605E+00
        -11   -1    0    0    0    0  0.00000000000E+00  0.00000000000E+00  0.45593999997E+02  0.45594000000E+02  0.51100000000E-03 0.  1.
         11   -1    0    0    0    0 -0.00000000000E+00 -0.00000000000E+00 -0.45593999997E+02  0.45594000000E+02  0.51100000000E-03 0. -1.
    9900012    2    1    2    0    0  0.16301555521E+02 -0.31536874723E+01  0.27221896552E+02  0.59301982548E+02  0.50000070251E+02 0.  0.
         12    1    1    2    0    0 -0.16301555521E+02  0.31536874723E+01 -0.27221896552E+02  0.31886017452E+02  0.00000000000E+00 0. -1.
         11    1    3    3    0    0 -0.60161068839E+00  0.35078392653E+00 -0.58737181521E+00  0.91103825053E+00  0.51100000000E-03 0. -1.
        -11    1    3    3    0    0 -0.14528099529E+02 -0.54611410326E+01  0.21097600993E+02  0.26191573171E+02  0.51100000000E-03 0.  1.
        -12    1    3    3    0    0  0.31431265738E+02  0.19566696338E+01  0.67116673745E+01  0.32199371126E+02  0.00000000000E+00 0.  1.
</event>
<event>
 7    1  0.7674040E-012  0.5930186E+02  0.7816164E-02  0.1266605E+00
        -11   -1    0    0    0    0  0.00000000000E+00  0.00000000000E+00  0.45593999997E+02  0.45594000000E+02  0.51100000000E-03 0. -1.
         11   -1    0    0    0    0 -0.00000000000E+00 -0.00000000000E+00 -0.45593999997E+02  0.45594000000E+02  0.51100000000E-03 0.  1.
    9900012    2    1    2    0    0 -0.24514676750E+02 -0.17954002875E+02 -0.96648901328E+01  0.59301863567E+02  0.49999853258E+02 0.  0.
         12    1    1    2    0    0  0.24514676750E+02  0.17954002875E+02  0.96648901328E+01  0.31886136433E+02  0.00000000000E+00 0. -1.
         11    1    3    3    0    0 -0.17556653333E+02 -0.23334568414E+02  0.34574567692E+01  0.29405648555E+02  0.51100000000E-03 0.  1.
        -11    1    3    3    0    0 -0.36725010869E+01  0.12373585200E+02  0.18585685149E+01  0.13040212886E+02  0.51100000000E-03 0. -1.
        -12    1    3    3    0    0 -0.32855223296E+01 -0.69930196603E+01 -0.14980915417E+02  0.16856002126E+02  0.00000000000E+00 0.  1.
</event>
<event>
 7    1  0.7674040E-012  0.5930197E+02  0.7816164E-02  0.1266605E+00
        -11   -1    0    0    0    0  0.00000000000E+00  0.00000000000E+00  0.45593999997E+02  0.45594000000E+02  0.51100000000E-03 0. -1.
         11   -1    0    0    0    0 -0.00000000000E+00 -0.00000000000E+00 -0.45593999997E+02  0.45594000000E+02  0.51100000000E-03 0.  1.
    9900012    2    1    2    0    0  0.25889128284E+02 -0.16448998350E+02  0.87122000916E+01  0.59301969509E+02  0.50000046471E+02 0.  0.
         12    1    1    2    0    0 -0.25889128284E+02  0.16448998350E+02 -0.87122000916E+01  0.31886030491E+02  0.00000000000E+00 0. -1.
         11    1    3    3    0    0 -0.32828324424E+01 -0.87131808456E+01 -0.42343916483E+00  0.93207194079E+01  0.51100000000E-03 0. -1.
        -11    1    3    3    0    0  0.27918572759E+02 -0.71390577741E+01  0.22490424837E+02  0.36554508073E+02  0.51100000000E-03 0.  1.
        -12    1    3    3    0    0  0.12533879674E+01 -0.59675973062E+00 -0.13354785581E+02  0.13426742028E+02  0.00000000000E+00 0.  1.
</event>
<event>
 7    1  0.7674040E-012  0.5930193E+02  0.7816164E-02  0.1266605E+00
        -11   -1    0    0    0    0  0.00000000000E+00  0.00000000000E+00  0.45593999997E+02  0.45594000000E+02  0.51100000000E-03 0.  1.
         11   -1    0    0    0    0 -0.00000000000E+00 -0.00000000000E+00 -0.45593999997E+02  0.45594000000E+02  0.51100000000E-03 0. -1.
    9900012    2    1    2    0    0 -0.10674299755E+02  0.23052460177E+02  0.19270834056E+02  0.59301927167E+02  0.49999969250E+02 0.  0.
         12    1    1    2    0    0  0.10674299755E+02 -0.23052460177E+02 -0.19270834056E+02  0.31886072833E+02  0.00000000000E+00 0. -1.
         11    1    3    3    0    0 -0.90908972377E+01 -0.49163363694E+01  0.52894297723E+01  0.11610032018E+02  0.51100000000E-03 0. -1.
        -11    1    3    3    0    0  0.42966603785E+00  0.22150264907E+02  0.26017741752E+02  0.34172236311E+02  0.51100000000E-03 0.  1.
        -12    1    3    3    0    0 -0.20130685550E+01  0.58185316400E+01 -0.12036337468E+02  0.13519658838E+02  0.00000000000E+00 0.  1.
</event>
<event>
 7    1  0.7674040E-012  0.5930195E+02  0.7816164E-02  0.1266605E+00
        -11   -1    0    0    0    0  0.00000000000E+00  0.00000000000E+00  0.45593999997E+02  0.45594000000E+02  0.51100000000E-03 0.  1.
         11   -1    0    0    0    0 -0.00000000000E+00 -0.00000000000E+00 -0.45593999997E+02  0.45594000000E+02  0.51100000000E-03 0. -1.
    9900012    2    1    2    0    0  0.37101940165E+01 -0.14355354947E+02  0.28229029950E+02  0.59301954663E+02  0.50000019397E+02 0.  0.
         12    1    1    2    0    0 -0.37101940165E+01  0.14355354947E+02 -0.28229029950E+02  0.31886045337E+02  0.00000000000E+00 0. -1.
         11    1    3    3    0    0  0.16767681020E+02 -0.17545593883E+02  0.32810534656E+01  0.24490167488E+02  0.51100000000E-03 0. -1.
        -11    1    3    3    0    0 -0.36993122131E+01  0.11197240525E+02  0.10150373361E+02  0.15559344005E+02  0.51100000000E-03 0.  1.
        -12    1    3    3    0    0 -0.93581747901E+01 -0.80070015884E+01  0.14797603123E+02  0.19252443171E+02  0.00000000000E+00 0.  1.
</event>
<event>
 7    1  0.7674040E-012  0.5930194E+02  0.7816164E-02  0.1266605E+00
        -11   -1    0    0    0    0  0.00000000000E+00  0.00000000000E+00  0.45593999997E+02  0.45594000000E+02  0.51100000000E-03 0.  1.
         11   -1    0    0    0    0 -0.00000000000E+00 -0.00000000000E+00 -0.45593999997E+02  0.45594000000E+02  0.51100000000E-03 0. -1.
    9900012    2    1    2    0    0 -0.17601890721E+02  0.29046667019E+01  0.26428336316E+02  0.59301943392E+02  0.49999998840E+02 0.  0.
         12    1    1    2    0    0  0.17601890721E+02 -0.29046667019E+01 -0.26428336316E+02  0.31886056608E+02  0.00000000000E+00 0. -1.
         11    1    3    3    0    0 -0.13970853233E+02 -0.70277946037E+01  0.78949799728E+01  0.17518714168E+02  0.51100000000E-03 0. -1.
        -11    1    3    3    0    0  0.10797831151E+02  0.26244594371E+01 -0.58232187723E+01  0.12545549890E+02  0.51100000000E-03 0.  1.
        -12    1    3    3    0    0 -0.14428868639E+02  0.73080018685E+01  0.24356575115E+02  0.29237679334E+02  0.00000000000E+00 0.  1.
</event>
<event>
 7    1  0.7674040E-012  0.5930194E+02  0.7816164E-02  0.1266605E+00
        -11   -1    0    0    0    0  0.00000000000E+00  0.00000000000E+00  0.45593999997E+02  0.45594000000E+02  0.51100000000E-03 0. -1.
         11   -1    0    0    0    0 -0.00000000000E+00 -0.00000000000E+00 -0.45593999997E+02  0.45594000000E+02  0.51100000000E-03 0.  1.
    9900012    2    1    2    0    0  0.47870879973E+01  0.29840554163E+02  0.10165924124E+02  0.59301938821E+02  0.49999990503E+02 0.  0.
         12    1    1    2    0    0 -0.47870879973E+01 -0.29840554163E+02 -0.10165924124E+02  0.31886061179E+02  0.00000000000E+00 0. -1.
         11    1    3    3    0    0  0.62057250025E+01 -0.70015697420E+01  0.18094288833E+02  0.20369985034E+02  0.51100000000E-03 0. -1.
        -11    1    3    3    0    0 -0.46571491019E+01  0.20428011644E+02 -0.14890591721E+01  0.21004999285E+02  0.51100000000E-03 0.  1.
         12    1    3    3    0    0  0.32385120968E+01  0.16414112261E+02 -0.64393055365E+01  0.17926954501E+02  0.00000000000E+00 0. -1.
</event>
<event>
 7    1  0.7674040E-012  0.5930202E+02  0.7816164E-02  0.1266604E+00
        -11   -1    0    0    0    0  0.00000000000E+00  0.00000000000E+00  0.45593999997E+02  0.45594000000E+02  0.51100000000E-03 0.  1.
         11   -1    0    0    0    0 -0.00000000000E+00 -0.00000000000E+00 -0.45593999997E+02  0.45594000000E+02  0.51100000000E-03 0. -1.
    9900012    2    1    2    0    0  0.30484906084E+01 -0.29657694859E+02  0.11306779165E+02  0.59302024800E+02  0.50000147309E+02 0.  0.
         12    1    1    2    0    0 -0.30484906084E+01  0.29657694859E+02 -0.11306779165E+02  0.31885975200E+02  0.00000000000E+00 0. -1.
         11    1    3    3    0    0 -0.80309800261E+01 -0.30028383196E+02 -0.88297157329E+01  0.32313531496E+02  0.51100000000E-03 0. -1.
        -11    1    3    3    0    0 -0.14490653080E+01 -0.44559598167E+00  0.11847176093E+02  0.11943781967E+02  0.51100000000E-03 0.  1.
         12    1    3    3    0    0  0.12528535943E+02  0.81628431830E+00  0.82893188055E+01  0.15044711337E+02  0.00000000000E+00 0. -1.
</event>
<event>
 7    1  0.7674040E-012  0.5930191E+02  0.7816164E-02  0.1266605E+00
        -11   -1    0    0    0    0  0.00000000000E+00  0.00000000000E+00  0.45593999997E+02  0.45594000000E+02  0.51100000000E-03 0.  1.
         11   -1    0    0    0    0 -0.00000000000E+00 -0.00000000000E+00 -0.45593999997E+02  0.45594000000E+02  0.51100000000E-03 0. -1.
    9900012    2    1    2    0    0 -0.13772404374E+02  0.57956466451E+01  0.28168315831E+02  0.59301911199E+02  0.49999940128E+02 0.  0.
         12    1    1    2    0    0  0.13772404374E+02 -0.57956466451E+01 -0.28168315831E+02  0.31886088801E+02  0.00000000000E+00 0. -1.
         11    1    3    3    0    0 -0.24108603735E+02  0.57082338826E+01 -0.37505731977E+01  0.25057444157E+02  0.51100000000E-03 0. -1.
        -11    1    3    3    0    0  0.32625676293E+01  0.75878626136E+00  0.20668303131E+02  0.20937976471E+02  0.51100000000E-03 0.  1.
         12    1    3    3    0    0  0.70736317324E+01 -0.67137349891E+00  0.11250585898E+02  0.13306490571E+02  0.00000000000E+00 0. -1.
</event>
<event>
 7    1  0.7674040E-012  0.5930193E+02  0.7816164E-02  0.1266605E+00
        -11   -1    0    0    0    0  0.00000000000E+00  0.00000000000E+00  0.45593999997E+02  0.45594000000E+02  0.51100000000E-03 0. -1.
         11   -1    0    0    0    0 -0.00000000000E+00 -0.00000000000E+00 -0.45593999997E+02  0.45594000000E+02  0.51100000000E-03 0.  1.
    9900012    2    1    2    0    0  0.19939894372E+02  0.22968405313E+02  0.95694372998E+01  0.59301934698E+02  0.49999982985E+02 0.  0.
         12    1    1    2    0    0 -0.19939894372E+02 -0.22968405313E+02 -0.95694372998E+01  0.31886065302E+02  0.00000000000E+00 0. -1.
         11    1    3    3    0    0  0.12673999084E+02 -0.86483198801E+01 -0.91852626136E+01  0.17882749763E+02  0.51100000000E-03 0. -1.
        -11    1    3    3    0    0 -0.45607089284E+01  0.19301475922E+02  0.93573100321E+01  0.21929575691E+02  0.51100000000E-03 0.  1.
         12    1    3    3    0    0  0.11826604217E+02  0.12315249272E+02  0.93973898813E+01  0.19489609244E+02  0.00000000000E+00 0. -1.
</event>
<event>
 7    1  0.7674040E-012  0.5930199E+02  0.7816164E-02  0.1266605E+00
        -11   -1    0    0    0    0  0.00000000000E+00  0.00000000000E+00  0.45593999997E+02  0.45594000000E+02  0.51100000000E-03 0.  1.
         11   -1    0    0    0    0 -0.00000000000E+00 -0.00000000000E+00 -0.45593999997E+02  0.45594000000E+02  0.51100000000E-03 0. -1.
    9900012    2    1    2    0    0 -0.61046956231E+01  0.29771497152E+02  0.96492704217E+01  0.59301987848E+02  0.50000079917E+02 0.  0.
         12    1    1    2    0    0  0.61046956231E+01 -0.29771497152E+02 -0.96492704217E+01  0.31886012152E+02  0.00000000000E+00 0. -1.
         11    1    3    3    0    0 -0.23043741272E+02  0.16213780844E+02 -0.57312388491E+01  0.28753222429E+02  0.51100000000E-03 0. -1.
        -11    1    3    3    0    0  0.18544128965E+02  0.79502895369E+01  0.13991334996E+02  0.24552989187E+02  0.51100000000E-03 0.  1.
         12    1    3    3    0    0 -0.16050833162E+01  0.56074267710E+01  0.13891742746E+01  0.59957762307E+01  0.00000000000E+00 0. -1.
</event>
<event>
 7    1  0.7674040E-012  0.5930190E+02  0.7816164E-02  0.1266605E+00
        -11   -1    0    0    0    0  0.00000000000E+00  0.00000000000E+00  0.45593999997E+02  0.45594000000E+02  0.51100000000E-03 0.  1.
         11   -1    0    0    0    0 -0.00000000000E+00 -0.00000000000E+00 -0.45593999997E+02  0.45594000000E+02  0.51100000000E-03 0. -1.
    9900012    2    1    2    0    0  0.16866254378E+02  0.26079359627E+02 -0.72194028318E+01  0.59301900951E+02  0.49999921439E+02 0.  0.
         12    1    1    2    0    0 -0.16866254378E+02 -0.26079359627E+02  0.72194028318E+01  0.31886099049E+02  0.00000000000E+00 0. -1.
         11    1    3    3    0    0 -0.28811114517E+01 -0.95286346205E+01  0.63353167511E+01  0.11799657602E+02  0.51100000000E-03 0. -1.
        -11    1    3    3    0    0  0.15023250456E+01  0.23671305353E+02 -0.66953040918E+01  0.24645786147E+02  0.51100000000E-03 0.  1.
         12    1    3    3    0    0  0.18245040784E+02  0.11936688895E+02 -0.68594154912E+01  0.22856457203E+02  0.00000000000E+00 0. -1.
</event>
<event>
 7    1  0.7674040E-012  0.5930194E+02  0.7816164E-02  0.1266605E+00
        -11   -1    0    0    0    0  0.00000000000E+00  0.00000000000E+00  0.45593999997E+02  0.45594000000E+02  0.51100000000E-03 0.  1.
         11   -1    0    0    0    0 -0.00000000000E+00 -0.00000000000E+00 -0.45593999997E+02  0.45594000000E+02  0.51100000000E-03 0. -1.
    9900012    2    1    2    0    0  0.33258852984E+01  0.22033825852E+02  0.22807227799E+02  0.59301942944E+02  0.49999998023E+02 0.  0.
         12    1    1    2    0    0 -0.33258852984E+01 -0.22033825852E+02 -0.22807227799E+02  0.31886057056E+02  0.00000000000E+00 0. -1.
         11    1    3    3    0    0  0.65108914949E+01 -0.14171750810E+02  0.96070546376E+01  0.18317361386E+02  0.51100000000E-03 0. -1.
        -11    1    3    3    0    0  0.48235682876E+01  0.21137091789E+02  0.62943595084E+01  0.22575704246E+02  0.51100000000E-03 0.  1.
         12    1    3    3    0    0 -0.80085744841E+01  0.15068484873E+02  0.69058136534E+01  0.18408877311E+02  0.00000000000E+00 0. -1.
</event>
<event>
 7    1  0.7674040E-012  0.5930196E+02  0.7816164E-02  0.1266605E+00
        -11   -1    0    0    0    0  0.00000000000E+00  0.00000000000E+00  0.45593999997E+02  0.45594000000E+02  0.51100000000E-03 0. -1.
         11   -1    0    0    0    0 -0.00000000000E+00 -0.00000000000E+00 -0.45593999997E+02  0.45594000000E+02  0.51100000000E-03 0.  1.
    9900012    2    1    2    0    0  0.31152010235E+02 -0.12726696013E+01 -0.66822312351E+01  0.59301958479E+02  0.50000026356E+02 0.  0.
         12    1    1    2    0    0 -0.31152010235E+02  0.12726696013E+01  0.66822312351E+01  0.31886041521E+02  0.00000000000E+00 0. -1.
         11    1    3    3    0    0  0.26598966225E+02  0.11086414751E+02  0.15559779990E+02  0.32749356480E+02  0.51100000000E-03 0. -1.
        -11    1    3    3    0    0  0.28927411363E+01 -0.10577673129E+01 -0.46685153287E+01  0.55930187382E+01  0.51100000000E-03 0.  1.
         12    1    3    3    0    0  0.16603028736E+01 -0.11301317039E+02 -0.17573495896E+02  0.20959583261E+02  0.00000000000E+00 0. -1.
</event>
<event>
 7    1  0.7674040E-012  0.5930196E+02  0.7816164E-02  0.1266605E+00
        -11   -1    0    0    0    0  0.00000000000E+00  0.00000000000E+00  0.45593999997E+02  0.45594000000E+02  0.51100000000E-03 0.  1.
         11   -1    0    0    0    0 -0.00000000000E+00 -0.00000000000E+00 -0.45593999997E+02  0.45594000000E+02  0.51100000000E-03 0. -1.
    9900012    2    1    2    0    0 -0.14093394170E+02 -0.45502342482E+01  0.28238118273E+02  0.59301957371E+02  0.50000024335E+02 0.  0.
         12    1    1    2    0    0  0.14093394170E+02  0.45502342482E+01 -0.28238118273E+02  0.31886042629E+02  0.00000000000E+00 0. -1.
         11    1    3    3    0    0  0.49144915559E+01 -0.11620135012E+02 -0.29716469227E+01  0.12961884533E+02  0.51100000000E-03 0.  1.
        -11    1    3    3    0    0 -0.17245249198E+02  0.11407667264E+02  0.72254208673E+01  0.21902972384E+02  0.51100000000E-03 0. -1.
        -12    1    3    3    0    0 -0.17626365280E+01 -0.43377664998E+01  0.23984344328E+02  0.24437100454E+02  0.00000000000E+00 0.  1.
</event>
<event>
 7    1  0.7674040E-012  0.5930194E+02  0.7816164E-02  0.1266605E+00
        -11   -1    0    0    0    0  0.00000000000E+00  0.00000000000E+00  0.45593999997E+02  0.45594000000E+02  0.51100000000E-03 0.  1.
         11   -1    0    0    0    0 -0.00000000000E+00 -0.00000000000E+00 -0.45593999997E+02  0.45594000000E+02  0.51100000000E-03 0. -1.
    9900012    2    1    2    0    0 -0.21075828101E+02  0.10071759474E+02  0.21704611046E+02  0.59301937062E+02  0.49999987296E+02 0.  0.
         12    1    1    2    0    0  0.21075828101E+02 -0.10071759474E+02 -0.21704611046E+02  0.31886062938E+02  0.00000000000E+00 0. -1.
         11    1    3    3    0    0  0.46543277218E+01  0.22834352105E+02  0.96197051420E+01  0.25211289731E+02  0.51100000000E-03 0.  1.
        -11    1    3    3    0    0 -0.16090769291E+02 -0.99288886844E+01  0.71992726415E+00  0.18921257422E+02  0.51100000000E-03 0. -1.
        -12    1    3    3    0    0 -0.96393865315E+01 -0.28337039469E+01  0.11364978639E+02  0.15169389910E+02  0.00000000000E+00 0.  1.
</event>
<event>
 7    1  0.7674040E-012  0.5930192E+02  0.7816164E-02  0.1266605E+00
        -11   -1    0    0    0    0  0.00000000000E+00  0.00000000000E+00  0.45593999997E+02  0.45594000000E+02  0.51100000000E-03 0. -1.
         11   -1    0    0    0    0 -0.00000000000E+00 -0.00000000000E+00 -0.45593999997E+02  0.45594000000E+02  0.51100000000E-03 0.  1.
    9900012    2    1    2    0    0 -0.70955301640E+01  0.12701793583E+02 -0.28373221559E+02  0.59301924510E+02  0.49999964404E+02 0.  0.
         12    1    1    2    0    0  0.70955301640E+01 -0.12701793583E+02  0.28373221559E+02  0.31886075490E+02  0.00000000000E+00 0. -1.
         11    1    3    3    0    0  0.46430900049E+00 -0.15793863538E+01  0.84900432937E+01  0.86481720319E+01  0.51100000000E-03 0. -1.
        -11    1    3    3    0    0  0.10191575505E+02  0.36975223529E-01 -0.19586256876E+02  0.22079199195E+02  0.51100000000E-03 0.  1.
        -12    1    3    3    0    0 -0.17751414669E+02  0.14244204714E+02 -0.17277007976E+02  0.28574553283E+02  0.00000000000E+00 0.  1.
</event>
<event>
 7    1  0.7674040E-012  0.5930199E+02  0.7816164E-02  0.1266605E+00
        -11   -1    0    0    0    0  0.00000000000E+00  0.00000000000E+00  0.45593999997E+02  0.45594000000E+02  0.51100000000E-03 0.  1.
         11   -1    0    0    0    0 -0.00000000000E+00 -0.00000000000E+00 -0.45593999997E+02  0.45594000000E+02  0.51100000000E-03 0. -1.
    9900012    2    1    2    0    0 -0.30649249749E+02 -0.16409289058E+01 -0.86399264399E+01  0.59301992305E+02  0.50000088046E+02 0.  0.
         12    1    1    2    0    0  0.30649249749E+02  0.16409289058E+01  0.86399264399E+01  0.31886007695E+02  0.00000000000E+00 0. -1.
         11    1    3    3    0    0 -0.67459526145E+01 -0.37022728703E+00 -0.11671164622E+02  0.13485585965E+02  0.51100000000E-03 0. -1.
        -11    1    3    3    0    0  0.47211558078E+01 -0.12930230286E+02  0.54703512786E+01  0.14812322936E+02  0.51100000000E-03 0.  1.
        -12    1    3    3    0    0 -0.28624452942E+02  0.11659528667E+02 -0.24391130962E+01  0.31004083403E+02  0.00000000000E+00 0.  1.
</event>
<event>
 7    1  0.7674040E-012  0.5930193E+02  0.7816164E-02  0.1266605E+00
        -11   -1    0    0    0    0  0.00000000000E+00  0.00000000000E+00  0.45593999997E+02  0.45594000000E+02  0.51100000000E-03 0.  1.
         11   -1    0    0    0    0 -0.00000000000E+00 -0.00000000000E+00 -0.45593999997E+02  0.45594000000E+02  0.51100000000E-03 0. -1.
    9900012    2    1    2    0    0 -0.14772551571E+02 -0.10946972528E+02  0.26051041969E+02  0.59301932900E+02  0.49999979706E+02 0.  0.
         12    1    1    2    0    0  0.14772551571E+02  0.10946972528E+02 -0.26051041969E+02  0.31886067100E+02  0.00000000000E+00 0. -1.
         11    1    3    3    0    0 -0.16908497622E+02 -0.13756682148E+02 -0.12833676538E+01  0.21835535907E+02  0.51100000000E-03 0. -1.
        -11    1    3    3    0    0  0.70874511482E+01 -0.93881934130E+01  0.17269333164E+02  0.20894975653E+02  0.51100000000E-03 0.  1.
        -12    1    3    3    0    0 -0.49515050969E+01  0.12197903033E+02  0.10065076459E+02  0.16571421341E+02  0.00000000000E+00 0.  1.
</event>
<event>
 7    1  0.7674040E-012  0.5930196E+02  0.7816164E-02  0.1266605E+00
        -11   -1    0    0    0    0  0.00000000000E+00  0.00000000000E+00  0.45593999997E+02  0.45594000000E+02  0.51100000000E-03 0.  1.
         11   -1    0    0    0    0 -0.00000000000E+00 -0.00000000000E+00 -0.45593999997E+02  0.45594000000E+02  0.51100000000E-03 0. -1.
    9900012    2    1    2    0    0 -0.18377735562E+02  0.17949526529E+02  0.18888968709E+02  0.59301955938E+02  0.50000021722E+02 0.  0.
         12    1    1    2    0    0  0.18377735562E+02 -0.17949526529E+02 -0.18888968709E+02  0.31886044062E+02  0.00000000000E+00 0. -1.
         11    1    3    3    0    0  0.42706185039E+01  0.11586169087E+01 -0.12692231546E+02  0.13441477502E+02  0.51100000000E-03 0. -1.
        -11    1    3    3    0    0 -0.50871128853E+01  0.13576617322E+02  0.89624113202E+01  0.17044884052E+02  0.51100000000E-03 0.  1.
         12    1    3    3    0    0 -0.17561241181E+02  0.32142922984E+01  0.22618788935E+02  0.28815594384E+02  0.00000000000E+00 0. -1.
</event>
