<event>
 7    1  0.5843820E-012  0.5052886E+02  0.7816164E-02  0.1300439E+00
        -11   -1    0    0    0    0  0.00000000000E+00  0.00000000000E+00  0.45593999997E+02  0.45594000000E+02  0.51100000000E-03 0. -1.
         11   -1    0    0    0    0 -0.00000000000E+00 -0.00000000000E+00 -0.45593999997E+02  0.45594000000E+02  0.51100000000E-03 0.  1.
    9900012    2    1    2    0    0  0.21775389577E+02  0.30927859963E+01  0.34196970397E+02  0.50528859566E+02  0.29999999138E+02 0.  0.
        -12    1    1    2    0    0 -0.21775389577E+02 -0.30927859963E+01 -0.34196970397E+02  0.40659140434E+02  0.00000000000E+00 0.  1.
         11    1    3    3    0    0  0.16222225995E+02 -0.63541355903E+01  0.13280943488E+02  0.21907056296E+02  0.51100000000E-03 0. -1.
        -11    1    3    3    0    0  0.53599895916E+01  0.72612820815E+00 -0.56389162399E+00  0.54382648539E+01  0.51100000000E-03 0.  1.
         12    1    3    3    0    0  0.19317399014E+00  0.87207933785E+01  0.21479918533E+02  0.23183538417E+02  0.00000000000E+00 0. -1.
</event>
<event>
 7    1  0.5843820E-012  0.5052886E+02  0.7816164E-02  0.1300439E+00
        -11   -1    0    0    0    0  0.00000000000E+00  0.00000000000E+00  0.45593999997E+02  0.45594000000E+02  0.51100000000E-03 0. -1.
         11   -1    0    0    0    0 -0.00000000000E+00 -0.00000000000E+00 -0.45593999997E+02  0.45594000000E+02  0.51100000000E-03 0.  1.
    9900012    2    1    2    0    0 -0.73640801628E+01 -0.95211522599E+01 -0.38836629396E+02  0.50528858348E+02  0.29999995435E+02 0.  0.
         12    1    1    2    0    0  0.73640801628E+01  0.95211522599E+01  0.38836629396E+02  0.40659141652E+02  0.00000000000E+00 0. -1.
         11    1    3    3    0    0  0.80029592208E+00 -0.57977890293E+01 -0.32276561685E+02  0.32802915505E+02  0.51100000000E-03 0. -1.
        -11    1    3    3    0    0 -0.14965344166E+01  0.82870205241E+00 -0.91022924534E+01  0.92616462100E+01  0.51100000000E-03 0.  1.
         12    1    3    3    0    0 -0.66678416683E+01 -0.45520652830E+01  0.25422247419E+01  0.84642966331E+01  0.00000000000E+00 0. -1.
</event>
<event>
 7    1  0.5843820E-012  0.5052888E+02  0.7816164E-02  0.1300439E+00
        -11   -1    0    0    0    0  0.00000000000E+00  0.00000000000E+00  0.45593999997E+02  0.45594000000E+02  0.51100000000E-03 0. -1.
         11   -1    0    0    0    0 -0.00000000000E+00 -0.00000000000E+00 -0.45593999997E+02  0.45594000000E+02  0.51100000000E-03 0.  1.
    9900012    2    1    2    0    0  0.10729067957E+02 -0.22739965468E+02  0.31952230881E+02  0.50528880641E+02  0.30000063197E+02 0.  0.
        -12    1    1    2    0    0 -0.10729067957E+02  0.22739965468E+02 -0.31952230881E+02  0.40659119359E+02  0.00000000000E+00 0.  1.
         11    1    3    3    0    0  0.60973458492E+01 -0.12091342437E+02  0.48927506257E+01  0.14398513718E+02  0.51100000000E-03 0. -1.
        -11    1    3    3    0    0  0.77350960893E+01 -0.12349799303E+02  0.77610087844E+01  0.16510073045E+02  0.51100000000E-03 0.  1.
         12    1    3    3    0    0 -0.31033739812E+01  0.17011762711E+01  0.19298471471E+02  0.19620293879E+02  0.00000000000E+00 0. -1.
</event>
<event>
 7    1  0.5843820E-012  0.5052886E+02  0.7816164E-02  0.1300439E+00
        -11   -1    0    0    0    0  0.00000000000E+00  0.00000000000E+00  0.45593999997E+02  0.45594000000E+02  0.51100000000E-03 0. -1.
         11   -1    0    0    0    0 -0.00000000000E+00 -0.00000000000E+00 -0.45593999997E+02  0.45594000000E+02  0.51100000000E-03 0.  1.
    9900012    2    1    2    0    0 -0.71594220525E+01  0.14981562854E+02  0.37114160093E+02  0.50528862908E+02  0.30000009294E+02 0.  0.
        -12    1    1    2    0    0  0.71594220525E+01 -0.14981562854E+02 -0.37114160093E+02  0.40659137092E+02  0.00000000000E+00 0.  1.
         11    1    3    3    0    0  0.58926063562E+01  0.15975578821E+02  0.17818978188E+02  0.24646661280E+02  0.51100000000E-03 0. -1.
        -11    1    3    3    0    0  0.11844630860E+01  0.61206626316E+00 -0.51928428382E+00  0.14308159704E+01  0.51100000000E-03 0.  1.
         12    1    3    3    0    0 -0.14236491495E+02 -0.16060822303E+01  0.19814466189E+02  0.24451385657E+02  0.00000000000E+00 0. -1.
</event>
<event>
 7    1  0.9366446E-012  0.5052893E+02  0.7816164E-02  0.1300439E+00
        -11   -1    0    0    0    0  0.00000000000E+00  0.00000000000E+00  0.45593999997E+02  0.45594000000E+02  0.51100000000E-03 0. -1.
         11   -1    0    0    0    0 -0.00000000000E+00 -0.00000000000E+00 -0.45593999997E+02  0.45594000000E+02  0.51100000000E-03 0.  1.
    9900012    2    1    2    0    0  0.16376150376E+01 -0.10716070893E+02 -0.39187295109E+02  0.50528928978E+02  0.30000210121E+02 0.  0.
         12    1    1    2    0    0 -0.16376150376E+01  0.10716070893E+02  0.39187295109E+02  0.40659071022E+02  0.00000000000E+00 0. -1.
         11    1    3    3    0    0  0.67044772110E+01 -0.26961131590E+01 -0.28087187985E+01  0.77529312127E+01  0.51100000000E-03 0. -1.
        -11    1    3    3    0    0  0.77598754153E+01 -0.15688049544E+01 -0.15948832808E+02  0.17805675602E+02  0.51100000000E-03 0.  1.
        -12    1    3    3    0    0 -0.12826737589E+02 -0.64511527801E+01 -0.20429743502E+02  0.24970322163E+02  0.00000000000E+00 0.  1.
</event>
<event>
 7    1  0.5843820E-012  0.5052884E+02  0.7816164E-02  0.1300439E+00
        -11   -1    0    0    0    0  0.00000000000E+00  0.00000000000E+00  0.45593999997E+02  0.45594000000E+02  0.51100000000E-03 0. -1.
         11   -1    0    0    0    0 -0.00000000000E+00 -0.00000000000E+00 -0.45593999997E+02  0.45594000000E+02  0.51100000000E-03 0.  1.
    9900012    2    1    2    0    0 -0.18936490264E+02  0.30208211026E+02  0.19545865184E+02  0.50528837162E+02  0.29999931038E+02 0.  0.
        -12    1    1    2    0    0  0.18936490264E+02 -0.30208211026E+02 -0.19545865184E+02  0.40659162838E+02  0.00000000000E+00 0.  1.
         11    1    3    3    0    0 -0.16183229128E+02  0.23741956770E+02  0.12980829952E+02  0.31529024133E+02  0.51100000000E-03 0. -1.
        -11    1    3    3    0    0  0.27157763431E+01  0.81985034052E+01 -0.18333760764E+01  0.88290524593E+01  0.51100000000E-03 0.  1.
        -12    1    3    3    0    0 -0.54690374791E+01 -0.17322491494E+01  0.83984113083E+01  0.10170760570E+02  0.00000000000E+00 0.  1.
</event>
<event>
 7    1  0.5843820E-012  0.5052887E+02  0.7816164E-02  0.1300439E+00
        -11   -1    0    0    0    0  0.00000000000E+00  0.00000000000E+00  0.45593999997E+02  0.45594000000E+02  0.51100000000E-03 0. -1.
         11   -1    0    0    0    0 -0.00000000000E+00 -0.00000000000E+00 -0.45593999997E+02  0.45594000000E+02  0.51100000000E-03 0.  1.
    9900012    2    1    2    0    0 -0.29797883349E+02  0.15972780356E+02 -0.22585870564E+02  0.50528866788E+02  0.30000021090E+02 0.  0.
         12    1    1    2    0    0  0.29797883349E+02 -0.15972780356E+02  0.22585870564E+02  0.40659133212E+02  0.00000000000E+00 0. -1.
         11    1    3    3    0    0 -0.86020110629E+01  0.17999542480E+02 -0.94422814290E+01  0.22071130525E+02  0.51100000000E-03 0. -1.
        -11    1    3    3    0    0 -0.15704896133E+02  0.24902559360E+01 -0.31777810786E+01  0.16215530519E+02  0.51100000000E-03 0.  1.
        -12    1    3    3    0    0 -0.54909761533E+01 -0.45170180595E+01 -0.99658080561E+01  0.12242205744E+02  0.00000000000E+00 0.  1.
</event>
<event>
 7    1  0.5843820E-012  0.5052885E+02  0.7816164E-02  0.1300439E+00
        -11   -1    0    0    0    0  0.00000000000E+00  0.00000000000E+00  0.45593999997E+02  0.45594000000E+02  0.51100000000E-03 0. -1.
         11   -1    0    0    0    0 -0.00000000000E+00 -0.00000000000E+00 -0.45593999997E+02  0.45594000000E+02  0.51100000000E-03 0.  1.
    9900012    2    1    2    0    0 -0.84564461400E+00  0.39106079815E+02  0.11098017710E+02  0.50528848627E+02  0.29999965885E+02 0.  0.
        -12    1    1    2    0    0  0.84564461400E+00 -0.39106079815E+02 -0.11098017710E+02  0.40659151373E+02  0.00000000000E+00 0.  1.
         11    1    3    3    0    0 -0.74465712021E+01  0.10102853378E+02  0.15967524981E+01  0.12651825475E+02  0.51100000000E-03 0. -1.
        -11    1    3    3    0    0 -0.51584784302E+01  0.22784367193E+02  0.58445221471E+01  0.24081024220E+02  0.51100000000E-03 0.  1.
        -12    1    3    3    0    0  0.11759405018E+02  0.62188592443E+01  0.36567430645E+01  0.13795998932E+02  0.00000000000E+00 0.  1.
</event>
<event>
 7    1  0.5843820E-012  0.5052886E+02  0.7816164E-02  0.1300439E+00
        -11   -1    0    0    0    0  0.00000000000E+00  0.00000000000E+00  0.45593999997E+02  0.45594000000E+02  0.51100000000E-03 0. -1.
         11   -1    0    0    0    0 -0.00000000000E+00 -0.00000000000E+00 -0.45593999997E+02  0.45594000000E+02  0.51100000000E-03 0.  1.
    9900012    2    1    2    0    0  0.12013751582E+02  0.11280188361E+02 -0.37169785246E+02  0.50528858202E+02  0.29999994991E+02 0.  0.
         12    1    1    2    0    0 -0.12013751582E+02 -0.11280188361E+02  0.37169785246E+02  0.40659141798E+02  0.00000000000E+00 0. -1.
         11    1    3    3    0    0  0.94905230295E+00 -0.57093375244E+00  0.17857045376E+01  0.21012868867E+01  0.51100000000E-03 0. -1.
        -11    1    3    3    0    0  0.24814908855E+01  0.19278384278E+01  0.30751539449E+01  0.43966953572E+01  0.51100000000E-03 0.  1.
        -12    1    3    3    0    0  0.85832083936E+01  0.99232836855E+01 -0.42030643728E+02  0.44030875958E+02  0.00000000000E+00 0.  1.
</event>
<event>
 7    1  0.5843820E-012  0.5052886E+02  0.7816164E-02  0.1300439E+00
        -11   -1    0    0    0    0  0.00000000000E+00  0.00000000000E+00  0.45593999997E+02  0.45594000000E+02  0.51100000000E-03 0. -1.
         11   -1    0    0    0    0 -0.00000000000E+00 -0.00000000000E+00 -0.45593999997E+02  0.45594000000E+02  0.51100000000E-03 0.  1.
    9900012    2    1    2    0    0  0.29497061300E+02 -0.10733032398E+02 -0.25843594515E+02  0.50528856044E+02  0.29999988430E+02 0.  0.
         12    1    1    2    0    0 -0.29497061300E+02  0.10733032398E+02  0.25843594515E+02  0.40659143956E+02  0.00000000000E+00 0. -1.
         11    1    3    3    0    0  0.46260207090E+01 -0.52946169610E+01 -0.10208266203E+02  0.12395230352E+02  0.51100000000E-03 0. -1.
        -11    1    3    3    0    0  0.23739530418E+02 -0.97763261176E+01 -0.19480198535E+02  0.32227627776E+02  0.51100000000E-03 0.  1.
         12    1    3    3    0    0  0.11315101732E+01  0.43379106806E+01  0.38448702230E+01  0.59059979154E+01  0.00000000000E+00 0. -1.
</event>
<event>
 7    1  0.5843820E-012  0.5052887E+02  0.7816164E-02  0.1300439E+00
        -11   -1    0    0    0    0  0.00000000000E+00  0.00000000000E+00  0.45593999997E+02  0.45594000000E+02  0.51100000000E-03 0. -1.
         11   -1    0    0    0    0 -0.00000000000E+00 -0.00000000000E+00 -0.45593999997E+02  0.45594000000E+02  0.51100000000E-03 0.  1.
    9900012    2    1    2    0    0  0.19616745806E+02 -0.46221001747E+01  0.35312665545E+02  0.50528869735E+02  0.30000030045E+02 0.  0.
        -12    1    1    2    0    0 -0.19616745806E+02  0.46221001747E+01 -0.35312665545E+02  0.40659130265E+02  0.00000000000E+00 0.  1.
         11    1    3    3    0    0  0.14544991014E+02  0.29609466495E+00  0.28950487304E+01  0.14833264747E+02  0.51100000000E-03 0. -1.
        -11    1    3    3    0    0 -0.84508107043E-01 -0.76929867200E+01  0.10547750821E+02  0.13055429290E+02  0.51100000000E-03 0.  1.
        -12    1    3    3    0    0  0.51562628994E+01  0.27747918804E+01  0.21869865994E+02  0.22640175698E+02  0.00000000000E+00 0.  1.
</event>
<event>
 7    1  0.5843820E-012  0.5052886E+02  0.7816164E-02  0.1300439E+00
        -11   -1    0    0    0    0  0.00000000000E+00  0.00000000000E+00  0.45593999997E+02  0.45594000000E+02  0.51100000000E-03 0. -1.
         11   -1    0    0    0    0 -0.00000000000E+00 -0.00000000000E+00 -0.45593999997E+02  0.45594000000E+02  0.51100000000E-03 0.  1.
    9900012    2    1    2    0    0 -0.18459921382E+02 -0.17451503569E+02  0.31746521190E+02  0.50528864718E+02  0.30000014796E+02 0.  0.
        -12    1    1    2    0    0  0.18459921382E+02  0.17451503569E+02 -0.31746521190E+02  0.40659135282E+02  0.00000000000E+00 0.  1.
         11    1    3    3    0    0 -0.13847838703E+02 -0.20966548498E+02  0.24666717573E+02  0.35210875433E+02  0.51100000000E-03 0. -1.
        -11    1    3    3    0    0 -0.45979501397E+01  0.88295978251E+00 -0.25524924710E+01  0.53325398770E+01  0.51100000000E-03 0.  1.
        -12    1    3    3    0    0 -0.14132539722E-01  0.26320851468E+01  0.96322960879E+01  0.99854494077E+01  0.00000000000E+00 0.  1.
</event>
<event>
 7    1  0.5843820E-012  0.5052887E+02  0.7816164E-02  0.1300439E+00
        -11   -1    0    0    0    0  0.00000000000E+00  0.00000000000E+00  0.45593999997E+02  0.45594000000E+02  0.51100000000E-03 0. -1.
         11   -1    0    0    0    0 -0.00000000000E+00 -0.00000000000E+00 -0.45593999997E+02  0.45594000000E+02  0.51100000000E-03 0.  1.
    9900012    2    1    2    0    0 -0.20026992423E+02 -0.19525093184E+02  0.29510258622E+02  0.50528867529E+02  0.30000023340E+02 0.  0.
        -12    1    1    2    0    0  0.20026992423E+02  0.19525093184E+02 -0.29510258622E+02  0.40659132471E+02  0.00000000000E+00 0.  1.
         11    1    3    3    0    0 -0.49778131142E+00 -0.17104863228E+02  0.87640922347E+01  0.19225853563E+02  0.51100000000E-03 0. -1.
        -11    1    3    3    0    0 -0.45103009257E+01 -0.64077589404E+01  0.58678653879E+01  0.97894858675E+01  0.51100000000E-03 0.  1.
        -12    1    3    3    0    0 -0.15018910186E+02  0.39875289841E+01  0.14878301000E+02  0.21513528098E+02  0.00000000000E+00 0.  1.
</event>
<event>
 7    1  0.5843820E-012  0.5052886E+02  0.7816164E-02  0.1300439E+00
        -11   -1    0    0    0    0  0.00000000000E+00  0.00000000000E+00  0.45593999997E+02  0.45594000000E+02  0.51100000000E-03 0. -1.
         11   -1    0    0    0    0 -0.00000000000E+00 -0.00000000000E+00 -0.45593999997E+02  0.45594000000E+02  0.51100000000E-03 0.  1.
    9900012    2    1    2    0    0 -0.35908633540E+02  0.15658435650E+02 -0.10888007508E+02  0.50528864775E+02  0.30000014971E+02 0.  0.
         12    1    1    2    0    0  0.35908633540E+02 -0.15658435650E+02  0.10888007508E+02  0.40659135225E+02  0.00000000000E+00 0. -1.
         11    1    3    3    0    0 -0.11179353829E+01  0.45512123091E+00  0.51804556149E+01  0.53192138042E+01  0.51100000000E-03 0. -1.
        -11    1    3    3    0    0 -0.12211677740E+02  0.56570299744E+01  0.34277465389E+01  0.13887998702E+02  0.51100000000E-03 0.  1.
        -12    1    3    3    0    0 -0.22579020417E+02  0.95462844450E+01 -0.19496209661E+02  0.31321652269E+02  0.00000000000E+00 0.  1.
</event>
<event>
 7    1  0.5843820E-012  0.5052886E+02  0.7816164E-02  0.1300439E+00
        -11   -1    0    0    0    0  0.00000000000E+00  0.00000000000E+00  0.45593999997E+02  0.45594000000E+02  0.51100000000E-03 0. -1.
         11   -1    0    0    0    0 -0.00000000000E+00 -0.00000000000E+00 -0.45593999997E+02  0.45594000000E+02  0.51100000000E-03 0.  1.
    9900012    2    1    2    0    0  0.11035063610E+02  0.30319514606E+02 -0.24741054775E+02  0.50528863435E+02  0.30000010896E+02 0.  0.
         12    1    1    2    0    0 -0.11035063610E+02 -0.30319514606E+02  0.24741054775E+02  0.40659136565E+02  0.00000000000E+00 0. -1.
         11    1    3    3    0    0  0.42560075294E+01  0.11340329028E+02 -0.96702040068E+00  0.12151205342E+02  0.51100000000E-03 0. -1.
        -11    1    3    3    0    0  0.61565423227E+01  0.21036147863E+02 -0.94089267777E+01  0.23852681897E+02  0.51100000000E-03 0.  1.
        -12    1    3    3    0    0  0.62251375767E+00 -0.20569622848E+01 -0.14365107597E+02  0.14524976196E+02  0.00000000000E+00 0.  1.
</event>
<event>
 7    1  0.5843820E-012  0.5052893E+02  0.7816164E-02  0.1300439E+00
        -11   -1    0    0    0    0  0.00000000000E+00  0.00000000000E+00  0.45593999997E+02  0.45594000000E+02  0.51100000000E-03 0. -1.
         11   -1    0    0    0    0 -0.00000000000E+00 -0.00000000000E+00 -0.45593999997E+02  0.45594000000E+02  0.51100000000E-03 0.  1.
    9900012    2    1    2    0    0 -0.18892368496E+02  0.34833694679E+02 -0.91022944488E+01  0.50528934140E+02  0.30000225810E+02 0.  0.
         12    1    1    2    0    0  0.18892368496E+02 -0.34833694679E+02  0.91022944488E+01  0.40659065860E+02  0.00000000000E+00 0. -1.
         11    1    3    3    0    0 -0.96745932737E+01  0.14381669170E+02 -0.15492733953E+01  0.17402023200E+02  0.51100000000E-03 0. -1.
        -11    1    3    3    0    0 -0.85170688880E+01  0.25542294712E+02 -0.76402386152E+01  0.27987899671E+02  0.51100000000E-03 0.  1.
         12    1    3    3    0    0 -0.70070633426E+00 -0.50902692028E+01  0.87217561648E-01  0.51390112694E+01  0.00000000000E+00 0. -1.
</event>
<event>
 7    1  0.5843820E-012  0.5052887E+02  0.7816164E-02  0.1300439E+00
        -11   -1    0    0    0    0  0.00000000000E+00  0.00000000000E+00  0.45593999997E+02  0.45594000000E+02  0.51100000000E-03 0.  1.
         11   -1    0    0    0    0 -0.00000000000E+00 -0.00000000000E+00 -0.45593999997E+02  0.45594000000E+02  0.51100000000E-03 0. -1.
    9900012    2    1    2    0    0  0.23746066634E+02 -0.64485129862E+00  0.32998074743E+02  0.50528874941E+02  0.30000045871E+02 0.  0.
        -12    1    1    2    0    0 -0.23746066634E+02  0.64485129862E+00 -0.32998074743E+02  0.40659125059E+02  0.00000000000E+00 0.  1.
         11    1    3    3    0    0  0.24278101706E+01 -0.88784803149E+01  0.15452517056E+01  0.93332458460E+01  0.51100000000E-03 0. -1.
        -11    1    3    3    0    0  0.13734343555E+02  0.52750993082E+01  0.88444664140E+01  0.17166346495E+02  0.51100000000E-03 0.  1.
        -12    1    3    3    0    0  0.75839129091E+01  0.29585297082E+01  0.22608356624E+02  0.24029282600E+02  0.00000000000E+00 0.  1.
</event>
<event>
 7    1  0.5843820E-012  0.5052885E+02  0.7816164E-02  0.1300439E+00
        -11   -1    0    0    0    0  0.00000000000E+00  0.00000000000E+00  0.45593999997E+02  0.45594000000E+02  0.51100000000E-03 0. -1.
         11   -1    0    0    0    0 -0.00000000000E+00 -0.00000000000E+00 -0.45593999997E+02  0.45594000000E+02  0.51100000000E-03 0.  1.
    9900012    2    1    2    0    0  0.11947206708E+02 -0.12779815116E+02  0.36702951763E+02  0.50528854772E+02  0.29999984566E+02 0.  0.
        -12    1    1    2    0    0 -0.11947206708E+02  0.12779815116E+02 -0.36702951763E+02  0.40659145228E+02  0.00000000000E+00 0.  1.
         11    1    3    3    0    0  0.47966407284E+01 -0.82363002440E+01  0.49853872410E+01  0.10756323265E+02  0.51100000000E-03 0. -1.
        -11    1    3    3    0    0  0.12625605482E+02 -0.97448317856E+01  0.25062072813E+02  0.29706483371E+02  0.51100000000E-03 0.  1.
        -12    1    3    3    0    0 -0.54750395023E+01  0.52013169136E+01  0.66554917095E+01  0.10066048136E+02  0.00000000000E+00 0.  1.
</event>
<event>
 7    1  0.5843820E-012  0.5052886E+02  0.7816164E-02  0.1300439E+00
        -11   -1    0    0    0    0  0.00000000000E+00  0.00000000000E+00  0.45593999997E+02  0.45594000000E+02  0.51100000000E-03 0. -1.
         11   -1    0    0    0    0 -0.00000000000E+00 -0.00000000000E+00 -0.45593999997E+02  0.45594000000E+02  0.51100000000E-03 0.  1.
    9900012    2    1    2    0    0 -0.23725138782E+01 -0.24315744337E+01  0.40516958610E+02  0.50528864356E+02  0.30000013696E+02 0.  0.
        -12    1    1    2    0    0  0.23725138782E+01  0.24315744337E+01 -0.40516958610E+02  0.40659135644E+02  0.00000000000E+00 0.  1.
         11    1    3    3    0    0 -0.17298170198E+01 -0.66381461465E+01  0.57100927378E+01  0.89253801330E+01  0.51100000000E-03 0. -1.
        -11    1    3    3    0    0 -0.11422189067E+01 -0.90920047889E+01  0.10880281334E+02  0.14224968797E+02  0.51100000000E-03 0.  1.
         12    1    3    3    0    0  0.49952204830E+00  0.13298576502E+02  0.23926584538E+02  0.27378515426E+02  0.00000000000E+00 0. -1.
</event>
<event>
 7    1  0.5843820E-012  0.5052886E+02  0.7816164E-02  0.1300439E+00
        -11   -1    0    0    0    0  0.00000000000E+00  0.00000000000E+00  0.45593999997E+02  0.45594000000E+02  0.51100000000E-03 0. -1.
         11   -1    0    0    0    0 -0.00000000000E+00 -0.00000000000E+00 -0.45593999997E+02  0.45594000000E+02  0.51100000000E-03 0.  1.
    9900012    2    1    2    0    0  0.32894553535E+02 -0.23222111047E+02  0.56433436964E+01  0.50528862997E+02  0.30000009564E+02 0.  0.
        -12    1    1    2    0    0 -0.32894553535E+02  0.23222111047E+02 -0.56433436964E+01  0.40659137003E+02  0.00000000000E+00 0.  1.
         11    1    3    3    0    0  0.95650786754E+01 -0.83101850700E+01 -0.53504985843E+01  0.13754189955E+02  0.51100000000E-03 0. -1.
        -11    1    3    3    0    0  0.75869124812E+01 -0.11797232785E+01 -0.60807001231E+01  0.97942790577E+01  0.51100000000E-03 0.  1.
         12    1    3    3    0    0  0.15742562379E+02 -0.13732202699E+02  0.17074542404E+02  0.26980393984E+02  0.00000000000E+00 0. -1.
</event>
<event>
 7    1  0.5843820E-012  0.5052886E+02  0.7816164E-02  0.1300439E+00
        -11   -1    0    0    0    0  0.00000000000E+00  0.00000000000E+00  0.45593999997E+02  0.45594000000E+02  0.51100000000E-03 0.  1.
         11   -1    0    0    0    0 -0.00000000000E+00 -0.00000000000E+00 -0.45593999997E+02  0.45594000000E+02  0.51100000000E-03 0. -1.
    9900012    2    1    2    0    0 -0.31875041585E+02  0.69960262820E+01 -0.24252897268E+02  0.50528859752E+02  0.29999999703E+02 0.  0.
         12    1    1    2    0    0  0.31875041585E+02 -0.69960262820E+01  0.24252897268E+02  0.40659140248E+02  0.00000000000E+00 0. -1.
         11    1    3    3    0    0 -0.19787305115E+02  0.30732762760E+01 -0.49335785427E+01  0.20623352499E+02  0.51100000000E-03 0.  1.
        -11    1    3    3    0    0 -0.88248491733E+01  0.66522199900E+01 -0.99732962707E+00  0.11096155207E+02  0.51100000000E-03 0. -1.
         12    1    3    3    0    0 -0.32628872964E+01 -0.27294699841E+01 -0.18321989098E+02  0.18809352047E+02  0.00000000000E+00 0. -1.
</event>
<event>
 7    1  0.5843820E-012  0.5052884E+02  0.7816164E-02  0.1300439E+00
        -11   -1    0    0    0    0  0.00000000000E+00  0.00000000000E+00  0.45593999997E+02  0.45594000000E+02  0.51100000000E-03 0. -1.
         11   -1    0    0    0    0 -0.00000000000E+00 -0.00000000000E+00 -0.45593999997E+02  0.45594000000E+02  0.51100000000E-03 0.  1.
    9900012    2    1    2    0    0  0.29079253686E+02 -0.50733335054E+01 -0.27961139483E+02  0.50528843234E+02  0.29999949493E+02 0.  0.
         12    1    1    2    0    0 -0.29079253686E+02  0.50733335054E+01  0.27961139483E+02  0.40659156766E+02  0.00000000000E+00 0. -1.
         11    1    3    3    0    0  0.24136823322E+02 -0.99596994820E+01 -0.23791204907E+02  0.35324259157E+02  0.51100000000E-03 0. -1.
        -11    1    3    3    0    0  0.40649950761E+00 -0.31656037941E+01 -0.49934386497E+01  0.59262736218E+01  0.51100000000E-03 0.  1.
         12    1    3    3    0    0  0.45359308567E+01  0.80519697708E+01  0.82350407395E+00  0.92783104543E+01  0.00000000000E+00 0. -1.
</event>
<event>
 7    1  0.5843820E-012  0.5052888E+02  0.7816164E-02  0.1300439E+00
        -11   -1    0    0    0    0  0.00000000000E+00  0.00000000000E+00  0.45593999997E+02  0.45594000000E+02  0.51100000000E-03 0. -1.
         11   -1    0    0    0    0 -0.00000000000E+00 -0.00000000000E+00 -0.45593999997E+02  0.45594000000E+02  0.51100000000E-03 0.  1.
    9900012    2    1    2    0    0 -0.21121285213E+02  0.25676397674E+02  0.23404665284E+02  0.50528875027E+02  0.30000046131E+02 0.  0.
        -12    1    1    2    0    0  0.21121285213E+02 -0.25676397674E+02 -0.23404665284E+02  0.40659124973E+02  0.00000000000E+00 0.  1.
         11    1    3    3    0    0 -0.10981381881E+02 -0.53124838907E+00  0.10360128069E+02  0.15106463078E+02  0.51100000000E-03 0. -1.
        -11    1    3    3    0    0 -0.15676491034E+01  0.50585585095E+01 -0.42489453808E+01  0.67897036029E+01  0.51100000000E-03 0.  1.
        -12    1    3    3    0    0 -0.85722542285E+01  0.21149087554E+02  0.17293482596E+02  0.28632708346E+02  0.00000000000E+00 0.  1.
</event>
<event>
 7    1  0.5843820E-012  0.5052886E+02  0.7816164E-02  0.1300439E+00
        -11   -1    0    0    0    0  0.00000000000E+00  0.00000000000E+00  0.45593999997E+02  0.45594000000E+02  0.51100000000E-03 0. -1.
         11   -1    0    0    0    0 -0.00000000000E+00 -0.00000000000E+00 -0.45593999997E+02  0.45594000000E+02  0.51100000000E-03 0.  1.
    9900012    2    1    2    0    0  0.35527872188E+01 -0.31273304312E+02 -0.25739542017E+02  0.50528857328E+02  0.29999992333E+02 0.  0.
         12    1    1    2    0    0 -0.35527872188E+01  0.31273304312E+02  0.25739542017E+02  0.40659142672E+02  0.00000000000E+00 0. -1.
         11    1    3    3    0    0  0.82838935912E+01 -0.21043257066E+02 -0.19479945750E+02  0.29848112966E+02  0.51100000000E-03 0. -1.
        -11    1    3    3    0    0  0.29856893317E+01 -0.11477251424E+02 -0.43690462002E+01  0.12638441597E+02  0.51100000000E-03 0.  1.
         12    1    3    3    0    0 -0.77167957041E+01  0.12472041780E+01 -0.18905500672E+01  0.80423027646E+01  0.00000000000E+00 0. -1.
</event>
<event>
 7    1  0.5843820E-012  0.5052882E+02  0.7816164E-02  0.1300439E+00
        -11   -1    0    0    0    0  0.00000000000E+00  0.00000000000E+00  0.45593999997E+02  0.45594000000E+02  0.51100000000E-03 0. -1.
         11   -1    0    0    0    0 -0.00000000000E+00 -0.00000000000E+00 -0.45593999997E+02  0.45594000000E+02  0.51100000000E-03 0.  1.
    9900012    2    1    2    0    0  0.11884253712E+02 -0.13915051031E+02 -0.36308462785E+02  0.50528823898E+02  0.29999890719E+02 0.  0.
         12    1    1    2    0    0 -0.11884253712E+02  0.13915051031E+02  0.36308462785E+02  0.40659176102E+02  0.00000000000E+00 0. -1.
         11    1    3    3    0    0  0.76955014974E+01 -0.19551147060E+01 -0.36958524869E+01  0.87579987826E+01  0.51100000000E-03 0. -1.
        -11    1    3    3    0    0  0.12607084626E+02 -0.42533915950E+01 -0.10737943120E+02  0.17097758495E+02  0.51100000000E-03 0.  1.
         12    1    3    3    0    0 -0.84183324119E+01 -0.77065447300E+01 -0.21874667179E+02  0.24673066621E+02  0.00000000000E+00 0. -1.
</event>
<event>
 7    1  0.5843820E-012  0.5052887E+02  0.7816164E-02  0.1300439E+00
        -11   -1    0    0    0    0  0.00000000000E+00  0.00000000000E+00  0.45593999997E+02  0.45594000000E+02  0.51100000000E-03 0. -1.
         11   -1    0    0    0    0 -0.00000000000E+00 -0.00000000000E+00 -0.45593999997E+02  0.45594000000E+02  0.51100000000E-03 0.  1.
    9900012    2    1    2    0    0  0.11815593180E+02  0.30548674532E+02 -0.24090139989E+02  0.50528873072E+02  0.30000040190E+02 0.  0.
         12    1    1    2    0    0 -0.11815593180E+02 -0.30548674532E+02  0.24090139989E+02  0.40659126928E+02  0.00000000000E+00 0. -1.
         11    1    3    3    0    0  0.15055634823E+02  0.21279890846E+02 -0.27095514356E+01  0.26207776777E+02  0.51100000000E-03 0. -1.
        -11    1    3    3    0    0  0.15285213506E+00  0.40850411357E+01 -0.34459860796E+01  0.53465638664E+01  0.51100000000E-03 0.  1.
        -12    1    3    3    0    0 -0.33928937782E+01  0.51837425509E+01 -0.17934602473E+02  0.18974532429E+02  0.00000000000E+00 0.  1.
</event>
<event>
 7    1  0.5843820E-012  0.5052888E+02  0.7816164E-02  0.1300439E+00
        -11   -1    0    0    0    0  0.00000000000E+00  0.00000000000E+00  0.45593999997E+02  0.45594000000E+02  0.51100000000E-03 0.  1.
         11   -1    0    0    0    0 -0.00000000000E+00 -0.00000000000E+00 -0.45593999997E+02  0.45594000000E+02  0.51100000000E-03 0. -1.
    9900012    2    1    2    0    0 -0.28847352198E+02 -0.28045249285E+02  0.58701398210E+01  0.50528877066E+02  0.30000052328E+02 0.  0.
        -12    1    1    2    0    0  0.28847352198E+02  0.28045249285E+02 -0.58701398210E+01  0.40659122934E+02  0.00000000000E+00 0.  1.
         11    1    3    3    0    0 -0.62333500555E+01 -0.10444337179E+02 -0.17902178079E+01  0.12294051899E+02  0.51100000000E-03 0. -1.
        -11    1    3    3    0    0 -0.10568814768E+02 -0.22179814567E+02  0.52988439055E+01  0.25134075810E+02  0.51100000000E-03 0.  1.
        -12    1    3    3    0    0 -0.12045187375E+02  0.45789024616E+01  0.23615137235E+01  0.13100749357E+02  0.00000000000E+00 0.  1.
</event>
<event>
 7    1  0.5843820E-012  0.5052886E+02  0.7816164E-02  0.1300439E+00
        -11   -1    0    0    0    0  0.00000000000E+00  0.00000000000E+00  0.45593999997E+02  0.45594000000E+02  0.51100000000E-03 0. -1.
         11   -1    0    0    0    0 -0.00000000000E+00 -0.00000000000E+00 -0.45593999997E+02  0.45594000000E+02  0.51100000000E-03 0.  1.
    9900012    2    1    2    0    0 -0.25134397314E+02  0.30913355172E+02  0.81112529053E+01  0.50528857362E+02  0.29999992438E+02 0.  0.
        -12    1    1    2    0    0  0.25134397314E+02 -0.30913355172E+02 -0.81112529053E+01  0.40659142638E+02  0.00000000000E+00 0.  1.
         11    1    3    3    0    0 -0.70870837067E+01  0.39941411584E+01 -0.56817766452E+01  0.99228274784E+01  0.51100000000E-03 0. -1.
        -11    1    3    3    0    0 -0.24643967306E+01 -0.13904977513E+01 -0.30537471329E+01  0.41631847250E+01  0.51100000000E-03 0.  1.
         12    1    3    3    0    0 -0.15582916877E+02  0.28309711765E+02  0.16846776683E+02  0.36442845159E+02  0.00000000000E+00 0. -1.
</event>
<event>
 7    1  0.5953043E-012  0.5052885E+02  0.7816164E-02  0.1300439E+00
        -11   -1    0    0    0    0  0.00000000000E+00  0.00000000000E+00  0.45593999997E+02  0.45594000000E+02  0.51100000000E-03 0. -1.
         11   -1    0    0    0    0 -0.00000000000E+00 -0.00000000000E+00 -0.45593999997E+02  0.45594000000E+02  0.51100000000E-03 0.  1.
    9900012    2    1    2    0    0  0.16837343592E+02 -0.23845180730E+02 -0.28303314914E+02  0.50528850742E+02  0.29999972314E+02 0.  0.
         12    1    1    2    0    0 -0.16837343592E+02  0.23845180730E+02  0.28303314914E+02  0.40659149258E+02  0.00000000000E+00 0. -1.
         11    1    3    3    0    0 -0.19608733479E+01  0.15900202928E+01 -0.87497910931E+01  0.91067026553E+01  0.51100000000E-03 0. -1.
        -11    1    3    3    0    0  0.66309853464E+01 -0.14068591942E+02 -0.19277519149E+02  0.24769295321E+02  0.51100000000E-03 0.  1.
        -12    1    3    3    0    0  0.12167231593E+02 -0.11366609081E+02 -0.27600467216E+00  0.16652852765E+02  0.00000000000E+00 0.  1.
</event>
<event>
 7    1  0.5843820E-012  0.5052886E+02  0.7816164E-02  0.1300439E+00
        -11   -1    0    0    0    0  0.00000000000E+00  0.00000000000E+00  0.45593999997E+02  0.45594000000E+02  0.51100000000E-03 0. -1.
         11   -1    0    0    0    0 -0.00000000000E+00 -0.00000000000E+00 -0.45593999997E+02  0.45594000000E+02  0.51100000000E-03 0.  1.
    9900012    2    1    2    0    0  0.10495297818E+02 -0.19838884267E+02  0.33903292790E+02  0.50528857519E+02  0.29999992915E+02 0.  0.
        -12    1    1    2    0    0 -0.10495297818E+02  0.19838884267E+02 -0.33903292790E+02  0.40659142481E+02  0.00000000000E+00 0.  1.
         11    1    3    3    0    0 -0.11238087231E+01  0.33395716404E+01 -0.16088308923E+00  0.35272607526E+01  0.51100000000E-03 0. -1.
        -11    1    3    3    0    0  0.13716196164E+02 -0.59053462892E+01  0.17058361123E+02  0.22671454221E+02  0.51100000000E-03 0.  1.
         12    1    3    3    0    0 -0.20970896233E+01 -0.17273109618E+02  0.17005814756E+02  0.24330142546E+02  0.00000000000E+00 0. -1.
</event>
<event>
 7    1  0.7724648E-012  0.5052886E+02  0.7816164E-02  0.1300439E+00
        -11   -1    0    0    0    0  0.00000000000E+00  0.00000000000E+00  0.45593999997E+02  0.45594000000E+02  0.51100000000E-03 0. -1.
         11   -1    0    0    0    0 -0.00000000000E+00 -0.00000000000E+00 -0.45593999997E+02  0.45594000000E+02  0.51100000000E-03 0.  1.
    9900012    2    1    2    0    0  0.11278815531E+02 -0.30107550339E+02 -0.24889550032E+02  0.50528856281E+02  0.29999989151E+02 0.  0.
         12    1    1    2    0    0 -0.11278815531E+02  0.30107550339E+02  0.24889550032E+02  0.40659143719E+02  0.00000000000E+00 0. -1.
         11    1    3    3    0    0 -0.49127993831E+01 -0.43216276159E+01  0.25092980413E+01  0.70077556999E+01  0.51100000000E-03 0. -1.
        -11    1    3    3    0    0  0.81428997497E+01 -0.40581146964E+01 -0.23454076937E+01  0.93955334459E+01  0.51100000000E-03 0.  1.
        -12    1    3    3    0    0  0.80487151643E+01 -0.21727808027E+02 -0.25053440379E+02  0.34125567135E+02  0.00000000000E+00 0.  1.
</event>
<event>
 7    1  0.5843820E-012  0.5052886E+02  0.7816164E-02  0.1300439E+00
        -11   -1    0    0    0    0  0.00000000000E+00  0.00000000000E+00  0.45593999997E+02  0.45594000000E+02  0.51100000000E-03 0. -1.
         11   -1    0    0    0    0 -0.00000000000E+00 -0.00000000000E+00 -0.45593999997E+02  0.45594000000E+02  0.51100000000E-03 0.  1.
    9900012    2    1    2    0    0  0.17781794590E+02 -0.56842905993E+01  0.36120106514E+02  0.50528862367E+02  0.30000007651E+02 0.  0.
        -12    1    1    2    0    0 -0.17781794590E+02  0.56842905993E+01 -0.36120106514E+02  0.40659137633E+02  0.00000000000E+00 0.  1.
         11    1    3    3    0    0  0.66165241410E+01  0.56534391535E+01  0.15183536640E+02  0.17500844298E+02  0.51100000000E-03 0. -1.
        -11    1    3    3    0    0 -0.16809733842E+01  0.98408153760E+00  0.13659375236E+02  0.13797558483E+02  0.51100000000E-03 0.  1.
        -12    1    3    3    0    0  0.12846243834E+02 -0.12321811290E+02  0.72771946379E+01  0.19230459587E+02  0.00000000000E+00 0.  1.
</event>
<event>
 7    1  0.5843820E-012  0.5052886E+02  0.7816164E-02  0.1300439E+00
        -11   -1    0    0    0    0  0.00000000000E+00  0.00000000000E+00  0.45593999997E+02  0.45594000000E+02  0.51100000000E-03 0. -1.
         11   -1    0    0    0    0 -0.00000000000E+00 -0.00000000000E+00 -0.45593999997E+02  0.45594000000E+02  0.51100000000E-03 0.  1.
    9900012    2    1    2    0    0  0.18838927891E+02  0.57420457257E+01 -0.35570905889E+02  0.50528860327E+02  0.30000001451E+02 0.  0.
         12    1    1    2    0    0 -0.18838927891E+02 -0.57420457257E+01  0.35570905889E+02  0.40659139673E+02  0.00000000000E+00 0. -1.
         11    1    3    3    0    0  0.10814419600E+01  0.10405124538E+02 -0.46352241160E+01  0.11442090553E+02  0.51100000000E-03 0. -1.
        -11    1    3    3    0    0  0.77095461710E+01  0.49580191703E+01 -0.75458869970E+01  0.11872635221E+02  0.51100000000E-03 0.  1.
         12    1    3    3    0    0  0.10047939760E+02 -0.96210979827E+01 -0.23389794776E+02  0.27214134553E+02  0.00000000000E+00 0. -1.
</event>
<event>
 7    1  0.5843820E-012  0.5052889E+02  0.7816164E-02  0.1300439E+00
        -11   -1    0    0    0    0  0.00000000000E+00  0.00000000000E+00  0.45593999997E+02  0.45594000000E+02  0.51100000000E-03 0. -1.
         11   -1    0    0    0    0 -0.00000000000E+00 -0.00000000000E+00 -0.45593999997E+02  0.45594000000E+02  0.51100000000E-03 0.  1.
    9900012    2    1    2    0    0  0.47660558318E+01  0.21820021575E+02  0.33975499091E+02  0.50528890710E+02  0.30000093803E+02 0.  0.
        -12    1    1    2    0    0 -0.47660558318E+01 -0.21820021575E+02 -0.33975499091E+02  0.40659109290E+02  0.00000000000E+00 0.  1.
         11    1    3    3    0    0  0.50260630732E+01  0.68790122773E+01  0.80157440589E+01  0.11697618262E+02  0.51100000000E-03 0. -1.
        -11    1    3    3    0    0  0.81986308684E+01  0.10217181757E+01  0.91801736416E-01  0.82625591657E+01  0.51100000000E-03 0.  1.
        -12    1    3    3    0    0 -0.84586381097E+01  0.13919291122E+02  0.25867953296E+02  0.30568713282E+02  0.00000000000E+00 0.  1.
</event>
<event>
 7    1  0.5843820E-012  0.5052886E+02  0.7816164E-02  0.1300439E+00
        -11   -1    0    0    0    0  0.00000000000E+00  0.00000000000E+00  0.45593999997E+02  0.45594000000E+02  0.51100000000E-03 0. -1.
         11   -1    0    0    0    0 -0.00000000000E+00 -0.00000000000E+00 -0.45593999997E+02  0.45594000000E+02  0.51100000000E-03 0.  1.
    9900012    2    1    2    0    0 -0.65190742986E+01 -0.92945956434E+01  0.39042001816E+02  0.50528859039E+02  0.29999997536E+02 0.  0.
        -12    1    1    2    0    0  0.65190742986E+01  0.92945956434E+01 -0.39042001816E+02  0.40659140961E+02  0.00000000000E+00 0.  1.
         11    1    3    3    0    0 -0.44719135981E+01 -0.68314832800E+01  0.13410431677E+02  0.15700536713E+02  0.51100000000E-03 0. -1.
        -11    1    3    3    0    0  0.49136008499E+01 -0.70256365229E+01  0.25059952930E+02  0.26485926130E+02  0.51100000000E-03 0.  1.
        -12    1    3    3    0    0 -0.69607615504E+01  0.45625241595E+01  0.57161720869E+00  0.83423961966E+01  0.00000000000E+00 0.  1.
</event>
<event>
 7    1  0.5843820E-012  0.5052887E+02  0.7816164E-02  0.1300439E+00
        -11   -1    0    0    0    0  0.00000000000E+00  0.00000000000E+00  0.45593999997E+02  0.45594000000E+02  0.51100000000E-03 0. -1.
         11   -1    0    0    0    0 -0.00000000000E+00 -0.00000000000E+00 -0.45593999997E+02  0.45594000000E+02  0.51100000000E-03 0.  1.
    9900012    2    1    2    0    0  0.32410929817E+02 -0.14414305858E+02  0.19872705437E+02  0.50528868106E+02  0.30000025094E+02 0.  0.
        -12    1    1    2    0    0 -0.32410929817E+02  0.14414305858E+02 -0.19872705437E+02  0.40659131894E+02  0.00000000000E+00 0.  1.
         11    1    3    3    0    0  0.16660124331E+02 -0.85059560888E+01  0.69201751374E+01  0.19944920554E+02  0.51100000000E-03 0. -1.
        -11    1    3    3    0    0  0.76164468212E+01 -0.70673002889E+01  0.18112843407E+02  0.20881381470E+02  0.51100000000E-03 0.  1.
        -12    1    3    3    0    0  0.81343586656E+01  0.11589505196E+01 -0.51603131073E+01  0.97025660818E+01  0.00000000000E+00 0.  1.
</event>
<event>
 7    1  0.5843820E-012  0.5052886E+02  0.7816164E-02  0.1300439E+00
        -11   -1    0    0    0    0  0.00000000000E+00  0.00000000000E+00  0.45593999997E+02  0.45594000000E+02  0.51100000000E-03 0. -1.
         11   -1    0    0    0    0 -0.00000000000E+00 -0.00000000000E+00 -0.45593999997E+02  0.45594000000E+02  0.51100000000E-03 0.  1.
    9900012    2    1    2    0    0  0.44712569934E+01 -0.10240336462E+01  0.40399569157E+02  0.50528856231E+02  0.29999988998E+02 0.  0.
        -12    1    1    2    0    0 -0.44712569934E+01  0.10240336462E+01 -0.40399569157E+02  0.40659143769E+02  0.00000000000E+00 0.  1.
         11    1    3    3    0    0  0.13013334822E+01 -0.47256322616E+00  0.20010786211E+02  0.20058622831E+02  0.51100000000E-03 0. -1.
        -11    1    3    3    0    0  0.21145526179E+01  0.68865382748E+01  0.21681824328E+02  0.22847259106E+02  0.51100000000E-03 0.  1.
        -12    1    3    3    0    0  0.10553708932E+01 -0.74380086948E+01 -0.12930413824E+01  0.76229742937E+01  0.00000000000E+00 0.  1.
</event>
<event>
 7    1  0.5843820E-012  0.5052886E+02  0.7816164E-02  0.1300439E+00
        -11   -1    0    0    0    0  0.00000000000E+00  0.00000000000E+00  0.45593999997E+02  0.45594000000E+02  0.51100000000E-03 0. -1.
         11   -1    0    0    0    0 -0.00000000000E+00 -0.00000000000E+00 -0.45593999997E+02  0.45594000000E+02  0.51100000000E-03 0.  1.
    9900012    2    1    2    0    0 -0.67066890376E+01  0.19888021685E+02 -0.34823158816E+02  0.50528862351E+02  0.30000007603E+02 0.  0.
         12    1    1    2    0    0  0.67066890376E+01 -0.19888021685E+02  0.34823158816E+02  0.40659137649E+02  0.00000000000E+00 0. -1.
         11    1    3    3    0    0  0.91212650250E+01  0.16759017543E+01 -0.16875443701E+02  0.19255823086E+02  0.51100000000E-03 0.  1.
        -11    1    3    3    0    0 -0.63486122261E+01  0.42830059671E+01 -0.10129871539E+02  0.12698949365E+02  0.51100000000E-03 0. -1.
        -12    1    3    3    0    0 -0.94793418366E+01  0.13929113963E+02 -0.78178435761E+01  0.18574089901E+02  0.00000000000E+00 0.  1.
</event>
<event>
 7    1  0.5843820E-012  0.5052886E+02  0.7816164E-02  0.1300439E+00
        -11   -1    0    0    0    0  0.00000000000E+00  0.00000000000E+00  0.45593999997E+02  0.45594000000E+02  0.51100000000E-03 0. -1.
         11   -1    0    0    0    0 -0.00000000000E+00 -0.00000000000E+00 -0.45593999997E+02  0.45594000000E+02  0.51100000000E-03 0.  1.
    9900012    2    1    2    0    0  0.12060324665E+02  0.95707854328E+01 -0.37631291773E+02  0.50528862216E+02  0.30000007191E+02 0.  0.
         12    1    1    2    0    0 -0.12060324665E+02 -0.95707854328E+01  0.37631291773E+02  0.40659137784E+02  0.00000000000E+00 0. -1.
         11    1    3    3    0    0 -0.80426162962E+00 -0.15311909229E+01 -0.45953855898E+01  0.49100866989E+01  0.51100000000E-03 0. -1.
        -11    1    3    3    0    0  0.13771364407E+02 -0.47862528001E+01 -0.21442716360E+02  0.25929689135E+02  0.51100000000E-03 0.  1.
         12    1    3    3    0    0 -0.90677811284E+00  0.15888229156E+02 -0.11593189824E+02  0.19689086382E+02  0.00000000000E+00 0. -1.
</event>
<event>
 7    1  0.5843820E-012  0.5052878E+02  0.7816164E-02  0.1300439E+00
        -11   -1    0    0    0    0  0.00000000000E+00  0.00000000000E+00  0.45593999997E+02  0.45594000000E+02  0.51100000000E-03 0. -1.
         11   -1    0    0    0    0 -0.00000000000E+00 -0.00000000000E+00 -0.45593999997E+02  0.45594000000E+02  0.51100000000E-03 0.  1.
    9900012    2    1    2    0    0 -0.15631112370E+02  0.15867160680E+02  0.34015783364E+02  0.50528782350E+02  0.29999764431E+02 0.  0.
        -12    1    1    2    0    0  0.15631112370E+02 -0.15867160680E+02 -0.34015783364E+02  0.40659217650E+02  0.00000000000E+00 0.  1.
         11    1    3    3    0    0  0.44741332623E+01  0.57545617882E+01  0.31890049605E+01  0.79562932778E+01  0.51100000000E-03 0. -1.
        -11    1    3    3    0    0  0.11889272084E+01  0.35398697467E+01 -0.86167152798E+00  0.38323235529E+01  0.51100000000E-03 0.  1.
         12    1    3    3    0    0 -0.21294172841E+02  0.65727291451E+01  0.31688449932E+02  0.38740165520E+02  0.00000000000E+00 0. -1.
</event>
<event>
 7    1  0.5843820E-012  0.5052886E+02  0.7816164E-02  0.1300439E+00
        -11   -1    0    0    0    0  0.00000000000E+00  0.00000000000E+00  0.45593999997E+02  0.45594000000E+02  0.51100000000E-03 0. -1.
         11   -1    0    0    0    0 -0.00000000000E+00 -0.00000000000E+00 -0.45593999997E+02  0.45594000000E+02  0.51100000000E-03 0.  1.
    9900012    2    1    2    0    0 -0.81459003293E+01 -0.18572442013E+02 -0.35240238064E+02  0.50528859904E+02  0.30000000164E+02 0.  0.
         12    1    1    2    0    0  0.81459003293E+01  0.18572442013E+02  0.35240238064E+02  0.40659140096E+02  0.00000000000E+00 0. -1.
         11    1    3    3    0    0 -0.41250523734E+01 -0.26377427863E+01 -0.23348466010E+02  0.23856332689E+02  0.51100000000E-03 0. -1.
        -11    1    3    3    0    0 -0.90718742868E+01 -0.60448726583E+01 -0.11070928721E+02  0.15537208615E+02  0.51100000000E-03 0.  1.
         12    1    3    3    0    0  0.50510263309E+01 -0.98898265685E+01 -0.82084333331E+00  0.11135318600E+02  0.00000000000E+00 0. -1.
</event>
<event>
 7    1  0.5843820E-012  0.5052886E+02  0.7816164E-02  0.1300439E+00
        -11   -1    0    0    0    0  0.00000000000E+00  0.00000000000E+00  0.45593999997E+02  0.45594000000E+02  0.51100000000E-03 0. -1.
         11   -1    0    0    0    0 -0.00000000000E+00 -0.00000000000E+00 -0.45593999997E+02  0.45594000000E+02  0.51100000000E-03 0.  1.
    9900012    2    1    2    0    0  0.93770741680E+01 -0.13051336693E+02  0.37348346809E+02  0.50528856886E+02  0.29999990989E+02 0.  0.
        -12    1    1    2    0    0 -0.93770741680E+01  0.13051336693E+02 -0.37348346809E+02  0.40659143114E+02  0.00000000000E+00 0.  1.
         11    1    3    3    0    0 -0.68172482540E+01  0.17855122546E+01  0.31737788934E+01  0.77288938726E+01  0.51100000000E-03 0. -1.
        -11    1    3    3    0    0  0.10513729070E+02 -0.54153275539E+01  0.76516878033E+01  0.14085900680E+02  0.51100000000E-03 0.  1.
         12    1    3    3    0    0  0.56805933524E+01 -0.94215213941E+01  0.26522880112E+02  0.28714062333E+02  0.00000000000E+00 0. -1.
</event>
<event>
 7    1  0.5843820E-012  0.5052886E+02  0.7816164E-02  0.1300439E+00
        -11   -1    0    0    0    0  0.00000000000E+00  0.00000000000E+00  0.45593999997E+02  0.45594000000E+02  0.51100000000E-03 0. -1.
         11   -1    0    0    0    0 -0.00000000000E+00 -0.00000000000E+00 -0.45593999997E+02  0.45594000000E+02  0.51100000000E-03 0.  1.
    9900012    2    1    2    0    0 -0.94385155188E+01  0.15458526085E+01 -0.39518229190E+02  0.50528859898E+02  0.30000000146E+02 0.  0.
         12    1    1    2    0    0  0.94385155188E+01 -0.15458526085E+01  0.39518229190E+02  0.40659140102E+02  0.00000000000E+00 0. -1.
         11    1    3    3    0    0 -0.13403814568E+02  0.28455993831E+01 -0.28240896969E+02  0.31389615205E+02  0.51100000000E-03 0. -1.
        -11    1    3    3    0    0 -0.26232909361E+01 -0.44419449139E+01 -0.10624374978E+02  0.11810583131E+02  0.51100000000E-03 0.  1.
         12    1    3    3    0    0  0.65885899849E+01  0.31421981393E+01 -0.65295724273E+00  0.73286615624E+01  0.00000000000E+00 0. -1.
</event>
<event>
 7    1  0.5843820E-012  0.5052888E+02  0.7816164E-02  0.1300439E+00
        -11   -1    0    0    0    0  0.00000000000E+00  0.00000000000E+00  0.45593999997E+02  0.45594000000E+02  0.51100000000E-03 0. -1.
         11   -1    0    0    0    0 -0.00000000000E+00 -0.00000000000E+00 -0.45593999997E+02  0.45594000000E+02  0.51100000000E-03 0.  1.
    9900012    2    1    2    0    0  0.54445440143E+01 -0.53215878049E+01 -0.39939973522E+02  0.50528882434E+02  0.30000068646E+02 0.  0.
         12    1    1    2    0    0 -0.54445440143E+01  0.53215878049E+01  0.39939973522E+02  0.40659117566E+02  0.00000000000E+00 0. -1.
         11    1    3    3    0    0  0.16020472136E+01 -0.10072473319E+02 -0.14614181516E+02  0.17821211398E+02  0.51100000000E-03 0. -1.
        -11    1    3    3    0    0 -0.72095664108E+01  0.35134285841E+00 -0.39079714056E+01  0.82081380596E+01  0.51100000000E-03 0.  1.
         12    1    3    3    0    0  0.11052063212E+02  0.43995426553E+01 -0.21417820600E+02  0.24499532977E+02  0.00000000000E+00 0. -1.
</event>
<event>
 7    1  0.5843820E-012  0.5052885E+02  0.7816164E-02  0.1300439E+00
        -11   -1    0    0    0    0  0.00000000000E+00  0.00000000000E+00  0.45593999997E+02  0.45594000000E+02  0.51100000000E-03 0. -1.
         11   -1    0    0    0    0 -0.00000000000E+00 -0.00000000000E+00 -0.45593999997E+02  0.45594000000E+02  0.51100000000E-03 0.  1.
    9900012    2    1    2    0    0 -0.30688782904E+01 -0.38087488123E+02  0.13895744426E+02  0.50528850002E+02  0.29999970065E+02 0.  0.
        -12    1    1    2    0    0  0.30688782904E+01  0.38087488123E+02 -0.13895744426E+02  0.40659149998E+02  0.00000000000E+00 0.  1.
         11    1    3    3    0    0 -0.18812939166E+01 -0.17643895682E+01  0.28085217509E+01  0.38131525062E+01  0.51100000000E-03 0. -1.
        -11    1    3    3    0    0 -0.96148398348E+01 -0.35212897772E+01 -0.19546599709E+01  0.10424266046E+02  0.51100000000E-03 0.  1.
        -12    1    3    3    0    0  0.84272554610E+01 -0.32801808777E+02  0.13041882646E+02  0.36291431449E+02  0.00000000000E+00 0.  1.
</event>
<event>
 7    1  0.5843820E-012  0.5052886E+02  0.7816164E-02  0.1300439E+00
        -11   -1    0    0    0    0  0.00000000000E+00  0.00000000000E+00  0.45593999997E+02  0.45594000000E+02  0.51100000000E-03 0. -1.
         11   -1    0    0    0    0 -0.00000000000E+00 -0.00000000000E+00 -0.45593999997E+02  0.45594000000E+02  0.51100000000E-03 0.  1.
    9900012    2    1    2    0    0  0.30666528667E+02 -0.22636813697E+02  0.14152888093E+02  0.50528861345E+02  0.30000004543E+02 0.  0.
        -12    1    1    2    0    0 -0.30666528667E+02  0.22636813697E+02 -0.14152888093E+02  0.40659138655E+02  0.00000000000E+00 0.  1.
         11    1    3    3    0    0  0.53533242088E+00 -0.13406151211E+02  0.63623054600E+01  0.14848919224E+02  0.51100000000E-03 0. -1.
        -11    1    3    3    0    0  0.86109994651E+00  0.38344744245E+00  0.46125322591E+01  0.47078635454E+01  0.51100000000E-03 0.  1.
        -12    1    3    3    0    0  0.29270096299E+02 -0.96141099290E+01  0.31780503735E+01  0.30972078575E+02  0.00000000000E+00 0.  1.
</event>
<event>
 7    1  0.5843820E-012  0.5052885E+02  0.7816164E-02  0.1300439E+00
        -11   -1    0    0    0    0  0.00000000000E+00  0.00000000000E+00  0.45593999997E+02  0.45594000000E+02  0.51100000000E-03 0. -1.
         11   -1    0    0    0    0 -0.00000000000E+00 -0.00000000000E+00 -0.45593999997E+02  0.45594000000E+02  0.51100000000E-03 0.  1.
    9900012    2    1    2    0    0  0.24163645129E+01 -0.32798296939E+02  0.23908141099E+02  0.50528852070E+02  0.29999976353E+02 0.  0.
        -12    1    1    2    0    0 -0.24163645129E+01  0.32798296939E+02 -0.23908141099E+02  0.40659147930E+02  0.00000000000E+00 0.  1.
         11    1    3    3    0    0 -0.70699406580E+01 -0.22971011685E+01  0.12448237948E+02  0.14498943511E+02  0.51100000000E-03 0. -1.
        -11    1    3    3    0    0  0.14086502623E+00  0.87762507608E+00 -0.67123687586E+00  0.11138347878E+01  0.51100000000E-03 0.  1.
         12    1    3    3    0    0  0.93454401447E+01 -0.31378820847E+02  0.12131140027E+02  0.34916073771E+02  0.00000000000E+00 0. -1.
</event>
<event>
 7    1  0.5843820E-012  0.5052886E+02  0.7816164E-02  0.1300439E+00
        -11   -1    0    0    0    0  0.00000000000E+00  0.00000000000E+00  0.45593999997E+02  0.45594000000E+02  0.51100000000E-03 0.  1.
         11   -1    0    0    0    0 -0.00000000000E+00 -0.00000000000E+00 -0.45593999997E+02  0.45594000000E+02  0.51100000000E-03 0. -1.
    9900012    2    1    2    0    0  0.21619256070E+02  0.31447452231E+02 -0.14029657107E+02  0.50528858797E+02  0.29999996799E+02 0.  0.
         12    1    1    2    0    0 -0.21619256070E+02 -0.31447452231E+02  0.14029657107E+02  0.40659141203E+02  0.00000000000E+00 0. -1.
         11    1    3    3    0    0  0.17051316178E+01  0.16751364966E+01 -0.25519861744E+01  0.34965968901E+01  0.51100000000E-03 0. -1.
        -11    1    3    3    0    0  0.84743289800E+01 -0.34432346766E+00  0.59918909899E+01  0.10384390604E+02  0.51100000000E-03 0.  1.
         12    1    3    3    0    0  0.11439795472E+02  0.30116639202E+02 -0.17469561922E+02  0.36647871303E+02  0.00000000000E+00 0. -1.
</event>
<event>
 7    1  0.5843820E-012  0.5052885E+02  0.7816164E-02  0.1300439E+00
        -11   -1    0    0    0    0  0.00000000000E+00  0.00000000000E+00  0.45593999997E+02  0.45594000000E+02  0.51100000000E-03 0. -1.
         11   -1    0    0    0    0 -0.00000000000E+00 -0.00000000000E+00 -0.45593999997E+02  0.45594000000E+02  0.51100000000E-03 0.  1.
    9900012    2    1    2    0    0  0.29971036690E+02  0.66612140086E+01  0.26655792279E+02  0.50528854972E+02  0.29999985174E+02 0.  0.
        -12    1    1    2    0    0 -0.29971036690E+02 -0.66612140086E+01 -0.26655792279E+02  0.40659145028E+02  0.00000000000E+00 0.  1.
         11    1    3    3    0    0  0.80825206251E+01  0.17314681340E+01  0.51477953836E+01  0.97378087436E+01  0.51100000000E-03 0. -1.
        -11    1    3    3    0    0  0.25980546514E+02  0.35313259749E+01  0.24213823269E+02  0.35689890696E+02  0.51100000000E-03 0.  1.
        -12    1    3    3    0    0 -0.40920304487E+01  0.13984198997E+01 -0.27058263738E+01  0.51011555332E+01  0.00000000000E+00 0.  1.
</event>
<event>
 7    1  0.5843820E-012  0.5052882E+02  0.7816164E-02  0.1300439E+00
        -11   -1    0    0    0    0  0.00000000000E+00  0.00000000000E+00  0.45593999997E+02  0.45594000000E+02  0.51100000000E-03 0. -1.
         11   -1    0    0    0    0 -0.00000000000E+00 -0.00000000000E+00 -0.45593999997E+02  0.45594000000E+02  0.51100000000E-03 0.  1.
    9900012    2    1    2    0    0 -0.51241720319E+01  0.24214156935E+02 -0.32258126295E+02  0.50528815955E+02  0.29999866578E+02 0.  0.
         12    1    1    2    0    0  0.51241720319E+01 -0.24214156935E+02  0.32258126295E+02  0.40659184045E+02  0.00000000000E+00 0. -1.
         11    1    3    3    0    0 -0.59637592304E+01 -0.82084857671E+00 -0.68395666863E+01  0.91115250788E+01  0.51100000000E-03 0. -1.
        -11    1    3    3    0    0  0.77217575376E+00  0.86966034049E+01  0.24890877278E+01  0.90786961704E+01  0.51100000000E-03 0.  1.
        -12    1    3    3    0    0  0.67411444762E-01  0.16338402107E+02 -0.27907647337E+02  0.32338594706E+02  0.00000000000E+00 0.  1.
</event>
<event>
 7    1  0.5843820E-012  0.5052886E+02  0.7816164E-02  0.1300439E+00
        -11   -1    0    0    0    0  0.00000000000E+00  0.00000000000E+00  0.45593999997E+02  0.45594000000E+02  0.51100000000E-03 0. -1.
         11   -1    0    0    0    0 -0.00000000000E+00 -0.00000000000E+00 -0.45593999997E+02  0.45594000000E+02  0.51100000000E-03 0.  1.
    9900012    2    1    2    0    0 -0.23628641919E+02 -0.25665402161E+02 -0.20883973556E+02  0.50528856644E+02  0.29999990254E+02 0.  0.
         12    1    1    2    0    0  0.23628641919E+02  0.25665402161E+02  0.20883973556E+02  0.40659143356E+02  0.00000000000E+00 0. -1.
         11    1    3    3    0    0 -0.42570681564E+01 -0.71367538938E+01 -0.86644338724E-02  0.83099916223E+01  0.51100000000E-03 0.  1.
        -11    1    3    3    0    0 -0.62875157830E+01  0.57628055982E+01 -0.19155183200E+01  0.87413954137E+01  0.51100000000E-03 0. -1.
         12    1    3    3    0    0 -0.13084057980E+02 -0.24291453865E+02 -0.18959790802E+02  0.33477469608E+02  0.00000000000E+00 0. -1.
</event>
<event>
 7    1  0.5843820E-012  0.5052886E+02  0.7816164E-02  0.1300439E+00
        -11   -1    0    0    0    0  0.00000000000E+00  0.00000000000E+00  0.45593999997E+02  0.45594000000E+02  0.51100000000E-03 0. -1.
         11   -1    0    0    0    0 -0.00000000000E+00 -0.00000000000E+00 -0.45593999997E+02  0.45594000000E+02  0.51100000000E-03 0.  1.
    9900012    2    1    2    0    0 -0.10485112810E+02  0.27297523268E+02 -0.28250194902E+02  0.50528857372E+02  0.29999992469E+02 0.  0.
         12    1    1    2    0    0  0.10485112810E+02 -0.27297523268E+02  0.28250194902E+02  0.40659142628E+02  0.00000000000E+00 0. -1.
         11    1    3    3    0    0 -0.10987595800E+01 -0.45818986458E+01 -0.10910477022E+02  0.11884425814E+02  0.51100000000E-03 0. -1.
        -11    1    3    3    0    0 -0.95825103043E-01  0.10296509820E+02 -0.17474771564E+01  0.10444183721E+02  0.51100000000E-03 0.  1.
        -12    1    3    3    0    0 -0.92905281265E+01  0.21582912095E+02 -0.15592240723E+02  0.28200247838E+02  0.00000000000E+00 0.  1.
</event>
<event>
 7    1  0.5843820E-012  0.5052886E+02  0.7816164E-02  0.1300439E+00
        -11   -1    0    0    0    0  0.00000000000E+00  0.00000000000E+00  0.45593999997E+02  0.45594000000E+02  0.51100000000E-03 0. -1.
         11   -1    0    0    0    0 -0.00000000000E+00 -0.00000000000E+00 -0.45593999997E+02  0.45594000000E+02  0.51100000000E-03 0.  1.
    9900012    2    1    2    0    0 -0.12727209613E+02  0.53901793863E+01  0.38237808969E+02  0.50528856709E+02  0.29999990453E+02 0.  0.
        -12    1    1    2    0    0  0.12727209613E+02 -0.53901793863E+01 -0.38237808969E+02  0.40659143291E+02  0.00000000000E+00 0.  1.
         11    1    3    3    0    0  0.10756520709E+01 -0.24049148245E+01  0.30752364109E+01  0.40494100724E+01  0.51100000000E-03 0. -1.
        -11    1    3    3    0    0  0.57654847383E+01  0.84042995333E+01  0.16729362933E+02  0.19589401454E+02  0.51100000000E-03 0.  1.
         12    1    3    3    0    0 -0.19568346423E+02 -0.60920532257E+00  0.18433209625E+02  0.26890045183E+02  0.00000000000E+00 0. -1.
</event>
<event>
 7    1  0.5843820E-012  0.5052887E+02  0.7816164E-02  0.1300439E+00
        -11   -1    0    0    0    0  0.00000000000E+00  0.00000000000E+00  0.45593999997E+02  0.45594000000E+02  0.51100000000E-03 0. -1.
         11   -1    0    0    0    0 -0.00000000000E+00 -0.00000000000E+00 -0.45593999997E+02  0.45594000000E+02  0.51100000000E-03 0.  1.
    9900012    2    1    2    0    0  0.39764441885E+01 -0.32972120280E+02 -0.23456180217E+02  0.50528865547E+02  0.30000017315E+02 0.  0.
         12    1    1    2    0    0 -0.39764441885E+01  0.32972120280E+02  0.23456180217E+02  0.40659134453E+02  0.00000000000E+00 0. -1.
         11    1    3    3    0    0  0.48642961758E+01 -0.86181410164E+00 -0.12147765937E+02  0.13113821654E+02  0.51100000000E-03 0. -1.
        -11    1    3    3    0    0  0.53135822442E+01 -0.90821983704E+01 -0.82505007442E+01  0.13371284392E+02  0.51100000000E-03 0.  1.
         12    1    3    3    0    0 -0.62014342315E+01 -0.23028107808E+02 -0.30579135352E+01  0.24043759501E+02  0.00000000000E+00 0. -1.
</event>
<event>
 7    1  0.5843820E-012  0.5052886E+02  0.7816164E-02  0.1300439E+00
        -11   -1    0    0    0    0  0.00000000000E+00  0.00000000000E+00  0.45593999997E+02  0.45594000000E+02  0.51100000000E-03 0.  1.
         11   -1    0    0    0    0 -0.00000000000E+00 -0.00000000000E+00 -0.45593999997E+02  0.45594000000E+02  0.51100000000E-03 0. -1.
    9900012    2    1    2    0    0 -0.26144523476E+02 -0.30236880597E+02 -0.74404749450E+01  0.50528859288E+02  0.29999998292E+02 0.  0.
         12    1    1    2    0    0  0.26144523476E+02  0.30236880597E+02  0.74404749450E+01  0.40659140712E+02  0.00000000000E+00 0. -1.
         11    1    3    3    0    0 -0.22134690743E+02 -0.19245840551E+02  0.25030895523E+01  0.29438280697E+02  0.51100000000E-03 0. -1.
        -11    1    3    3    0    0 -0.75762337532E+01 -0.54823464418E+01 -0.21331244589E+00  0.93541938644E+01  0.51100000000E-03 0.  1.
         12    1    3    3    0    0  0.35664010211E+01 -0.55086936049E+01 -0.97302520514E+01  0.11736384727E+02  0.00000000000E+00 0. -1.
</event>
<event>
 7    1  0.5843820E-012  0.5052882E+02  0.7816164E-02  0.1300439E+00
        -11   -1    0    0    0    0  0.00000000000E+00  0.00000000000E+00  0.45593999997E+02  0.45594000000E+02  0.51100000000E-03 0. -1.
         11   -1    0    0    0    0 -0.00000000000E+00 -0.00000000000E+00 -0.45593999997E+02  0.45594000000E+02  0.51100000000E-03 0.  1.
    9900012    2    1    2    0    0 -0.72323476000E+01  0.12859425332E+02  0.37887960791E+02  0.50528815987E+02  0.29999866674E+02 0.  0.
        -12    1    1    2    0    0  0.72323476000E+01 -0.12859425332E+02 -0.37887960791E+02  0.40659184013E+02  0.00000000000E+00 0.  1.
         11    1    3    3    0    0 -0.78767379650E+01 -0.37569434479E+01  0.17173529425E+02  0.19263637720E+02  0.51100000000E-03 0. -1.
        -11    1    3    3    0    0 -0.70453460624E+01  0.54049001312E+01  0.12658397917E+02  0.15462369956E+02  0.51100000000E-03 0.  1.
        -12    1    3    3    0    0  0.76897364274E+01  0.11211468649E+02  0.80560334491E+01  0.15802808311E+02  0.00000000000E+00 0.  1.
</event>
<event>
 7    1  0.5843820E-012  0.5052886E+02  0.7816164E-02  0.1300439E+00
        -11   -1    0    0    0    0  0.00000000000E+00  0.00000000000E+00  0.45593999997E+02  0.45594000000E+02  0.51100000000E-03 0. -1.
         11   -1    0    0    0    0 -0.00000000000E+00 -0.00000000000E+00 -0.45593999997E+02  0.45594000000E+02  0.51100000000E-03 0.  1.
    9900012    2    1    2    0    0 -0.18382803598E+00  0.39024802202E+01  0.40471006038E+02  0.50528862352E+02  0.30000007604E+02 0.  0.
        -12    1    1    2    0    0  0.18382803598E+00 -0.39024802202E+01 -0.40471006038E+02  0.40659137648E+02  0.00000000000E+00 0.  1.
         11    1    3    3    0    0  0.34336700691E+01  0.17192177916E+01  0.29360312383E+02  0.29610365473E+02  0.51100000000E-03 0. -1.
        -11    1    3    3    0    0  0.79171294635E+00  0.91155887799E+01  0.37528664571E+01  0.98896296745E+01  0.51100000000E-03 0.  1.
        -12    1    3    3    0    0 -0.44092110515E+01 -0.69323263513E+01  0.73578271973E+01  0.11028867204E+02  0.00000000000E+00 0.  1.
</event>
<event>
 7    1  0.5843820E-012  0.5052886E+02  0.7816164E-02  0.1300439E+00
        -11   -1    0    0    0    0  0.00000000000E+00  0.00000000000E+00  0.45593999997E+02  0.45594000000E+02  0.51100000000E-03 0. -1.
         11   -1    0    0    0    0 -0.00000000000E+00 -0.00000000000E+00 -0.45593999997E+02  0.45594000000E+02  0.51100000000E-03 0.  1.
    9900012    2    1    2    0    0  0.25567441205E+02 -0.30672898208E+01  0.31465274585E+02  0.50528858084E+02  0.29999994633E+02 0.  0.
        -12    1    1    2    0    0 -0.25567441205E+02  0.30672898208E+01 -0.31465274585E+02  0.40659141916E+02  0.00000000000E+00 0.  1.
         11    1    3    3    0    0  0.12262509328E+02  0.54218818516E+00  0.10613762060E+02  0.16226985191E+02  0.51100000000E-03 0. -1.
        -11    1    3    3    0    0  0.17265872420E+02 -0.35842860279E+01  0.23614752506E+02  0.29472258022E+02  0.51100000000E-03 0.  1.
        -12    1    3    3    0    0 -0.39609405427E+01 -0.25191977970E-01 -0.27632399807E+01  0.48296148717E+01  0.00000000000E+00 0.  1.
</event>
<event>
 7    1  0.5843820E-012  0.5052885E+02  0.7816164E-02  0.1300439E+00
        -11   -1    0    0    0    0  0.00000000000E+00  0.00000000000E+00  0.45593999997E+02  0.45594000000E+02  0.51100000000E-03 0.  1.
         11   -1    0    0    0    0 -0.00000000000E+00 -0.00000000000E+00 -0.45593999997E+02  0.45594000000E+02  0.51100000000E-03 0. -1.
    9900012    2    1    2    0    0 -0.27369309185E+02  0.25073429825E+02 -0.16595491954E+02  0.50528851932E+02  0.29999975931E+02 0.  0.
         12    1    1    2    0    0  0.27369309185E+02 -0.25073429825E+02  0.16595491954E+02  0.40659148068E+02  0.00000000000E+00 0. -1.
         11    1    3    3    0    0 -0.16793837267E+01 -0.23238595764E+01  0.24314295432E+01  0.37593221353E+01  0.51100000000E-03 0. -1.
        -11    1    3    3    0    0 -0.59987530735E+01  0.95621562782E+01  0.36253489121E+01  0.11855927889E+02  0.51100000000E-03 0.  1.
         12    1    3    3    0    0 -0.19691172384E+02  0.17835133124E+02 -0.22652270409E+02  0.34913601907E+02  0.00000000000E+00 0. -1.
</event>
<event>
 7    1  0.5843820E-012  0.5052886E+02  0.7816164E-02  0.1300439E+00
        -11   -1    0    0    0    0  0.00000000000E+00  0.00000000000E+00  0.45593999997E+02  0.45594000000E+02  0.51100000000E-03 0. -1.
         11   -1    0    0    0    0 -0.00000000000E+00 -0.00000000000E+00 -0.45593999997E+02  0.45594000000E+02  0.51100000000E-03 0.  1.
    9900012    2    1    2    0    0  0.23478498874E+02  0.28358939233E+01  0.33073907991E+02  0.50528860886E+02  0.30000003148E+02 0.  0.
        -12    1    1    2    0    0 -0.23478498874E+02 -0.28358939233E+01 -0.33073907991E+02  0.40659139114E+02  0.00000000000E+00 0.  1.
         11    1    3    3    0    0  0.87262496639E+01  0.68989656668E+01  0.99393981631E+01  0.14917600228E+02  0.51100000000E-03 0. -1.
        -11    1    3    3    0    0  0.17853276985E+02  0.38452856341E+01  0.18221344598E+02  0.25798122411E+02  0.51100000000E-03 0.  1.
        -12    1    3    3    0    0 -0.31010277745E+01 -0.79083573776E+01  0.49131652291E+01  0.98131382461E+01  0.00000000000E+00 0.  1.
</event>
<event>
 7    1  0.5843820E-012  0.5052886E+02  0.7816164E-02  0.1300439E+00
        -11   -1    0    0    0    0  0.00000000000E+00  0.00000000000E+00  0.45593999997E+02  0.45594000000E+02  0.51100000000E-03 0.  1.
         11   -1    0    0    0    0 -0.00000000000E+00 -0.00000000000E+00 -0.45593999997E+02  0.45594000000E+02  0.51100000000E-03 0. -1.
    9900012    2    1    2    0    0  0.16430911738E+02  0.33545817733E+02 -0.16058294946E+02  0.50528860997E+02  0.30000003486E+02 0.  0.
        -12    1    1    2    0    0 -0.16430911738E+02 -0.33545817733E+02  0.16058294946E+02  0.40659139003E+02  0.00000000000E+00 0.  1.
         11    1    3    3    0    0 -0.36139763620E+01 -0.12003549878E+01 -0.68223364800E+00  0.38687362605E+01  0.51100000000E-03 0. -1.
        -11    1    3    3    0    0 -0.29399086558E+01  0.93231271582E+01 -0.31127356040E+01  0.10259282924E+02  0.51100000000E-03 0.  1.
         12    1    3    3    0    0  0.22984796755E+02  0.25423045563E+02 -0.12263325693E+02  0.36400841812E+02  0.00000000000E+00 0. -1.
</event>
<event>
 7    1  0.5843820E-012  0.5052886E+02  0.7816164E-02  0.1300439E+00
        -11   -1    0    0    0    0  0.00000000000E+00  0.00000000000E+00  0.45593999997E+02  0.45594000000E+02  0.51100000000E-03 0. -1.
         11   -1    0    0    0    0 -0.00000000000E+00 -0.00000000000E+00 -0.45593999997E+02  0.45594000000E+02  0.51100000000E-03 0.  1.
    9900012    2    1    2    0    0 -0.79551851159E+01  0.21131348279E+02 -0.33813417562E+02  0.50528855180E+02  0.29999985804E+02 0.  0.
         12    1    1    2    0    0  0.79551851159E+01 -0.21131348279E+02  0.33813417562E+02  0.40659144820E+02  0.00000000000E+00 0. -1.
         11    1    3    3    0    0  0.10652670521E+00 -0.55666983625E+01 -0.29186184649E+01  0.62863194798E+01  0.51100000000E-03 0. -1.
        -11    1    3    3    0    0  0.15819704570E+01  0.29941452213E+00 -0.75113867153E+01  0.76820056125E+01  0.51100000000E-03 0.  1.
        -12    1    3    3    0    0 -0.96436822780E+01  0.26398632120E+02 -0.23383412381E+02  0.36560530087E+02  0.00000000000E+00 0.  1.
</event>
<event>
 7    1  0.5843820E-012  0.5052885E+02  0.7816164E-02  0.1300439E+00
        -11   -1    0    0    0    0  0.00000000000E+00  0.00000000000E+00  0.45593999997E+02  0.45594000000E+02  0.51100000000E-03 0. -1.
         11   -1    0    0    0    0 -0.00000000000E+00 -0.00000000000E+00 -0.45593999997E+02  0.45594000000E+02  0.51100000000E-03 0.  1.
    9900012    2    1    2    0    0  0.93561597374E+01  0.21367771628E+02  0.33302359139E+02  0.50528849572E+02  0.29999968758E+02 0.  0.
        -12    1    1    2    0    0 -0.93561597374E+01 -0.21367771628E+02 -0.33302359139E+02  0.40659150428E+02  0.00000000000E+00 0.  1.
         11    1    3    3    0    0  0.83553806780E+01  0.26060066658E+00  0.30450331486E+01  0.88967705443E+01  0.51100000000E-03 0. -1.
        -11    1    3    3    0    0  0.96707850647E+01  0.68463097094E+01  0.13872549510E+02  0.18244003688E+02  0.51100000000E-03 0.  1.
        -12    1    3    3    0    0 -0.86700060052E+01  0.14260861252E+02  0.16384776480E+02  0.23388075339E+02  0.00000000000E+00 0.  1.
</event>
<event>
 7    1  0.5843820E-012  0.5052885E+02  0.7816164E-02  0.1300439E+00
        -11   -1    0    0    0    0  0.00000000000E+00  0.00000000000E+00  0.45593999997E+02  0.45594000000E+02  0.51100000000E-03 0. -1.
         11   -1    0    0    0    0 -0.00000000000E+00 -0.00000000000E+00 -0.45593999997E+02  0.45594000000E+02  0.51100000000E-03 0.  1.
    9900012    2    1    2    0    0 -0.93930939219E+01 -0.28312785328E+02  0.27628288166E+02  0.50528851786E+02  0.29999975490E+02 0.  0.
        -12    1    1    2    0    0  0.93930939219E+01  0.28312785328E+02 -0.27628288166E+02  0.40659148214E+02  0.00000000000E+00 0.  1.
         11    1    3    3    0    0 -0.26771752924E+01  0.52929502960E+00  0.89416023538E+01  0.93487792619E+01  0.51100000000E-03 0. -1.
        -11    1    3    3    0    0  0.24516603682E+01 -0.27841337112E+01 -0.39846599383E+01  0.54442220902E+01  0.51100000000E-03 0.  1.
         12    1    3    3    0    0 -0.91675789978E+01 -0.26057946647E+02  0.22671345751E+02  0.35735850434E+02  0.00000000000E+00 0. -1.
</event>
<event>
 7    1  0.5843820E-012  0.5052886E+02  0.7816164E-02  0.1300439E+00
        -11   -1    0    0    0    0  0.00000000000E+00  0.00000000000E+00  0.45593999997E+02  0.45594000000E+02  0.51100000000E-03 0.  1.
         11   -1    0    0    0    0 -0.00000000000E+00 -0.00000000000E+00 -0.45593999997E+02  0.45594000000E+02  0.51100000000E-03 0. -1.
    9900012    2    1    2    0    0 -0.37121377868E+02  0.11502516562E+02 -0.11952454887E+02  0.50528858840E+02  0.29999996929E+02 0.  0.
         12    1    1    2    0    0  0.37121377868E+02 -0.11502516562E+02  0.11952454887E+02  0.40659141160E+02  0.00000000000E+00 0. -1.
         11    1    3    3    0    0 -0.62630879241E+01  0.22514477248E+01 -0.49035216116E+01  0.82667896828E+01  0.51100000000E-03 0. -1.
        -11    1    3    3    0    0 -0.34279444024E+02  0.12777611164E+02 -0.74432046977E+01  0.37332946925E+02  0.51100000000E-03 0.  1.
        -12    1    3    3    0    0  0.34211540804E+01 -0.35265423265E+01  0.39427142202E+00  0.49291222319E+01  0.00000000000E+00 0.  1.
</event>
<event>
 7    1  0.5843820E-012  0.5052890E+02  0.7816164E-02  0.1300439E+00
        -11   -1    0    0    0    0  0.00000000000E+00  0.00000000000E+00  0.45593999997E+02  0.45594000000E+02  0.51100000000E-03 0. -1.
         11   -1    0    0    0    0 -0.00000000000E+00 -0.00000000000E+00 -0.45593999997E+02  0.45594000000E+02  0.51100000000E-03 0.  1.
    9900012    2    1    2    0    0 -0.32458727914E+02  0.19498181403E+02 -0.14812642145E+02  0.50528899381E+02  0.30000120159E+02 0.  0.
         12    1    1    2    0    0  0.32458727914E+02 -0.19498181403E+02  0.14812642145E+02  0.40659100619E+02  0.00000000000E+00 0. -1.
         11    1    3    3    0    0 -0.24460448738E+01 -0.60293369636E+01 -0.19455170669E+01  0.67912500075E+01  0.51100000000E-03 0. -1.
        -11    1    3    3    0    0 -0.47631678031E+01  0.12527561982E+02 -0.41488628298E+01  0.14029990727E+02  0.51100000000E-03 0.  1.
         12    1    3    3    0    0 -0.25249515237E+02  0.12999956384E+02 -0.87182622486E+01  0.29707658647E+02  0.00000000000E+00 0. -1.
</event>
<event>
 7    1  0.5843820E-012  0.5052885E+02  0.7816164E-02  0.1300439E+00
        -11   -1    0    0    0    0  0.00000000000E+00  0.00000000000E+00  0.45593999997E+02  0.45594000000E+02  0.51100000000E-03 0. -1.
         11   -1    0    0    0    0 -0.00000000000E+00 -0.00000000000E+00 -0.45593999997E+02  0.45594000000E+02  0.51100000000E-03 0.  1.
    9900012    2    1    2    0    0  0.16192145661E+02  0.18679443211E+02  0.32280943723E+02  0.50528849647E+02  0.29999968987E+02 0.  0.
        -12    1    1    2    0    0 -0.16192145661E+02 -0.18679443211E+02 -0.32280943723E+02  0.40659150353E+02  0.00000000000E+00 0.  1.
         11    1    3    3    0    0  0.12401347410E+02  0.79466826102E+01  0.16131478660E+02  0.21844170529E+02  0.51100000000E-03 0.  1.
        -11    1    3    3    0    0  0.10907002398E+02  0.12264492154E+02  0.10718500302E+02  0.19602722212E+02  0.51100000000E-03 0. -1.
        -12    1    3    3    0    0 -0.71162041469E+01 -0.15317315534E+01  0.54309647611E+01  0.90819569063E+01  0.00000000000E+00 0.  1.
</event>
<event>
 7    1  0.5843820E-012  0.5052885E+02  0.7816164E-02  0.1300439E+00
        -11   -1    0    0    0    0  0.00000000000E+00  0.00000000000E+00  0.45593999997E+02  0.45594000000E+02  0.51100000000E-03 0. -1.
         11   -1    0    0    0    0 -0.00000000000E+00 -0.00000000000E+00 -0.45593999997E+02  0.45594000000E+02  0.51100000000E-03 0.  1.
    9900012    2    1    2    0    0 -0.12498524913E+02 -0.22142924274E+02  0.31727662108E+02  0.50528846501E+02  0.29999959424E+02 0.  0.
        -12    1    1    2    0    0  0.12498524913E+02  0.22142924274E+02 -0.31727662108E+02  0.40659153499E+02  0.00000000000E+00 0.  1.
         11    1    3    3    0    0  0.60530044954E+01 -0.25659778962E+01  0.97223714888E+01  0.11736592930E+02  0.51100000000E-03 0. -1.
        -11    1    3    3    0    0  0.72630881412E+00 -0.75013458463E+01  0.11467635266E+02  0.13722404048E+02  0.51100000000E-03 0.  1.
        -12    1    3    3    0    0 -0.19277838223E+02 -0.12075600531E+02  0.10537655353E+02  0.25069849522E+02  0.00000000000E+00 0.  1.
</event>
<event>
 7    1  0.5843820E-012  0.5052885E+02  0.7816164E-02  0.1300439E+00
        -11   -1    0    0    0    0  0.00000000000E+00  0.00000000000E+00  0.45593999997E+02  0.45594000000E+02  0.51100000000E-03 0. -1.
         11   -1    0    0    0    0 -0.00000000000E+00 -0.00000000000E+00 -0.45593999997E+02  0.45594000000E+02  0.51100000000E-03 0.  1.
    9900012    2    1    2    0    0  0.69247377972E+00 -0.19521535775E+02  0.35659450951E+02  0.50528851938E+02  0.29999975952E+02 0.  0.
        -12    1    1    2    0    0 -0.69247377972E+00  0.19521535775E+02 -0.35659450951E+02  0.40659148062E+02  0.00000000000E+00 0.  1.
         11    1    3    3    0    0 -0.62796719180E+00 -0.40703864444E+00  0.26179481665E+01  0.27228066614E+01  0.51100000000E-03 0. -1.
        -11    1    3    3    0    0 -0.89595830982E+01 -0.21200444027E+02  0.16894216411E+02  0.28550788162E+02  0.51100000000E-03 0.  1.
        -12    1    3    3    0    0  0.10280024070E+02  0.20859468970E+01  0.16147286374E+02  0.19255257115E+02  0.00000000000E+00 0.  1.
</event>
<event>
 7    1  0.5843820E-012  0.5052885E+02  0.7816164E-02  0.1300439E+00
        -11   -1    0    0    0    0  0.00000000000E+00  0.00000000000E+00  0.45593999997E+02  0.45594000000E+02  0.51100000000E-03 0. -1.
         11   -1    0    0    0    0 -0.00000000000E+00 -0.00000000000E+00 -0.45593999997E+02  0.45594000000E+02  0.51100000000E-03 0.  1.
    9900012    2    1    2    0    0 -0.10904942505E+02  0.46431051934E+01  0.38893315812E+02  0.50528853283E+02  0.29999980039E+02 0.  0.
        -12    1    1    2    0    0  0.10904942505E+02 -0.46431051934E+01 -0.38893315812E+02  0.40659146717E+02  0.00000000000E+00 0.  1.
         11    1    3    3    0    0  0.14950355223E+01 -0.37593794486E+01  0.40693233874E+01  0.57382452147E+01  0.51100000000E-03 0. -1.
        -11    1    3    3    0    0  0.43597081545E+01  0.41629474088E+01  0.13155572988E+00  0.60294687570E+01  0.51100000000E-03 0.  1.
         12    1    3    3    0    0 -0.16759686182E+02  0.42395372332E+01  0.34692436695E+02  0.38761139311E+02  0.00000000000E+00 0. -1.
</event>
<event>
 7    1  0.5843820E-012  0.5052886E+02  0.7816164E-02  0.1300439E+00
        -11   -1    0    0    0    0  0.00000000000E+00  0.00000000000E+00  0.45593999997E+02  0.45594000000E+02  0.51100000000E-03 0.  1.
         11   -1    0    0    0    0 -0.00000000000E+00 -0.00000000000E+00 -0.45593999997E+02  0.45594000000E+02  0.51100000000E-03 0. -1.
    9900012    2    1    2    0    0  0.35703713677E+02 -0.90890602892E+01  0.17198821874E+02  0.50528860054E+02  0.30000000621E+02 0.  0.
        -12    1    1    2    0    0 -0.35703713677E+02  0.90890602892E+01 -0.17198821874E+02  0.40659139946E+02  0.00000000000E+00 0.  1.
         11    1    3    3    0    0  0.97858966820E+01 -0.43813891836E+01  0.18035094043E+01  0.10872579799E+02  0.51100000000E-03 0. -1.
        -11    1    3    3    0    0  0.24597627815E+02  0.39916175604E+01  0.39670567542E+01  0.25233189343E+02  0.51100000000E-03 0.  1.
        -12    1    3    3    0    0  0.13201891803E+01 -0.86992886660E+01  0.11428255716E+02  0.14423090912E+02  0.00000000000E+00 0.  1.
</event>
<event>
 7    1  0.5843820E-012  0.5052886E+02  0.7816164E-02  0.1300439E+00
        -11   -1    0    0    0    0  0.00000000000E+00  0.00000000000E+00  0.45593999997E+02  0.45594000000E+02  0.51100000000E-03 0.  1.
         11   -1    0    0    0    0 -0.00000000000E+00 -0.00000000000E+00 -0.45593999997E+02  0.45594000000E+02  0.51100000000E-03 0. -1.
    9900012    2    1    2    0    0 -0.17219731952E+02 -0.32329389878E+02  0.17648146570E+02  0.50528859629E+02  0.29999999328E+02 0.  0.
        -12    1    1    2    0    0  0.17219731952E+02  0.32329389878E+02 -0.17648146570E+02  0.40659140371E+02  0.00000000000E+00 0.  1.
         11    1    3    3    0    0 -0.28513725788E+01 -0.95820954013E+01  0.12565724975E+02  0.16057531637E+02  0.51100000000E-03 0. -1.
        -11    1    3    3    0    0 -0.10688245073E+02 -0.36948022372E+01  0.92667777701E+01  0.14620646936E+02  0.51100000000E-03 0.  1.
         12    1    3    3    0    0 -0.36801142996E+01 -0.19052492239E+02 -0.41843561752E+01  0.19850681056E+02  0.00000000000E+00 0. -1.
</event>
<event>
 7    1  0.5843820E-012  0.5052886E+02  0.7816164E-02  0.1300439E+00
        -11   -1    0    0    0    0  0.00000000000E+00  0.00000000000E+00  0.45593999997E+02  0.45594000000E+02  0.51100000000E-03 0. -1.
         11   -1    0    0    0    0 -0.00000000000E+00 -0.00000000000E+00 -0.45593999997E+02  0.45594000000E+02  0.51100000000E-03 0.  1.
    9900012    2    1    2    0    0  0.35405421659E+02 -0.13714084819E+02  0.14544599825E+02  0.50528863396E+02  0.30000010780E+02 0.  0.
        -12    1    1    2    0    0 -0.35405421659E+02  0.13714084819E+02 -0.14544599825E+02  0.40659136604E+02  0.00000000000E+00 0.  1.
         11    1    3    3    0    0  0.17317987121E+02 -0.10156891316E+01  0.80310454214E+01  0.19116537164E+02  0.51100000000E-03 0. -1.
        -11    1    3    3    0    0  0.61081789392E+01  0.59686945993E+01  0.21550163865E+01  0.88079090062E+01  0.51100000000E-03 0.  1.
        -12    1    3    3    0    0  0.11979255599E+02 -0.18667090287E+02  0.43585380170E+01  0.22604417226E+02  0.00000000000E+00 0.  1.
</event>
<event>
 7    1  0.5843820E-012  0.5052885E+02  0.7816164E-02  0.1300439E+00
        -11   -1    0    0    0    0  0.00000000000E+00  0.00000000000E+00  0.45593999997E+02  0.45594000000E+02  0.51100000000E-03 0. -1.
         11   -1    0    0    0    0 -0.00000000000E+00 -0.00000000000E+00 -0.45593999997E+02  0.45594000000E+02  0.51100000000E-03 0.  1.
    9900012    2    1    2    0    0  0.86384563706E+01  0.14267540271E+02 -0.37080728701E+02  0.50528854966E+02  0.29999985155E+02 0.  0.
         12    1    1    2    0    0 -0.86384563706E+01 -0.14267540271E+02  0.37080728701E+02  0.40659145034E+02  0.00000000000E+00 0. -1.
         11    1    3    3    0    0 -0.21463631174E+01  0.75745312840E+01  0.11991011855E+01  0.79635571649E+01  0.51100000000E-03 0.  1.
        -11    1    3    3    0    0  0.22476453582E+01  0.10352866983E+01  0.44036902872E+00  0.25134942503E+01  0.51100000000E-03 0. -1.
        -12    1    3    3    0    0  0.85371741298E+01  0.56577222884E+01 -0.38720198916E+02  0.40051803551E+02  0.00000000000E+00 0.  1.
</event>
<event>
 7    1  0.5843820E-012  0.5052886E+02  0.7816164E-02  0.1300439E+00
        -11   -1    0    0    0    0  0.00000000000E+00  0.00000000000E+00  0.45593999997E+02  0.45594000000E+02  0.51100000000E-03 0.  1.
         11   -1    0    0    0    0 -0.00000000000E+00 -0.00000000000E+00 -0.45593999997E+02  0.45594000000E+02  0.51100000000E-03 0. -1.
    9900012    2    1    2    0    0  0.79854834835E+01 -0.38899257564E+02  0.87318438051E+01  0.50528864720E+02  0.30000014804E+02 0.  0.
        -12    1    1    2    0    0 -0.79854834835E+01  0.38899257564E+02 -0.87318438051E+01  0.40659135280E+02  0.00000000000E+00 0.  1.
         11    1    3    3    0    0  0.42646016261E+01 -0.54856130718E+01  0.11121884434E+02  0.13113927383E+02  0.51100000000E-03 0. -1.
        -11    1    3    3    0    0 -0.84025169704E+00 -0.25477868416E+01 -0.54396312498E+01  0.60652146788E+01  0.51100000000E-03 0.  1.
         12    1    3    3    0    0  0.45611335545E+01 -0.30865857650E+02  0.30495906213E+01  0.31349722658E+02  0.00000000000E+00 0. -1.
</event>
<event>
 7    1  0.5843820E-012  0.5052888E+02  0.7816164E-02  0.1300439E+00
        -11   -1    0    0    0    0  0.00000000000E+00  0.00000000000E+00  0.45593999997E+02  0.45594000000E+02  0.51100000000E-03 0. -1.
         11   -1    0    0    0    0 -0.00000000000E+00 -0.00000000000E+00 -0.45593999997E+02  0.45594000000E+02  0.51100000000E-03 0.  1.
    9900012    2    1    2    0    0 -0.28136494903E+02  0.28414680989E+02 -0.73557773968E+01  0.50528881684E+02  0.30000066368E+02 0.  0.
         12    1    1    2    0    0  0.28136494903E+02 -0.28414680989E+02  0.73557773968E+01  0.40659118316E+02  0.00000000000E+00 0. -1.
         11    1    3    3    0    0  0.41718153171E+00  0.46979391950E+01  0.42068238149E+00  0.47351501599E+01  0.51100000000E-03 0. -1.
        -11    1    3    3    0    0 -0.18366261549E+01 -0.41087358839E+01  0.33902863058E+01  0.56346204569E+01  0.51100000000E-03 0.  1.
        -12    1    3    3    0    0 -0.26717050279E+02  0.27825477678E+02 -0.11166746084E+02  0.40159111067E+02  0.00000000000E+00 0.  1.
</event>
<event>
 7    1  0.5843820E-012  0.5052887E+02  0.7816164E-02  0.1300439E+00
        -11   -1    0    0    0    0  0.00000000000E+00  0.00000000000E+00  0.45593999997E+02  0.45594000000E+02  0.51100000000E-03 0. -1.
         11   -1    0    0    0    0 -0.00000000000E+00 -0.00000000000E+00 -0.45593999997E+02  0.45594000000E+02  0.51100000000E-03 0.  1.
    9900012    2    1    2    0    0  0.64266038037E+01  0.51473470158E+01 -0.39816684205E+02  0.50528871151E+02  0.30000034349E+02 0.  0.
         12    1    1    2    0    0 -0.64266038037E+01 -0.51473470158E+01  0.39816684205E+02  0.40659128849E+02  0.00000000000E+00 0. -1.
         11    1    3    3    0    0  0.37685735193E+01  0.90084484389E+00  0.30216841414E+00  0.38865117799E+01  0.51100000000E-03 0. -1.
        -11    1    3    3    0    0  0.61846530842E+01  0.84626684786E+01 -0.39777260617E+02  0.41135108533E+02  0.51100000000E-03 0.  1.
         12    1    3    3    0    0 -0.35266227998E+01 -0.42161663067E+01 -0.34159200192E+00  0.55072508381E+01  0.00000000000E+00 0. -1.
</event>
<event>
 7    1  0.5843820E-012  0.5052885E+02  0.7816164E-02  0.1300439E+00
        -11   -1    0    0    0    0  0.00000000000E+00  0.00000000000E+00  0.45593999997E+02  0.45594000000E+02  0.51100000000E-03 0. -1.
         11   -1    0    0    0    0 -0.00000000000E+00 -0.00000000000E+00 -0.45593999997E+02  0.45594000000E+02  0.51100000000E-03 0.  1.
    9900012    2    1    2    0    0  0.17771126089E+02 -0.67683472843E+01 -0.35938040037E+02  0.50528853807E+02  0.29999981630E+02 0.  0.
         12    1    1    2    0    0 -0.17771126089E+02  0.67683472843E+01  0.35938040037E+02  0.40659146193E+02  0.00000000000E+00 0. -1.
         11    1    3    3    0    0  0.54124012258E+01  0.12154172822E+01 -0.17742854051E+00  0.55500276889E+01  0.51100000000E-03 0.  1.
        -11    1    3    3    0    0  0.15999387418E+02 -0.64216871177E+01 -0.12280124659E+02  0.21166481170E+02  0.51100000000E-03 0. -1.
         12    1    3    3    0    0 -0.36406625547E+01 -0.15620774488E+01 -0.23480486838E+02  0.23812344948E+02  0.00000000000E+00 0. -1.
</event>
<event>
 7    1  0.5843820E-012  0.5052886E+02  0.7816164E-02  0.1300439E+00
        -11   -1    0    0    0    0  0.00000000000E+00  0.00000000000E+00  0.45593999997E+02  0.45594000000E+02  0.51100000000E-03 0.  1.
         11   -1    0    0    0    0 -0.00000000000E+00 -0.00000000000E+00 -0.45593999997E+02  0.45594000000E+02  0.51100000000E-03 0. -1.
    9900012    2    1    2    0    0  0.22079531262E+02  0.13268653792E+02  0.31457958109E+02  0.50528855855E+02  0.29999987857E+02 0.  0.
        -12    1    1    2    0    0 -0.22079531262E+02 -0.13268653792E+02 -0.31457958109E+02  0.40659144145E+02  0.00000000000E+00 0.  1.
         11    1    3    3    0    0  0.49780085703E+01  0.39658121437E+01  0.45459038803E+01  0.78213475588E+01  0.51100000000E-03 0. -1.
        -11    1    3    3    0    0  0.10829899827E+02  0.52481307515E+01 -0.25601435041E+01  0.12303818174E+02  0.51100000000E-03 0.  1.
        -12    1    3    3    0    0  0.62716228654E+01  0.40547108967E+01  0.29472197733E+02  0.30403690122E+02  0.00000000000E+00 0.  1.
</event>
<event>
 7    1  0.5843820E-012  0.5052889E+02  0.7816164E-02  0.1300439E+00
        -11   -1    0    0    0    0  0.00000000000E+00  0.00000000000E+00  0.45593999997E+02  0.45594000000E+02  0.51100000000E-03 0.  1.
         11   -1    0    0    0    0 -0.00000000000E+00 -0.00000000000E+00 -0.45593999997E+02  0.45594000000E+02  0.51100000000E-03 0. -1.
    9900012    2    1    2    0    0 -0.34108588282E+02 -0.14529721168E+02 -0.16692943249E+02  0.50528893441E+02  0.30000102104E+02 0.  0.
         12    1    1    2    0    0  0.34108588282E+02  0.14529721168E+02  0.16692943249E+02  0.40659106559E+02  0.00000000000E+00 0. -1.
         11    1    3    3    0    0  0.17758967982E+00  0.70788413268E-01 -0.49792424802E+01  0.49829113008E+01  0.51100000000E-03 0. -1.
        -11    1    3    3    0    0 -0.99515353371E+01  0.62518417727E+01 -0.51633508458E+01  0.12836618454E+02  0.51100000000E-03 0.  1.
         12    1    3    3    0    0 -0.24334642625E+02 -0.20852351354E+02 -0.65503499233E+01  0.32709363687E+02  0.00000000000E+00 0. -1.
</event>
<event>
 7    1  0.5843820E-012  0.5052886E+02  0.7816164E-02  0.1300439E+00
        -11   -1    0    0    0    0  0.00000000000E+00  0.00000000000E+00  0.45593999997E+02  0.45594000000E+02  0.51100000000E-03 0.  1.
         11   -1    0    0    0    0 -0.00000000000E+00 -0.00000000000E+00 -0.45593999997E+02  0.45594000000E+02  0.51100000000E-03 0. -1.
    9900012    2    1    2    0    0  0.18536852686E+02 -0.33757915791E+02 -0.13036627812E+02  0.50528862641E+02  0.30000008485E+02 0.  0.
         12    1    1    2    0    0 -0.18536852686E+02  0.33757915791E+02  0.13036627812E+02  0.40659137359E+02  0.00000000000E+00 0. -1.
         11    1    3    3    0    0 -0.11503271345E+00 -0.15158966906E+02 -0.17962482450E+01  0.15265451785E+02  0.51100000000E-03 0.  1.
        -11    1    3    3    0    0 -0.77775856994E+00 -0.11860887660E+02 -0.12538824357E+00  0.11887021786E+02  0.51100000000E-03 0. -1.
        -12    1    3    3    0    0  0.19429643969E+02 -0.67380612252E+01 -0.11114991324E+02  0.23376389071E+02  0.00000000000E+00 0.  1.
</event>
<event>
 7    1  0.5843820E-012  0.5052887E+02  0.7816164E-02  0.1300439E+00
        -11   -1    0    0    0    0  0.00000000000E+00  0.00000000000E+00  0.45593999997E+02  0.45594000000E+02  0.51100000000E-03 0. -1.
         11   -1    0    0    0    0 -0.00000000000E+00 -0.00000000000E+00 -0.45593999997E+02  0.45594000000E+02  0.51100000000E-03 0.  1.
    9900012    2    1    2    0    0  0.22106305813E+02  0.16608021787E+02 -0.29810233187E+02  0.50528866376E+02  0.30000019836E+02 0.  0.
         12    1    1    2    0    0 -0.22106305813E+02 -0.16608021787E+02  0.29810233187E+02  0.40659133624E+02  0.00000000000E+00 0. -1.
         11    1    3    3    0    0  0.66840484288E+01 -0.16795917534E+00 -0.82878623749E+01  0.10648632621E+02  0.51100000000E-03 0. -1.
        -11    1    3    3    0    0  0.97063241387E+00  0.13468651331E+01 -0.18442279326E+02  0.18516852863E+02  0.51100000000E-03 0.  1.
         12    1    3    3    0    0  0.14451624971E+02  0.15429115829E+02 -0.30800914864E+01  0.21363380892E+02  0.00000000000E+00 0. -1.
</event>
<event>
 7    1  0.5843820E-012  0.5052885E+02  0.7816164E-02  0.1300439E+00
        -11   -1    0    0    0    0  0.00000000000E+00  0.00000000000E+00  0.45593999997E+02  0.45594000000E+02  0.51100000000E-03 0. -1.
         11   -1    0    0    0    0 -0.00000000000E+00 -0.00000000000E+00 -0.45593999997E+02  0.45594000000E+02  0.51100000000E-03 0.  1.
    9900012    2    1    2    0    0 -0.15607230890E+02 -0.30092909548E+02  0.22449889792E+02  0.50528850811E+02  0.29999972524E+02 0.  0.
        -12    1    1    2    0    0  0.15607230890E+02  0.30092909548E+02 -0.22449889792E+02  0.40659149189E+02  0.00000000000E+00 0.  1.
         11    1    3    3    0    0 -0.68937774992E+00 -0.43299573103E+01  0.17116854123E+01  0.47067652589E+01  0.51100000000E-03 0. -1.
        -11    1    3    3    0    0 -0.12688402263E+02 -0.71691699239E+01  0.22718021681E+02  0.26990758766E+02  0.51100000000E-03 0.  1.
        -12    1    3    3    0    0 -0.22294508769E+01 -0.18593782314E+02 -0.19798173018E+01  0.18831326786E+02  0.00000000000E+00 0.  1.
</event>
<event>
 7    1  0.5843820E-012  0.5052883E+02  0.7816164E-02  0.1300439E+00
        -11   -1    0    0    0    0  0.00000000000E+00  0.00000000000E+00  0.45593999997E+02  0.45594000000E+02  0.51100000000E-03 0. -1.
         11   -1    0    0    0    0 -0.00000000000E+00 -0.00000000000E+00 -0.45593999997E+02  0.45594000000E+02  0.51100000000E-03 0.  1.
    9900012    2    1    2    0    0  0.76487661307E+01  0.24633444566E+02  0.31430203608E+02  0.50528832358E+02  0.29999916437E+02 0.  0.
        -12    1    1    2    0    0 -0.76487661307E+01 -0.24633444566E+02 -0.31430203608E+02  0.40659167642E+02  0.00000000000E+00 0.  1.
         11    1    3    3    0    0  0.14004724799E+01  0.82537177078E+01  0.49357099473E+01  0.97183543932E+01  0.51100000000E-03 0. -1.
        -11    1    3    3    0    0 -0.96638555044E+01  0.99684849117E+01  0.12073938866E+02  0.18399478108E+02  0.51100000000E-03 0.  1.
         12    1    3    3    0    0  0.15912149155E+02  0.64112419460E+01  0.14420554794E+02  0.22410999857E+02  0.00000000000E+00 0. -1.
</event>
<event>
 7    1  0.5843820E-012  0.5052887E+02  0.7816164E-02  0.1300439E+00
        -11   -1    0    0    0    0  0.00000000000E+00  0.00000000000E+00  0.45593999997E+02  0.45594000000E+02  0.51100000000E-03 0.  1.
         11   -1    0    0    0    0 -0.00000000000E+00 -0.00000000000E+00 -0.45593999997E+02  0.45594000000E+02  0.51100000000E-03 0. -1.
    9900012    2    1    2    0    0  0.39560746025E+02 -0.60070396967E+01  0.72130097252E+01  0.50528872350E+02  0.30000037994E+02 0.  0.
        -12    1    1    2    0    0 -0.39560746025E+02  0.60070396967E+01 -0.72130097252E+01  0.40659127650E+02  0.00000000000E+00 0.  1.
         11    1    3    3    0    0  0.33682308853E+02 -0.76888635533E+01  0.68930770977E+01  0.35229690100E+02  0.51100000000E-03 0. -1.
        -11    1    3    3    0    0  0.75046716875E+01 -0.45655617718E+01 -0.46172123478E+00  0.87964560017E+01  0.51100000000E-03 0.  1.
        -12    1    3    3    0    0 -0.16262345157E+01  0.62473856284E+01  0.78165386230E+00  0.65027262475E+01  0.00000000000E+00 0.  1.
</event>
<event>
 7    1  0.5843820E-012  0.5052885E+02  0.7816164E-02  0.1300439E+00
        -11   -1    0    0    0    0  0.00000000000E+00  0.00000000000E+00  0.45593999997E+02  0.45594000000E+02  0.51100000000E-03 0.  1.
         11   -1    0    0    0    0 -0.00000000000E+00 -0.00000000000E+00 -0.45593999997E+02  0.45594000000E+02  0.51100000000E-03 0. -1.
    9900012    2    1    2    0    0 -0.68218680625E+01  0.38727792010E+02  0.10333761715E+02  0.50528851103E+02  0.29999973412E+02 0.  0.
         12    1    1    2    0    0  0.68218680625E+01 -0.38727792010E+02 -0.10333761715E+02  0.40659148897E+02  0.00000000000E+00 0. -1.
         11    1    3    3    0    0 -0.13079240402E+02  0.10991205589E+02 -0.15769470589E+01  0.17156919656E+02  0.51100000000E-03 0. -1.
        -11    1    3    3    0    0  0.56757164390E+01  0.14327382347E+02 -0.25052393234E-01  0.15410654428E+02  0.51100000000E-03 0.  1.
        -12    1    3    3    0    0  0.58165590055E+00  0.13409204074E+02  0.11935761168E+02  0.17961277019E+02  0.00000000000E+00 0.  1.
</event>
<event>
 7    1  0.5843820E-012  0.5052886E+02  0.7816164E-02  0.1300439E+00
        -11   -1    0    0    0    0  0.00000000000E+00  0.00000000000E+00  0.45593999997E+02  0.45594000000E+02  0.51100000000E-03 0. -1.
         11   -1    0    0    0    0 -0.00000000000E+00 -0.00000000000E+00 -0.45593999997E+02  0.45594000000E+02  0.51100000000E-03 0.  1.
    9900012    2    1    2    0    0 -0.16205003738E+02 -0.17750070895E+02 -0.32794793996E+02  0.50528859869E+02  0.30000000058E+02 0.  0.
         12    1    1    2    0    0  0.16205003738E+02  0.17750070895E+02  0.32794793996E+02  0.40659140131E+02  0.00000000000E+00 0. -1.
         11    1    3    3    0    0 -0.98846144894E+01 -0.19503197522E+02 -0.11220908548E+02  0.24576189821E+02  0.51100000000E-03 0. -1.
        -11    1    3    3    0    0  0.15717983258E+01 -0.23041570435E+01 -0.18425909873E+00  0.27952891326E+01  0.51100000000E-03 0.  1.
        -12    1    3    3    0    0 -0.78921875746E+01  0.40572836706E+01 -0.21389626350E+02  0.23157380916E+02  0.00000000000E+00 0.  1.
</event>
<event>
 7    1  0.5843820E-012  0.5052887E+02  0.7816164E-02  0.1300439E+00
        -11   -1    0    0    0    0  0.00000000000E+00  0.00000000000E+00  0.45593999997E+02  0.45594000000E+02  0.51100000000E-03 0.  1.
         11   -1    0    0    0    0 -0.00000000000E+00 -0.00000000000E+00 -0.45593999997E+02  0.45594000000E+02  0.51100000000E-03 0. -1.
    9900012    2    1    2    0    0 -0.40008258822E+02  0.26273409687E+01  0.67528609512E+01  0.50528870330E+02  0.30000031854E+02 0.  0.
        -12    1    1    2    0    0  0.40008258822E+02 -0.26273409687E+01 -0.67528609512E+01  0.40659129670E+02  0.00000000000E+00 0.  1.
         11    1    3    3    0    0 -0.10878879315E+02 -0.91998214767E+01  0.33713384708E+01  0.14640787332E+02  0.51100000000E-03 0. -1.
        -11    1    3    3    0    0 -0.45392785393E+01 -0.35327265988E+01 -0.25542716053E+01  0.62936087084E+01  0.51100000000E-03 0.  1.
        -12    1    3    3    0    0 -0.24590100967E+02  0.15359889044E+02  0.59357940857E+01  0.29594474289E+02  0.00000000000E+00 0.  1.
</event>
<event>
 7    1  0.5843820E-012  0.5052892E+02  0.7816164E-02  0.1300439E+00
        -11   -1    0    0    0    0  0.00000000000E+00  0.00000000000E+00  0.45593999997E+02  0.45594000000E+02  0.51100000000E-03 0. -1.
         11   -1    0    0    0    0 -0.00000000000E+00 -0.00000000000E+00 -0.45593999997E+02  0.45594000000E+02  0.51100000000E-03 0.  1.
    9900012    2    1    2    0    0 -0.21084887219E+01 -0.14149985799E+02  0.38059076622E+02  0.50528915700E+02  0.30000169760E+02 0.  0.
        -12    1    1    2    0    0  0.21084887219E+01  0.14149985799E+02 -0.38059076622E+02  0.40659084300E+02  0.00000000000E+00 0.  1.
         11    1    3    3    0    0  0.33052725130E+00 -0.41932265801E+01  0.12331445816E+02  0.13029081072E+02  0.51100000000E-03 0. -1.
        -11    1    3    3    0    0 -0.89418545527E+01 -0.15435920079E+02  0.21698898083E+02  0.28090328760E+02  0.51100000000E-03 0.  1.
         12    1    3    3    0    0  0.65028385794E+01  0.54791608601E+01  0.40287327227E+01  0.94095058676E+01  0.00000000000E+00 0. -1.
</event>
<event>
 7    1  0.5843820E-012  0.5052887E+02  0.7816164E-02  0.1300439E+00
        -11   -1    0    0    0    0  0.00000000000E+00  0.00000000000E+00  0.45593999997E+02  0.45594000000E+02  0.51100000000E-03 0. -1.
         11   -1    0    0    0    0 -0.00000000000E+00 -0.00000000000E+00 -0.45593999997E+02  0.45594000000E+02  0.51100000000E-03 0.  1.
    9900012    2    1    2    0    0 -0.25090541602E+02 -0.10477584450E+02  0.30229952778E+02  0.50528866970E+02  0.30000021642E+02 0.  0.
        -12    1    1    2    0    0  0.25090541602E+02  0.10477584450E+02 -0.30229952778E+02  0.40659133030E+02  0.00000000000E+00 0.  1.
         11    1    3    3    0    0 -0.50823177000E+01  0.69471244391E+01  0.12911576190E+02  0.15517773396E+02  0.51100000000E-03 0. -1.
        -11    1    3    3    0    0  0.61323151405E+00  0.14996782923E+01 -0.65566912740E+00  0.17478530075E+01  0.51100000000E-03 0.  1.
         12    1    3    3    0    0 -0.20621455416E+02 -0.18924387181E+02  0.17974045715E+02  0.33263240567E+02  0.00000000000E+00 0. -1.
</event>
<event>
 7    1  0.5843820E-012  0.5052888E+02  0.7816164E-02  0.1300439E+00
        -11   -1    0    0    0    0  0.00000000000E+00  0.00000000000E+00  0.45593999997E+02  0.45594000000E+02  0.51100000000E-03 0. -1.
         11   -1    0    0    0    0 -0.00000000000E+00 -0.00000000000E+00 -0.45593999997E+02  0.45594000000E+02  0.51100000000E-03 0.  1.
    9900012    2    1    2    0    0  0.82391628557E+01 -0.23795957404E+02 -0.31922295014E+02  0.50528876641E+02  0.30000051039E+02 0.  0.
         12    1    1    2    0    0 -0.82391628557E+01  0.23795957404E+02  0.31922295014E+02  0.40659123359E+02  0.00000000000E+00 0. -1.
         11    1    3    3    0    0  0.10925170588E+02 -0.13300550115E+02 -0.96530786652E+01  0.19734384047E+02  0.51100000000E-03 0. -1.
        -11    1    3    3    0    0  0.24637347064E+01 -0.14322050491E+02 -0.12856150628E+02  0.19402879379E+02  0.51100000000E-03 0.  1.
         12    1    3    3    0    0 -0.51497424389E+01  0.38266432021E+01 -0.94130657208E+01  0.11391613215E+02  0.00000000000E+00 0. -1.
</event>
<event>
 7    1  0.5843820E-012  0.5052884E+02  0.7816164E-02  0.1300439E+00
        -11   -1    0    0    0    0  0.00000000000E+00  0.00000000000E+00  0.45593999997E+02  0.45594000000E+02  0.51100000000E-03 0. -1.
         11   -1    0    0    0    0 -0.00000000000E+00 -0.00000000000E+00 -0.45593999997E+02  0.45594000000E+02  0.51100000000E-03 0.  1.
    9900012    2    1    2    0    0 -0.11746862918E+02  0.12254992551E+02 -0.36945817504E+02  0.50528842828E+02  0.29999948261E+02 0.  0.
         12    1    1    2    0    0  0.11746862918E+02 -0.12254992551E+02  0.36945817504E+02  0.40659157172E+02  0.00000000000E+00 0. -1.
         11    1    3    3    0    0 -0.48875621785E+00  0.93201005252E+00  0.42047364941E+00  0.11332800755E+01  0.51100000000E-03 0. -1.
        -11    1    3    3    0    0 -0.35758919283E+01  0.17500221686E+02 -0.34944197857E+02  0.39244639459E+02  0.51100000000E-03 0.  1.
        -12    1    3    3    0    0 -0.76822147721E+01 -0.61772391872E+01 -0.24220932963E+01  0.10150923294E+02  0.00000000000E+00 0.  1.
</event>
<event>
 7    1  0.5843820E-012  0.5052885E+02  0.7816164E-02  0.1300439E+00
        -11   -1    0    0    0    0  0.00000000000E+00  0.00000000000E+00  0.45593999997E+02  0.45594000000E+02  0.51100000000E-03 0. -1.
         11   -1    0    0    0    0 -0.00000000000E+00 -0.00000000000E+00 -0.45593999997E+02  0.45594000000E+02  0.51100000000E-03 0.  1.
    9900012    2    1    2    0    0 -0.48703266184E+01  0.10647733968E+02 -0.38936772821E+02  0.50528848536E+02  0.29999965611E+02 0.  0.
         12    1    1    2    0    0  0.48703266184E+01 -0.10647733968E+02  0.38936772821E+02  0.40659151464E+02  0.00000000000E+00 0. -1.
         11    1    3    3    0    0  0.52233716176E+01  0.34507371916E+01 -0.10988761129E+02  0.12646899606E+02  0.51100000000E-03 0. -1.
        -11    1    3    3    0    0 -0.86258462204E+01  0.14643955918E+02 -0.23760478131E+02  0.29213198887E+02  0.51100000000E-03 0.  1.
         12    1    3    3    0    0 -0.14678520156E+01 -0.74469591415E+01 -0.41875335605E+01  0.86687500434E+01  0.00000000000E+00 0. -1.
</event>
<event>
 7    1  0.5843820E-012  0.5052885E+02  0.7816164E-02  0.1300439E+00
        -11   -1    0    0    0    0  0.00000000000E+00  0.00000000000E+00  0.45593999997E+02  0.45594000000E+02  0.51100000000E-03 0. -1.
         11   -1    0    0    0    0 -0.00000000000E+00 -0.00000000000E+00 -0.45593999997E+02  0.45594000000E+02  0.51100000000E-03 0.  1.
    9900012    2    1    2    0    0 -0.15922544670E+02 -0.11348992154E-01  0.37411744490E+02  0.50528853632E+02  0.29999981100E+02 0.  0.
        -12    1    1    2    0    0  0.15922544670E+02  0.11348992154E-01 -0.37411744490E+02  0.40659146368E+02  0.00000000000E+00 0.  1.
         11    1    3    3    0    0 -0.62525501874E+01  0.11524779548E+02  0.23016678424E+02  0.26489288654E+02  0.51100000000E-03 0. -1.
        -11    1    3    3    0    0 -0.52953806356E+01  0.11459843361E+00  0.40022832517E+00  0.53117202346E+01  0.51100000000E-03 0.  1.
        -12    1    3    3    0    0 -0.43746138469E+01 -0.11650726974E+02  0.13994837741E+02  0.18727844743E+02  0.00000000000E+00 0.  1.
</event>
<event>
 7    1  0.5843820E-012  0.5052887E+02  0.7816164E-02  0.1300439E+00
        -11   -1    0    0    0    0  0.00000000000E+00  0.00000000000E+00  0.45593999997E+02  0.45594000000E+02  0.51100000000E-03 0. -1.
         11   -1    0    0    0    0 -0.00000000000E+00 -0.00000000000E+00 -0.45593999997E+02  0.45594000000E+02  0.51100000000E-03 0.  1.
    9900012    2    1    2    0    0  0.13783523670E+01  0.31117345282E+02 -0.26133808225E+02  0.50528868615E+02  0.30000026642E+02 0.  0.
         12    1    1    2    0    0 -0.13783523670E+01 -0.31117345282E+02  0.26133808225E+02  0.40659131385E+02  0.00000000000E+00 0. -1.
         11    1    3    3    0    0 -0.19044557716E+01  0.43528995436E+01 -0.52876157645E+00  0.47806145304E+01  0.51100000000E-03 0. -1.
        -11    1    3    3    0    0  0.50299514494E-01  0.14030587556E+02  0.29306763112E+01  0.14333484611E+02  0.51100000000E-03 0.  1.
        -12    1    3    3    0    0  0.32325086241E+01  0.12733858183E+02 -0.28535722960E+02  0.31414769473E+02  0.00000000000E+00 0.  1.
</event>
<event>
 7    1  0.5843820E-012  0.5052885E+02  0.7816164E-02  0.1300439E+00
        -11   -1    0    0    0    0  0.00000000000E+00  0.00000000000E+00  0.45593999997E+02  0.45594000000E+02  0.51100000000E-03 0. -1.
         11   -1    0    0    0    0 -0.00000000000E+00 -0.00000000000E+00 -0.45593999997E+02  0.45594000000E+02  0.51100000000E-03 0.  1.
    9900012    2    1    2    0    0 -0.30745238439E+01  0.32661249564E+02 -0.24019918752E+02  0.50528850762E+02  0.29999972375E+02 0.  0.
         12    1    1    2    0    0  0.30745238439E+01 -0.32661249564E+02  0.24019918752E+02  0.40659149238E+02  0.00000000000E+00 0. -1.
         11    1    3    3    0    0  0.71905351107E+01  0.68657907621E+01 -0.39999069343E+00  0.99500186323E+01  0.51100000000E-03 0.  1.
        -11    1    3    3    0    0  0.44664612268E+01  0.34206847379E+01 -0.14597634037E+01  0.58121656396E+01  0.51100000000E-03 0. -1.
         12    1    3    3    0    0 -0.14731520181E+02  0.22374774064E+02 -0.22160164655E+02  0.34766666490E+02  0.00000000000E+00 0. -1.
</event>
<event>
 7    1  0.5843820E-012  0.5052885E+02  0.7816164E-02  0.1300439E+00
        -11   -1    0    0    0    0  0.00000000000E+00  0.00000000000E+00  0.45593999997E+02  0.45594000000E+02  0.51100000000E-03 0. -1.
         11   -1    0    0    0    0 -0.00000000000E+00 -0.00000000000E+00 -0.45593999997E+02  0.45594000000E+02  0.51100000000E-03 0.  1.
    9900012    2    1    2    0    0 -0.29300824024E+02  0.19617194050E+02  0.20243356992E+02  0.50528854741E+02  0.29999984470E+02 0.  0.
        -12    1    1    2    0    0  0.29300824024E+02 -0.19617194050E+02 -0.20243356992E+02  0.40659145259E+02  0.00000000000E+00 0.  1.
         11    1    3    3    0    0 -0.27436400257E+02  0.94530279032E+01  0.10135391292E+02  0.30738281548E+02  0.51100000000E-03 0. -1.
        -11    1    3    3    0    0 -0.41937781375E+01 -0.19823168273E+01  0.24876200557E+01  0.52636117707E+01  0.51100000000E-03 0.  1.
         12    1    3    3    0    0  0.23293543705E+01  0.12146482975E+02  0.76203456437E+01  0.14526961422E+02  0.00000000000E+00 0. -1.
</event>
<event>
 7    1  0.5843820E-012  0.5052886E+02  0.7816164E-02  0.1300439E+00
        -11   -1    0    0    0    0  0.00000000000E+00  0.00000000000E+00  0.45593999997E+02  0.45594000000E+02  0.51100000000E-03 0. -1.
         11   -1    0    0    0    0 -0.00000000000E+00 -0.00000000000E+00 -0.45593999997E+02  0.45594000000E+02  0.51100000000E-03 0.  1.
    9900012    2    1    2    0    0  0.16455398685E+02 -0.20952903790E+01  0.37121354227E+02  0.50528864160E+02  0.30000013099E+02 0.  0.
        -12    1    1    2    0    0 -0.16455398685E+02  0.20952903790E+01 -0.37121354227E+02  0.40659135840E+02  0.00000000000E+00 0.  1.
         11    1    3    3    0    0  0.52784172360E+01  0.74658513375E+00  0.49492021743E+01  0.72741790123E+01  0.51100000000E-03 0. -1.
        -11    1    3    3    0    0  0.12887606947E+02 -0.71969908357E+01  0.48538362508E+01  0.15538559023E+02  0.51100000000E-03 0.  1.
        -12    1    3    3    0    0 -0.17106254979E+01  0.43551153230E+01  0.27318315802E+02  0.27716126124E+02  0.00000000000E+00 0.  1.
</event>
<event>
 7    1  0.5843820E-012  0.5052888E+02  0.7816164E-02  0.1300439E+00
        -11   -1    0    0    0    0  0.00000000000E+00  0.00000000000E+00  0.45593999997E+02  0.45594000000E+02  0.51100000000E-03 0. -1.
         11   -1    0    0    0    0 -0.00000000000E+00 -0.00000000000E+00 -0.45593999997E+02  0.45594000000E+02  0.51100000000E-03 0.  1.
    9900012    2    1    2    0    0 -0.21560215993E+02  0.28254839507E+02  0.19748050794E+02  0.50528875816E+02  0.30000048531E+02 0.  0.
        -12    1    1    2    0    0  0.21560215993E+02 -0.28254839507E+02 -0.19748050794E+02  0.40659124184E+02  0.00000000000E+00 0.  1.
         11    1    3    3    0    0 -0.64511808350E+01  0.18550055696E+02  0.63718482406E+01  0.20647584623E+02  0.51100000000E-03 0. -1.
        -11    1    3    3    0    0  0.24710983428E+01  0.60801562033E+01 -0.13056394365E+01  0.66917352813E+01  0.51100000000E-03 0.  1.
        -12    1    3    3    0    0 -0.17580133501E+02  0.36246276076E+01  0.14681841990E+02  0.23189555913E+02  0.00000000000E+00 0.  1.
</event>
<event>
 7    1  0.5843820E-012  0.5052892E+02  0.7816164E-02  0.1300439E+00
        -11   -1    0    0    0    0  0.00000000000E+00  0.00000000000E+00  0.45593999997E+02  0.45594000000E+02  0.51100000000E-03 0.  1.
         11   -1    0    0    0    0 -0.00000000000E+00 -0.00000000000E+00 -0.45593999997E+02  0.45594000000E+02  0.51100000000E-03 0. -1.
    9900012    2    1    2    0    0  0.15001439860E+02  0.30990634295E+02 -0.21626326256E+02  0.50528922302E+02  0.30000189830E+02 0.  0.
         12    1    1    2    0    0 -0.15001439860E+02 -0.30990634295E+02  0.21626326256E+02  0.40659077698E+02  0.00000000000E+00 0. -1.
         11    1    3    3    0    0  0.77031405867E+01  0.69213614162E+01  0.13708024002E+01  0.10446181993E+02  0.51100000000E-03 0. -1.
        -11    1    3    3    0    0  0.22514056944E+01  0.25280324264E+02 -0.12323333802E+02  0.28213971340E+02  0.51100000000E-03 0.  1.
         12    1    3    3    0    0  0.50468935793E+01 -0.12110513857E+01 -0.10673794854E+02  0.11868768969E+02  0.00000000000E+00 0. -1.
</event>
<event>
 7    1  0.5843820E-012  0.5052886E+02  0.7816164E-02  0.1300439E+00
        -11   -1    0    0    0    0  0.00000000000E+00  0.00000000000E+00  0.45593999997E+02  0.45594000000E+02  0.51100000000E-03 0. -1.
         11   -1    0    0    0    0 -0.00000000000E+00 -0.00000000000E+00 -0.45593999997E+02  0.45594000000E+02  0.51100000000E-03 0.  1.
    9900012    2    1    2    0    0  0.10791419902E+02  0.18226674043E+02  0.34705893923E+02  0.50528862488E+02  0.30000008020E+02 0.  0.
        -12    1    1    2    0    0 -0.10791419902E+02 -0.18226674043E+02 -0.34705893923E+02  0.40659137512E+02  0.00000000000E+00 0.  1.
         11    1    3    3    0    0 -0.14627612222E+00  0.39878916299E+01  0.54984468119E+01  0.67939380303E+01  0.51100000000E-03 0. -1.
        -11    1    3    3    0    0 -0.57156265388E+00  0.82568312502E+01 -0.31645674274E+01  0.88609499167E+01  0.51100000000E-03 0.  1.
         12    1    3    3    0    0  0.11509258678E+02  0.59819511634E+01  0.32372014539E+02  0.34873974541E+02  0.00000000000E+00 0. -1.
</event>
<event>
 7    1  0.5843820E-012  0.5052885E+02  0.7816164E-02  0.1300439E+00
        -11   -1    0    0    0    0  0.00000000000E+00  0.00000000000E+00  0.45593999997E+02  0.45594000000E+02  0.51100000000E-03 0. -1.
         11   -1    0    0    0    0 -0.00000000000E+00 -0.00000000000E+00 -0.45593999997E+02  0.45594000000E+02  0.51100000000E-03 0.  1.
    9900012    2    1    2    0    0 -0.63042555161E+01 -0.14045952006E+02 -0.37631551911E+02  0.50528854601E+02  0.29999984044E+02 0.  0.
         12    1    1    2    0    0  0.63042555161E+01  0.14045952006E+02  0.37631551911E+02  0.40659145399E+02  0.00000000000E+00 0. -1.
         11    1    3    3    0    0  0.14213974448E+01  0.70650539583E+00  0.15191364873E+01  0.21971109436E+01  0.51100000000E-03 0. -1.
        -11    1    3    3    0    0 -0.86857516451E+01  0.16997383347E+01 -0.25302485750E+02  0.26805730310E+02  0.51100000000E-03 0.  1.
        -12    1    3    3    0    0  0.96009868410E+00 -0.16452195737E+02 -0.13848202648E+02  0.21526013347E+02  0.00000000000E+00 0.  1.
</event>
<event>
 7    1  0.5843820E-012  0.5052883E+02  0.7816164E-02  0.1300439E+00
        -11   -1    0    0    0    0  0.00000000000E+00  0.00000000000E+00  0.45593999997E+02  0.45594000000E+02  0.51100000000E-03 0. -1.
         11   -1    0    0    0    0 -0.00000000000E+00 -0.00000000000E+00 -0.45593999997E+02  0.45594000000E+02  0.51100000000E-03 0.  1.
    9900012    2    1    2    0    0  0.13643196430E+02 -0.24283758895E+02 -0.29619759513E+02  0.50528832418E+02  0.29999916617E+02 0.  0.
         12    1    1    2    0    0 -0.13643196430E+02  0.24283758895E+02  0.29619759513E+02  0.40659167582E+02  0.00000000000E+00 0. -1.
         11    1    3    3    0    0  0.92568525770E+01  0.13548988073E+01 -0.44417575334E+01  0.10356364259E+02  0.51100000000E-03 0. -1.
        -11    1    3    3    0    0  0.10972465660E+02 -0.12874932826E+02 -0.12827070769E+02  0.21229522903E+02  0.51100000000E-03 0.  1.
        -12    1    3    3    0    0 -0.65861218075E+01 -0.12763724877E+02 -0.12350931210E+02  0.18942945256E+02  0.00000000000E+00 0.  1.
</event>
<event>
 7    1  0.5843820E-012  0.5052891E+02  0.7816164E-02  0.1300439E+00
        -11   -1    0    0    0    0  0.00000000000E+00  0.00000000000E+00  0.45593999997E+02  0.45594000000E+02  0.51100000000E-03 0. -1.
         11   -1    0    0    0    0 -0.00000000000E+00 -0.00000000000E+00 -0.45593999997E+02  0.45594000000E+02  0.51100000000E-03 0.  1.
    9900012    2    1    2    0    0 -0.91663557704E+01  0.15627409028E+02  0.36399497597E+02  0.50528912254E+02  0.30000159287E+02 0.  0.
        -12    1    1    2    0    0  0.91663557704E+01 -0.15627409028E+02 -0.36399497597E+02  0.40659087746E+02  0.00000000000E+00 0.  1.
         11    1    3    3    0    0 -0.30152201805E+00  0.16184197092E+02  0.12382896652E+02  0.20380266946E+02  0.51100000000E-03 0. -1.
        -11    1    3    3    0    0 -0.85654561382E+00  0.58030544958E+01  0.26011706695E+01  0.64167905516E+01  0.51100000000E-03 0.  1.
        -12    1    3    3    0    0 -0.80082881386E+01 -0.63598425600E+01  0.21415430276E+02  0.23731854757E+02  0.00000000000E+00 0.  1.
</event>
<event>
 7    1  0.5843820E-012  0.5052883E+02  0.7816164E-02  0.1300439E+00
        -11   -1    0    0    0    0  0.00000000000E+00  0.00000000000E+00  0.45593999997E+02  0.45594000000E+02  0.51100000000E-03 0. -1.
         11   -1    0    0    0    0 -0.00000000000E+00 -0.00000000000E+00 -0.45593999997E+02  0.45594000000E+02  0.51100000000E-03 0.  1.
    9900012    2    1    2    0    0  0.28129855043E+01  0.10202477290E+02  0.39257669843E+02  0.50528830409E+02  0.29999910511E+02 0.  0.
        -12    1    1    2    0    0 -0.28129855043E+01 -0.10202477290E+02 -0.39257669843E+02  0.40659169591E+02  0.00000000000E+00 0.  1.
         11    1    3    3    0    0  0.77746352872E+00 -0.64121209547E+00  0.11911315606E+02  0.11953871432E+02  0.51100000000E-03 0. -1.
        -11    1    3    3    0    0  0.72371213316E+01 -0.17027531216E+01  0.23218173031E+02  0.24379476051E+02  0.51100000000E-03 0.  1.
        -12    1    3    3    0    0 -0.52015993560E+01  0.12546442507E+02  0.41281812066E+01  0.14195482926E+02  0.00000000000E+00 0.  1.
</event>
<event>
 7    1  0.5843820E-012  0.5052886E+02  0.7816164E-02  0.1300439E+00
        -11   -1    0    0    0    0  0.00000000000E+00  0.00000000000E+00  0.45593999997E+02  0.45594000000E+02  0.51100000000E-03 0. -1.
         11   -1    0    0    0    0 -0.00000000000E+00 -0.00000000000E+00 -0.45593999997E+02  0.45594000000E+02  0.51100000000E-03 0.  1.
    9900012    2    1    2    0    0 -0.17163908236E+02  0.13884647649E+02  0.34143552181E+02  0.50528863981E+02  0.30000012556E+02 0.  0.
        -12    1    1    2    0    0  0.17163908236E+02 -0.13884647649E+02 -0.34143552181E+02  0.40659136019E+02  0.00000000000E+00 0.  1.
         11    1    3    3    0    0 -0.55119481262E+01 -0.34013152758E+01  0.42283313347E+00  0.64907091963E+01  0.51100000000E-03 0.  1.
        -11    1    3    3    0    0 -0.10697845067E+02 -0.28698529141E+00  0.11881374041E+02  0.15990412721E+02  0.51100000000E-03 0. -1.
        -12    1    3    3    0    0 -0.95411504297E+00  0.17572948216E+02  0.21839345007E+02  0.28047742063E+02  0.00000000000E+00 0.  1.
</event>
<event>
 7    1  0.5843820E-012  0.5052886E+02  0.7816164E-02  0.1300439E+00
        -11   -1    0    0    0    0  0.00000000000E+00  0.00000000000E+00  0.45593999997E+02  0.45594000000E+02  0.51100000000E-03 0. -1.
         11   -1    0    0    0    0 -0.00000000000E+00 -0.00000000000E+00 -0.45593999997E+02  0.45594000000E+02  0.51100000000E-03 0.  1.
    9900012    2    1    2    0    0 -0.26552775069E+02 -0.25276032083E+02 -0.17585165171E+02  0.50528859628E+02  0.29999999324E+02 0.  0.
         12    1    1    2    0    0  0.26552775069E+02  0.25276032083E+02  0.17585165171E+02  0.40659140372E+02  0.00000000000E+00 0. -1.
         11    1    3    3    0    0 -0.49563083384E+01 -0.27264934852E-01 -0.64527186366E+00  0.49982108560E+01  0.51100000000E-03 0. -1.
        -11    1    3    3    0    0 -0.24277546631E+02 -0.97174917626E+01 -0.76969755252E+01  0.27259353424E+02  0.51100000000E-03 0.  1.
         12    1    3    3    0    0  0.26810799009E+01 -0.15531275386E+02 -0.92429177822E+01  0.18271295348E+02  0.00000000000E+00 0. -1.
</event>
<event>
 7    1  0.5843820E-012  0.5052886E+02  0.7816164E-02  0.1300439E+00
        -11   -1    0    0    0    0  0.00000000000E+00  0.00000000000E+00  0.45593999997E+02  0.45594000000E+02  0.51100000000E-03 0. -1.
         11   -1    0    0    0    0 -0.00000000000E+00 -0.00000000000E+00 -0.45593999997E+02  0.45594000000E+02  0.51100000000E-03 0.  1.
    9900012    2    1    2    0    0 -0.20495830244E+02  0.72165447001E+01 -0.34365796124E+02  0.50528861814E+02  0.30000005971E+02 0.  0.
         12    1    1    2    0    0  0.20495830244E+02 -0.72165447001E+01  0.34365796124E+02  0.40659138186E+02  0.00000000000E+00 0. -1.
         11    1    3    3    0    0 -0.16421820821E+01  0.83572575518E+01 -0.18990650657E+02  0.20813104728E+02  0.51100000000E-03 0. -1.
        -11    1    3    3    0    0  0.31472008138E+00 -0.48984291686E+01 -0.84100778281E-01  0.49092494591E+01  0.51100000000E-03 0.  1.
        -12    1    3    3    0    0 -0.19168368243E+02  0.37577163170E+01 -0.15291044688E+02  0.24806507627E+02  0.00000000000E+00 0.  1.
</event>
<event>
 7    1  0.5843820E-012  0.5052886E+02  0.7816164E-02  0.1300439E+00
        -11   -1    0    0    0    0  0.00000000000E+00  0.00000000000E+00  0.45593999997E+02  0.45594000000E+02  0.51100000000E-03 0. -1.
         11   -1    0    0    0    0 -0.00000000000E+00 -0.00000000000E+00 -0.45593999997E+02  0.45594000000E+02  0.51100000000E-03 0.  1.
    9900012    2    1    2    0    0  0.37339947768E+02 -0.88947117991E+01 -0.13408135769E+02  0.50528859550E+02  0.29999999088E+02 0.  0.
         12    1    1    2    0    0 -0.37339947768E+02  0.88947117991E+01  0.13408135769E+02  0.40659140450E+02  0.00000000000E+00 0. -1.
         11    1    3    3    0    0  0.41720538844E+01  0.63748360174E+01  0.20026512383E+01  0.78775110350E+01  0.51100000000E-03 0. -1.
        -11    1    3    3    0    0  0.79241463031E+01 -0.44269351374E+01 -0.11881323297E+02  0.14951778920E+02  0.51100000000E-03 0.  1.
        -12    1    3    3    0    0  0.25243747581E+02 -0.10842612679E+02 -0.35294637106E+01  0.27699569595E+02  0.00000000000E+00 0.  1.
</event>
<event>
 7    1  0.5843820E-012  0.5052881E+02  0.7816164E-02  0.1300439E+00
        -11   -1    0    0    0    0  0.00000000000E+00  0.00000000000E+00  0.45593999997E+02  0.45594000000E+02  0.51100000000E-03 0.  1.
         11   -1    0    0    0    0 -0.00000000000E+00 -0.00000000000E+00 -0.45593999997E+02  0.45594000000E+02  0.51100000000E-03 0. -1.
    9900012    2    1    2    0    0 -0.26909352440E+02  0.30388181774E+02  0.23695026390E+01  0.50528814285E+02  0.29999861499E+02 0.  0.
        -12    1    1    2    0    0  0.26909352440E+02 -0.30388181774E+02 -0.23695026390E+01  0.40659185715E+02  0.00000000000E+00 0.  1.
         11    1    3    3    0    0 -0.14204562814E+02  0.11802243915E+02  0.84458104872E+01  0.20307493229E+02  0.51100000000E-03 0. -1.
        -11    1    3    3    0    0 -0.16406227440E+02  0.88811895354E+01 -0.10577700237E+01  0.18685788827E+02  0.51100000000E-03 0.  1.
        -12    1    3    3    0    0  0.37014378144E+01  0.97047483236E+01 -0.50185378245E+01  0.11535532229E+02  0.00000000000E+00 0.  1.
</event>
<event>
 7    1  0.5843820E-012  0.5052887E+02  0.7816164E-02  0.1300439E+00
        -11   -1    0    0    0    0  0.00000000000E+00  0.00000000000E+00  0.45593999997E+02  0.45594000000E+02  0.51100000000E-03 0. -1.
         11   -1    0    0    0    0 -0.00000000000E+00 -0.00000000000E+00 -0.45593999997E+02  0.45594000000E+02  0.51100000000E-03 0.  1.
    9900012    2    1    2    0    0 -0.27496852597E+02  0.18356908651E+02 -0.23666684132E+02  0.50528868974E+02  0.30000027733E+02 0.  0.
         12    1    1    2    0    0  0.27496852597E+02 -0.18356908651E+02  0.23666684132E+02  0.40659131026E+02  0.00000000000E+00 0. -1.
         11    1    3    3    0    0 -0.27273977214E+01  0.12685830951E+00 -0.78548984069E+01  0.83159016713E+01  0.51100000000E-03 0. -1.
        -11    1    3    3    0    0 -0.11395820623E+02  0.13928546545E+00 -0.16085905991E+02  0.19713967128E+02  0.51100000000E-03 0.  1.
         12    1    3    3    0    0 -0.13373634253E+02  0.18090764876E+02  0.27412026545E+00  0.22499000175E+02  0.00000000000E+00 0. -1.
</event>
<event>
 7    1  0.5843820E-012  0.5052886E+02  0.7816164E-02  0.1300439E+00
        -11   -1    0    0    0    0  0.00000000000E+00  0.00000000000E+00  0.45593999997E+02  0.45594000000E+02  0.51100000000E-03 0. -1.
         11   -1    0    0    0    0 -0.00000000000E+00 -0.00000000000E+00 -0.45593999997E+02  0.45594000000E+02  0.51100000000E-03 0.  1.
    9900012    2    1    2    0    0  0.73820942872E+01 -0.29501234558E+02 -0.26987916172E+02  0.50528858644E+02  0.29999996335E+02 0.  0.
         12    1    1    2    0    0 -0.73820942872E+01  0.29501234558E+02  0.26987916172E+02  0.40659141356E+02  0.00000000000E+00 0. -1.
         11    1    3    3    0    0  0.28229660145E+00  0.19446680018E+01  0.31020368017E+01  0.36720644859E+01  0.51100000000E-03 0. -1.
        -11    1    3    3    0    0  0.11483225151E+01  0.41555535981E+00  0.12663332762E+01  0.17592416216E+01  0.51100000000E-03 0.  1.
        -12    1    3    3    0    0  0.59514751707E+01 -0.31861457919E+02 -0.31356286250E+02  0.45097552537E+02  0.00000000000E+00 0.  1.
</event>
<event>
 7    1  0.5843820E-012  0.5052885E+02  0.7816164E-02  0.1300439E+00
        -11   -1    0    0    0    0  0.00000000000E+00  0.00000000000E+00  0.45593999997E+02  0.45594000000E+02  0.51100000000E-03 0. -1.
         11   -1    0    0    0    0 -0.00000000000E+00 -0.00000000000E+00 -0.45593999997E+02  0.45594000000E+02  0.51100000000E-03 0.  1.
    9900012    2    1    2    0    0  0.17952433481E+02 -0.28902734803E+02 -0.22260012939E+02  0.50528854374E+02  0.29999983354E+02 0.  0.
         12    1    1    2    0    0 -0.17952433481E+02  0.28902734803E+02  0.22260012939E+02  0.40659145626E+02  0.00000000000E+00 0. -1.
         11    1    3    3    0    0 -0.49416793967E+01 -0.36122517787E+01 -0.29631548899E+01  0.68006503612E+01  0.51100000000E-03 0. -1.
        -11    1    3    3    0    0  0.20713728575E+02 -0.25389126323E+02 -0.22574474173E+02  0.39790365308E+02  0.51100000000E-03 0.  1.
         12    1    3    3    0    0  0.21803843024E+01  0.98643298426E-01  0.32776161235E+01  0.39378387041E+01  0.00000000000E+00 0. -1.
</event>
<event>
 7    1  0.5843820E-012  0.5052889E+02  0.7816164E-02  0.1300439E+00
        -11   -1    0    0    0    0  0.00000000000E+00  0.00000000000E+00  0.45593999997E+02  0.45594000000E+02  0.51100000000E-03 0. -1.
         11   -1    0    0    0    0 -0.00000000000E+00 -0.00000000000E+00 -0.45593999997E+02  0.45594000000E+02  0.51100000000E-03 0.  1.
    9900012    2    1    2    0    0  0.21969064137E+02 -0.92754778402E+01 -0.32931577661E+02  0.50528891851E+02  0.30000097271E+02 0.  0.
         12    1    1    2    0    0 -0.21969064137E+02  0.92754778402E+01  0.32931577661E+02  0.40659108149E+02  0.00000000000E+00 0. -1.
         11    1    3    3    0    0  0.59954836443E+01 -0.89404345466E+01 -0.47817487899E+00  0.10775242247E+02  0.51100000000E-03 0. -1.
        -11    1    3    3    0    0  0.46376049507E+01 -0.37861091639E+00  0.70945042910E+00  0.47068084810E+01  0.51100000000E-03 0.  1.
        -12    1    3    3    0    0  0.11335975542E+02  0.43567622791E-01 -0.33162853211E+02  0.35046841123E+02  0.00000000000E+00 0.  1.
</event>
<event>
 7    1  0.5843820E-012  0.5052886E+02  0.7816164E-02  0.1300439E+00
        -11   -1    0    0    0    0  0.00000000000E+00  0.00000000000E+00  0.45593999997E+02  0.45594000000E+02  0.51100000000E-03 0.  1.
         11   -1    0    0    0    0 -0.00000000000E+00 -0.00000000000E+00 -0.45593999997E+02  0.45594000000E+02  0.51100000000E-03 0. -1.
    9900012    2    1    2    0    0 -0.37950423815E+02 -0.14467406086E+02 -0.19039362983E+01  0.50528862281E+02  0.30000007389E+02 0.  0.
         12    1    1    2    0    0  0.37950423815E+02  0.14467406086E+02  0.19039362983E+01  0.40659137719E+02  0.00000000000E+00 0. -1.
         11    1    3    3    0    0  0.27172914301E+00  0.12166379099E+01 -0.32368071586E+01  0.34685682023E+01  0.51100000000E-03 0. -1.
        -11    1    3    3    0    0 -0.89731358736E+01  0.29148758947E+01 -0.65854925589E+01  0.11505754273E+02  0.51100000000E-03 0.  1.
        -12    1    3    3    0    0 -0.29249017085E+02 -0.18598919891E+02  0.79183634192E+01  0.35554539805E+02  0.00000000000E+00 0.  1.
</event>
<event>
 7    1  0.5843820E-012  0.5052885E+02  0.7816164E-02  0.1300439E+00
        -11   -1    0    0    0    0  0.00000000000E+00  0.00000000000E+00  0.45593999997E+02  0.45594000000E+02  0.51100000000E-03 0. -1.
         11   -1    0    0    0    0 -0.00000000000E+00 -0.00000000000E+00 -0.45593999997E+02  0.45594000000E+02  0.51100000000E-03 0.  1.
    9900012    2    1    2    0    0 -0.80489889506E+01 -0.12299144591E+02 -0.37909252576E+02  0.50528848365E+02  0.29999965090E+02 0.  0.
         12    1    1    2    0    0  0.80489889506E+01  0.12299144591E+02  0.37909252576E+02  0.40659151635E+02  0.00000000000E+00 0. -1.
         11    1    3    3    0    0  0.22393370606E+01  0.71652111598E+00  0.27377611192E+00  0.23670628638E+01  0.51100000000E-03 0. -1.
        -11    1    3    3    0    0 -0.10303631508E+02 -0.52187668967E+01 -0.27388960891E+01  0.11870210707E+02  0.51100000000E-03 0.  1.
        -12    1    3    3    0    0  0.15305497091E-01 -0.77968988100E+01 -0.35444132599E+02  0.36291574794E+02  0.00000000000E+00 0.  1.
</event>
<event>
 7    1  0.5843820E-012  0.5052886E+02  0.7816164E-02  0.1300439E+00
        -11   -1    0    0    0    0  0.00000000000E+00  0.00000000000E+00  0.45593999997E+02  0.45594000000E+02  0.51100000000E-03 0. -1.
         11   -1    0    0    0    0 -0.00000000000E+00 -0.00000000000E+00 -0.45593999997E+02  0.45594000000E+02  0.51100000000E-03 0.  1.
    9900012    2    1    2    0    0  0.25094063033E+02 -0.29285057736E+02 -0.12877861326E+02  0.50528856891E+02  0.29999991004E+02 0.  0.
         12    1    1    2    0    0 -0.25094063033E+02  0.29285057736E+02  0.12877861326E+02  0.40659143109E+02  0.00000000000E+00 0. -1.
         11    1    3    3    0    0  0.46076187517E+01 -0.54070781139E+01 -0.61439053557E+01  0.93922424144E+01  0.51100000000E-03 0. -1.
        -11    1    3    3    0    0  0.23351873420E+02 -0.13845940031E+02 -0.11723967308E+02  0.29571463563E+02  0.51100000000E-03 0.  1.
         12    1    3    3    0    0 -0.28654291385E+01 -0.10032039590E+02  0.49900113379E+01  0.11565150913E+02  0.00000000000E+00 0. -1.
</event>
<event>
 7    1  0.5843820E-012  0.5052887E+02  0.7816164E-02  0.1300439E+00
        -11   -1    0    0    0    0  0.00000000000E+00  0.00000000000E+00  0.45593999997E+02  0.45594000000E+02  0.51100000000E-03 0. -1.
         11   -1    0    0    0    0 -0.00000000000E+00 -0.00000000000E+00 -0.45593999997E+02  0.45594000000E+02  0.51100000000E-03 0.  1.
    9900012    2    1    2    0    0 -0.30919470217E+02  0.24485999350E+02 -0.98786318707E+01  0.50528866090E+02  0.30000018966E+02 0.  0.
         12    1    1    2    0    0  0.30919470217E+02 -0.24485999350E+02  0.98786318707E+01  0.40659133910E+02  0.00000000000E+00 0. -1.
         11    1    3    3    0    0  0.41081564111E+01  0.55533581523E+00 -0.34353117966E+01  0.53839311257E+01  0.51100000000E-03 0. -1.
        -11    1    3    3    0    0 -0.18985502290E+01 -0.97847667135E+00 -0.28207527239E+01  0.35381571134E+01  0.51100000000E-03 0.  1.
        -12    1    3    3    0    0 -0.33129076399E+02  0.24909140206E+02 -0.36225673501E+01  0.41606777851E+02  0.00000000000E+00 0.  1.
</event>
<event>
 7    1  0.5843820E-012  0.5052884E+02  0.7816164E-02  0.1300439E+00
        -11   -1    0    0    0    0  0.00000000000E+00  0.00000000000E+00  0.45593999997E+02  0.45594000000E+02  0.51100000000E-03 0. -1.
         11   -1    0    0    0    0 -0.00000000000E+00 -0.00000000000E+00 -0.45593999997E+02  0.45594000000E+02  0.51100000000E-03 0.  1.
    9900012    2    1    2    0    0 -0.17271217759E+02 -0.21270437133E+02  0.30040654568E+02  0.50528838848E+02  0.29999936161E+02 0.  0.
        -12    1    1    2    0    0  0.17271217759E+02  0.21270437133E+02 -0.30040654568E+02  0.40659161152E+02  0.00000000000E+00 0.  1.
         11    1    3    3    0    0 -0.12881813188E+02 -0.14558065709E+02  0.85692718519E+01  0.21244077022E+02  0.51100000000E-03 0. -1.
        -11    1    3    3    0    0 -0.26819375153E+01 -0.12964288002E+02  0.12422620104E+02  0.18154532292E+02  0.51100000000E-03 0.  1.
        -12    1    3    3    0    0 -0.17074670557E+01  0.62519165777E+01  0.90487626126E+01  0.11130229533E+02  0.00000000000E+00 0.  1.
</event>
<event>
 7    1  0.5843820E-012  0.5052887E+02  0.7816164E-02  0.1300439E+00
        -11   -1    0    0    0    0  0.00000000000E+00  0.00000000000E+00  0.45593999997E+02  0.45594000000E+02  0.51100000000E-03 0. -1.
         11   -1    0    0    0    0 -0.00000000000E+00 -0.00000000000E+00 -0.45593999997E+02  0.45594000000E+02  0.51100000000E-03 0.  1.
    9900012    2    1    2    0    0 -0.17046881763E+02 -0.24394299418E+02  0.27703551421E+02  0.50528870849E+02  0.30000033434E+02 0.  0.
        -12    1    1    2    0    0  0.17046881763E+02  0.24394299418E+02 -0.27703551421E+02  0.40659129151E+02  0.00000000000E+00 0.  1.
         11    1    3    3    0    0  0.36223406886E+01 -0.19775079330E+01 -0.15869017610E+01  0.44215548339E+01  0.51100000000E-03 0. -1.
        -11    1    3    3    0    0 -0.13724430941E+02 -0.95258304470E+01  0.44773307093E+01  0.17295893759E+02  0.51100000000E-03 0.  1.
         12    1    3    3    0    0 -0.69447915105E+01 -0.12890961038E+02  0.24813122473E+02  0.28811422257E+02  0.00000000000E+00 0. -1.
</event>
<event>
 7    1  0.5843820E-012  0.5052885E+02  0.7816164E-02  0.1300439E+00
        -11   -1    0    0    0    0  0.00000000000E+00  0.00000000000E+00  0.45593999997E+02  0.45594000000E+02  0.51100000000E-03 0. -1.
         11   -1    0    0    0    0 -0.00000000000E+00 -0.00000000000E+00 -0.45593999997E+02  0.45594000000E+02  0.51100000000E-03 0.  1.
    9900012    2    1    2    0    0 -0.46743531945E+01  0.17737257134E+02 -0.36286448282E+02  0.50528853460E+02  0.29999980578E+02 0.  0.
         12    1    1    2    0    0  0.46743531945E+01 -0.17737257134E+02  0.36286448282E+02  0.40659146540E+02  0.00000000000E+00 0. -1.
         11    1    3    3    0    0  0.38627360269E+01 -0.86618159857E+00 -0.92913490677E+00  0.40662380785E+01  0.51100000000E-03 0. -1.
        -11    1    3    3    0    0 -0.50948023457E+01 -0.29012663487E+01 -0.12492448853E+01  0.59945784182E+01  0.51100000000E-03 0.  1.
        -12    1    3    3    0    0 -0.34422868757E+01  0.21504705081E+02 -0.34108068490E+02  0.40468036963E+02  0.00000000000E+00 0.  1.
</event>
<event>
 7    1  0.5843820E-012  0.5052887E+02  0.7816164E-02  0.1300439E+00
        -11   -1    0    0    0    0  0.00000000000E+00  0.00000000000E+00  0.45593999997E+02  0.45594000000E+02  0.51100000000E-03 0. -1.
         11   -1    0    0    0    0 -0.00000000000E+00 -0.00000000000E+00 -0.45593999997E+02  0.45594000000E+02  0.51100000000E-03 0.  1.
    9900012    2    1    2    0    0  0.11015757938E+01  0.12063098628E+02  0.38812797580E+02  0.50528867278E+02  0.30000022578E+02 0.  0.
        -12    1    1    2    0    0 -0.11015757938E+01 -0.12063098628E+02 -0.38812797580E+02  0.40659132722E+02  0.00000000000E+00 0.  1.
         11    1    3    3    0    0  0.87223756636E-01  0.12090873389E+01  0.58754516356E+01  0.59992026437E+01  0.51100000000E-03 0. -1.
        -11    1    3    3    0    0 -0.13357159301E+02  0.34317325269E+01  0.14971445276E+02  0.20355212272E+02  0.51100000000E-03 0.  1.
         12    1    3    3    0    0  0.14371511338E+02  0.74222787620E+01  0.17965900668E+02  0.24174452362E+02  0.00000000000E+00 0. -1.
</event>
<event>
 7    1  0.5843820E-012  0.5052885E+02  0.7816164E-02  0.1300439E+00
        -11   -1    0    0    0    0  0.00000000000E+00  0.00000000000E+00  0.45593999997E+02  0.45594000000E+02  0.51100000000E-03 0. -1.
         11   -1    0    0    0    0 -0.00000000000E+00 -0.00000000000E+00 -0.45593999997E+02  0.45594000000E+02  0.51100000000E-03 0.  1.
    9900012    2    1    2    0    0  0.25229734792E+01  0.25558458467E+02 -0.31520883074E+02  0.50528852639E+02  0.29999978080E+02 0.  0.
         12    1    1    2    0    0 -0.25229734792E+01 -0.25558458467E+02  0.31520883074E+02  0.40659147361E+02  0.00000000000E+00 0. -1.
         11    1    3    3    0    0 -0.51434643449E+01  0.91239940606E+01 -0.18206913332E+02  0.21004622977E+02  0.51100000000E-03 0. -1.
        -11    1    3    3    0    0  0.75419087724E+00  0.12152875450E+02 -0.16740885288E+02  0.20700686609E+02  0.51100000000E-03 0.  1.
         12    1    3    3    0    0  0.69122469469E+01  0.42815889560E+01  0.34269155455E+01  0.88235430525E+01  0.00000000000E+00 0. -1.
</event>
<event>
 7    1  0.5843820E-012  0.5052886E+02  0.7816164E-02  0.1300439E+00
        -11   -1    0    0    0    0  0.00000000000E+00  0.00000000000E+00  0.45593999997E+02  0.45594000000E+02  0.51100000000E-03 0.  1.
         11   -1    0    0    0    0 -0.00000000000E+00 -0.00000000000E+00 -0.45593999997E+02  0.45594000000E+02  0.51100000000E-03 0. -1.
    9900012    2    1    2    0    0  0.17037364352E+02 -0.23898544164E+02 -0.28138116828E+02  0.50528858152E+02  0.29999994838E+02 0.  0.
         12    1    1    2    0    0 -0.17037364352E+02  0.23898544164E+02  0.28138116828E+02  0.40659141848E+02  0.00000000000E+00 0. -1.
         11    1    3    3    0    0  0.11395378110E+02 -0.73497202263E+00 -0.69786640816E+01  0.13382696992E+02  0.51100000000E-03 0. -1.
        -11    1    3    3    0    0 -0.12915823507E+01 -0.50448083195E+01 -0.16349323471E+02  0.17158632060E+02  0.51100000000E-03 0.  1.
        -12    1    3    3    0    0  0.69335685922E+01 -0.18118763822E+02 -0.48101292748E+01  0.19987529100E+02  0.00000000000E+00 0.  1.
</event>
<event>
 7    1  0.5843820E-012  0.5052886E+02  0.7816164E-02  0.1300439E+00
        -11   -1    0    0    0    0  0.00000000000E+00  0.00000000000E+00  0.45593999997E+02  0.45594000000E+02  0.51100000000E-03 0. -1.
         11   -1    0    0    0    0 -0.00000000000E+00 -0.00000000000E+00 -0.45593999997E+02  0.45594000000E+02  0.51100000000E-03 0.  1.
    9900012    2    1    2    0    0 -0.24404386203E+01  0.18815789641E+02  0.35960761130E+02  0.50528855622E+02  0.29999987149E+02 0.  0.
        -12    1    1    2    0    0  0.24404386203E+01 -0.18815789641E+02 -0.35960761130E+02  0.40659144378E+02  0.00000000000E+00 0.  1.
         11    1    3    3    0    0  0.25616952744E+01  0.10381805394E+02  0.31064973109E+02  0.32853869186E+02  0.51100000000E-03 0. -1.
        -11    1    3    3    0    0  0.43362543360E+01  0.17969540978E+01  0.40284567911E+01  0.61855161527E+01  0.51100000000E-03 0.  1.
        -12    1    3    3    0    0 -0.93383882307E+01  0.66370301485E+01  0.86733123010E+00  0.11489470284E+02  0.00000000000E+00 0.  1.
</event>
<event>
 7    1  0.5843820E-012  0.5052886E+02  0.7816164E-02  0.1300439E+00
        -11   -1    0    0    0    0  0.00000000000E+00  0.00000000000E+00  0.45593999997E+02  0.45594000000E+02  0.51100000000E-03 0. -1.
         11   -1    0    0    0    0 -0.00000000000E+00 -0.00000000000E+00 -0.45593999997E+02  0.45594000000E+02  0.51100000000E-03 0.  1.
    9900012    2    1    2    0    0  0.18042967532E+02 -0.99694252806E+00 -0.36422834238E+02  0.50528862949E+02  0.30000009420E+02 0.  0.
         12    1    1    2    0    0 -0.18042967532E+02  0.99694252806E+00  0.36422834238E+02  0.40659137051E+02  0.00000000000E+00 0. -1.
         11    1    3    3    0    0  0.73786516198E+01  0.72078562172E+01 -0.47403040009E+01  0.11352011859E+02  0.51100000000E-03 0. -1.
        -11    1    3    3    0    0  0.65398303452E+01 -0.67844322771E+01 -0.26088352678E+01  0.97777259106E+01  0.51100000000E-03 0.  1.
         12    1    3    3    0    0  0.41244855672E+01 -0.14203664682E+01 -0.29073694970E+02  0.29399125179E+02  0.00000000000E+00 0. -1.
</event>
<event>
 7    1  0.5843820E-012  0.5052885E+02  0.7816164E-02  0.1300439E+00
        -11   -1    0    0    0    0  0.00000000000E+00  0.00000000000E+00  0.45593999997E+02  0.45594000000E+02  0.51100000000E-03 0. -1.
         11   -1    0    0    0    0 -0.00000000000E+00 -0.00000000000E+00 -0.45593999997E+02  0.45594000000E+02  0.51100000000E-03 0.  1.
    9900012    2    1    2    0    0 -0.80770492974E+01 -0.22810252015E+02 -0.32674452242E+02  0.50528854022E+02  0.29999982285E+02 0.  0.
         12    1    1    2    0    0  0.80770492974E+01  0.22810252015E+02  0.32674452242E+02  0.40659145978E+02  0.00000000000E+00 0. -1.
         11    1    3    3    0    0 -0.56747299347E+01 -0.12142105296E+02 -0.17235439093E+00  0.13403842253E+02  0.51100000000E-03 0. -1.
        -11    1    3    3    0    0 -0.52098721271E+01 -0.78367918372E+01 -0.81514597346E+01  0.12450075098E+02  0.51100000000E-03 0.  1.
         12    1    3    3    0    0  0.28075527644E+01 -0.28313548812E+01 -0.24350638117E+02  0.24674936670E+02  0.00000000000E+00 0. -1.
</event>
<event>
 7    1  0.5843820E-012  0.5052891E+02  0.7816164E-02  0.1300439E+00
        -11   -1    0    0    0    0  0.00000000000E+00  0.00000000000E+00  0.45593999997E+02  0.45594000000E+02  0.51100000000E-03 0. -1.
         11   -1    0    0    0    0 -0.00000000000E+00 -0.00000000000E+00 -0.45593999997E+02  0.45594000000E+02  0.51100000000E-03 0.  1.
    9900012    2    1    2    0    0  0.37536001169E+01 -0.36048587896E+02 -0.18427456752E+02  0.50528912880E+02  0.30000161188E+02 0.  0.
         12    1    1    2    0    0 -0.37536001169E+01  0.36048587896E+02  0.18427456752E+02  0.40659087120E+02  0.00000000000E+00 0. -1.
         11    1    3    3    0    0  0.34783983324E+01 -0.13912300581E+02 -0.76971319939E+01  0.16275662924E+02  0.51100000000E-03 0. -1.
        -11    1    3    3    0    0 -0.36080431326E+01 -0.25721716369E+02 -0.49867886275E+01  0.26447924858E+02  0.51100000000E-03 0.  1.
        -12    1    3    3    0    0  0.38832449171E+01  0.35854290548E+01 -0.57435361305E+01  0.78053250974E+01  0.00000000000E+00 0.  1.
</event>
<event>
 7    1  0.5843820E-012  0.5052886E+02  0.7816164E-02  0.1300439E+00
        -11   -1    0    0    0    0  0.00000000000E+00  0.00000000000E+00  0.45593999997E+02  0.45594000000E+02  0.51100000000E-03 0. -1.
         11   -1    0    0    0    0 -0.00000000000E+00 -0.00000000000E+00 -0.45593999997E+02  0.45594000000E+02  0.51100000000E-03 0.  1.
    9900012    2    1    2    0    0  0.39773276165E+02 -0.84158900821E+01 -0.65183604684E+00  0.50528860892E+02  0.30000003168E+02 0.  0.
         12    1    1    2    0    0 -0.39773276165E+02  0.84158900821E+01  0.65183604684E+00  0.40659139108E+02  0.00000000000E+00 0. -1.
         11    1    3    3    0    0  0.29121709643E+02 -0.11157849963E+02  0.37291937464E+01  0.31408254880E+02  0.51100000000E-03 0. -1.
        -11    1    3    3    0    0  0.89259770773E+01 -0.24659193958E+01  0.31691456360E+01  0.97876100032E+01  0.51100000000E-03 0.  1.
        -12    1    3    3    0    0  0.17255894442E+01  0.52078792765E+01 -0.75501754293E+01  0.93329960089E+01  0.00000000000E+00 0.  1.
</event>
<event>
 7    1  0.5843820E-012  0.5052886E+02  0.7816164E-02  0.1300439E+00
        -11   -1    0    0    0    0  0.00000000000E+00  0.00000000000E+00  0.45593999997E+02  0.45594000000E+02  0.51100000000E-03 0. -1.
         11   -1    0    0    0    0 -0.00000000000E+00 -0.00000000000E+00 -0.45593999997E+02  0.45594000000E+02  0.51100000000E-03 0.  1.
    9900012    2    1    2    0    0  0.12140187860E+01  0.26435269675E+02  0.30868568548E+02  0.50528857749E+02  0.29999993613E+02 0.  0.
        -12    1    1    2    0    0 -0.12140187860E+01 -0.26435269675E+02 -0.30868568548E+02  0.40659142251E+02  0.00000000000E+00 0.  1.
         11    1    3    3    0    0  0.43337956545E+01  0.21804286447E+01  0.56484602071E+01  0.74458818700E+01  0.51100000000E-03 0. -1.
        -11    1    3    3    0    0  0.97178459951E+01  0.17583061956E+02  0.11522775207E+02  0.23159770017E+02  0.51100000000E-03 0.  1.
         12    1    3    3    0    0 -0.12837622864E+02  0.66717790749E+01  0.13697333134E+02  0.19923205861E+02  0.00000000000E+00 0. -1.
</event>
<event>
 7    1  0.5843820E-012  0.5052886E+02  0.7816164E-02  0.1300439E+00
        -11   -1    0    0    0    0  0.00000000000E+00  0.00000000000E+00  0.45593999997E+02  0.45594000000E+02  0.51100000000E-03 0. -1.
         11   -1    0    0    0    0 -0.00000000000E+00 -0.00000000000E+00 -0.45593999997E+02  0.45594000000E+02  0.51100000000E-03 0.  1.
    9900012    2    1    2    0    0 -0.19777496674E+02 -0.15014006217E+02  0.32196204597E+02  0.50528863907E+02  0.30000012331E+02 0.  0.
        -12    1    1    2    0    0  0.19777496674E+02  0.15014006217E+02 -0.32196204597E+02  0.40659136093E+02  0.00000000000E+00 0.  1.
         11    1    3    3    0    0 -0.39009181379E+01 -0.18685384291E+01 -0.29281194605E+01  0.52232635407E+01  0.51100000000E-03 0. -1.
        -11    1    3    3    0    0  0.95068401515E+00 -0.80179774057E+01  0.21772002482E+02  0.23220935686E+02  0.51100000000E-03 0.  1.
         12    1    3    3    0    0 -0.16827262551E+02 -0.51274903824E+01  0.13352321576E+02  0.22084664681E+02  0.00000000000E+00 0. -1.
</event>
<event>
 7    1  0.5843820E-012  0.5052885E+02  0.7816164E-02  0.1300439E+00
        -11   -1    0    0    0    0  0.00000000000E+00  0.00000000000E+00  0.45593999997E+02  0.45594000000E+02  0.51100000000E-03 0. -1.
         11   -1    0    0    0    0 -0.00000000000E+00 -0.00000000000E+00 -0.45593999997E+02  0.45594000000E+02  0.51100000000E-03 0.  1.
    9900012    2    1    2    0    0  0.15360806009E+02 -0.20128688922E+02 -0.31812698308E+02  0.50528852781E+02  0.29999978513E+02 0.  0.
         12    1    1    2    0    0 -0.15360806009E+02  0.20128688922E+02  0.31812698308E+02  0.40659147219E+02  0.00000000000E+00 0. -1.
         11    1    3    3    0    0 -0.50327378770E+01 -0.90781033169E+00 -0.33015390619E+01  0.60870954137E+01  0.51100000000E-03 0. -1.
        -11    1    3    3    0    0 -0.31011721949E+01 -0.46222444900E+00 -0.63831302143E+01  0.71116293504E+01  0.51100000000E-03 0.  1.
        -12    1    3    3    0    0  0.23494716081E+02 -0.18758654141E+02 -0.22128029032E+02  0.37330128017E+02  0.00000000000E+00 0.  1.
</event>
<event>
 7    1  0.5843820E-012  0.5052880E+02  0.7816164E-02  0.1300439E+00
        -11   -1    0    0    0    0  0.00000000000E+00  0.00000000000E+00  0.45593999997E+02  0.45594000000E+02  0.51100000000E-03 0. -1.
         11   -1    0    0    0    0 -0.00000000000E+00 -0.00000000000E+00 -0.45593999997E+02  0.45594000000E+02  0.51100000000E-03 0.  1.
    9900012    2    1    2    0    0 -0.14993630778E+02 -0.24711834587E+02 -0.28595229962E+02  0.50528795518E+02  0.29999804455E+02 0.  0.
         12    1    1    2    0    0  0.14993630778E+02  0.24711834587E+02  0.28595229962E+02  0.40659204482E+02  0.00000000000E+00 0. -1.
         11    1    3    3    0    0  0.65531540823E+01  0.10301030746E+01 -0.13578394034E+01  0.67711645142E+01  0.51100000000E-03 0. -1.
        -11    1    3    3    0    0 -0.10628286191E+02 -0.78137814690E+01 -0.11826934229E+02  0.17716998101E+02  0.51100000000E-03 0.  1.
        -12    1    3    3    0    0 -0.10918498669E+02 -0.17928156193E+02 -0.15410456330E+02  0.26040632902E+02  0.00000000000E+00 0.  1.
</event>
<event>
 7    1  0.8708162E-012  0.5052886E+02  0.7816164E-02  0.1300439E+00
        -11   -1    0    0    0    0  0.00000000000E+00  0.00000000000E+00  0.45593999997E+02  0.45594000000E+02  0.51100000000E-03 0. -1.
         11   -1    0    0    0    0 -0.00000000000E+00 -0.00000000000E+00 -0.45593999997E+02  0.45594000000E+02  0.51100000000E-03 0.  1.
    9900012    2    1    2    0    0 -0.37236269085E+01  0.72058288250E+01 -0.39841891576E+02  0.50528859690E+02  0.29999999514E+02 0.  0.
         12    1    1    2    0    0  0.37236269085E+01 -0.72058288250E+01  0.39841891576E+02  0.40659140310E+02  0.00000000000E+00 0. -1.
         11    1    3    3    0    0 -0.97809465600E+00 -0.13420804478E+00  0.30248021058E+01  0.31818405044E+01  0.51100000000E-03 0. -1.
        -11    1    3    3    0    0 -0.47521166464E+01  0.12783518899E+02 -0.23952569560E+02  0.27563137645E+02  0.51100000000E-03 0.  1.
        -12    1    3    3    0    0  0.20065843939E+01 -0.54434820291E+01 -0.18914124121E+02  0.19783881541E+02  0.00000000000E+00 0.  1.
</event>
<event>
 7    1  0.5843820E-012  0.5052885E+02  0.7816164E-02  0.1300439E+00
        -11   -1    0    0    0    0  0.00000000000E+00  0.00000000000E+00  0.45593999997E+02  0.45594000000E+02  0.51100000000E-03 0. -1.
         11   -1    0    0    0    0 -0.00000000000E+00 -0.00000000000E+00 -0.45593999997E+02  0.45594000000E+02  0.51100000000E-03 0.  1.
    9900012    2    1    2    0    0 -0.36178932827E+01  0.83766985584E+01  0.39622067890E+02  0.50528849807E+02  0.29999969474E+02 0.  0.
        -12    1    1    2    0    0  0.36178932827E+01 -0.83766985584E+01 -0.39622067890E+02  0.40659150193E+02  0.00000000000E+00 0.  1.
         11    1    3    3    0    0  0.19427316640E+01 -0.40638877846E+01  0.58549353992E+01  0.73871279286E+01  0.51100000000E-03 0. -1.
        -11    1    3    3    0    0  0.89260501374E+01  0.49601629358E+01  0.16411760338E+02  0.19329342075E+02  0.51100000000E-03 0.  1.
        -12    1    3    3    0    0 -0.14486675084E+02  0.74804234072E+01  0.17355372153E+02  0.23812379804E+02  0.00000000000E+00 0.  1.
</event>
<event>
 7    1  0.5843820E-012  0.5052886E+02  0.7816164E-02  0.1300439E+00
        -11   -1    0    0    0    0  0.00000000000E+00  0.00000000000E+00  0.45593999997E+02  0.45594000000E+02  0.51100000000E-03 0. -1.
         11   -1    0    0    0    0 -0.00000000000E+00 -0.00000000000E+00 -0.45593999997E+02  0.45594000000E+02  0.51100000000E-03 0.  1.
    9900012    2    1    2    0    0  0.40732381672E+01 -0.38397982213E+01  0.40271952737E+02  0.50528862075E+02  0.30000006765E+02 0.  0.
        -12    1    1    2    0    0 -0.40732381672E+01  0.38397982213E+01 -0.40271952737E+02  0.40659137925E+02  0.00000000000E+00 0.  1.
         11    1    3    3    0    0  0.54882737894E+01  0.15519603791E+01  0.30832705926E+02  0.31355788703E+02  0.51100000000E-03 0. -1.
        -11    1    3    3    0    0  0.62211618786E+01  0.86503448441E+00  0.60889432972E+01  0.87479352145E+01  0.51100000000E-03 0.  1.
        -12    1    3    3    0    0 -0.76361975008E+01 -0.62567930847E+01  0.33503035129E+01  0.10425138158E+02  0.00000000000E+00 0.  1.
</event>
<event>
 7    1  0.5843820E-012  0.5052887E+02  0.7816164E-02  0.1300439E+00
        -11   -1    0    0    0    0  0.00000000000E+00  0.00000000000E+00  0.45593999997E+02  0.45594000000E+02  0.51100000000E-03 0. -1.
         11   -1    0    0    0    0 -0.00000000000E+00 -0.00000000000E+00 -0.45593999997E+02  0.45594000000E+02  0.51100000000E-03 0.  1.
    9900012    2    1    2    0    0  0.66771963671E+00  0.11206686881E+02 -0.39078497044E+02  0.50528872961E+02  0.30000039853E+02 0.  0.
         12    1    1    2    0    0 -0.66771963671E+00 -0.11206686881E+02  0.39078497044E+02  0.40659127039E+02  0.00000000000E+00 0. -1.
         11    1    3    3    0    0  0.26823908831E+01  0.15804402115E+02 -0.21719588802E+02  0.26994719577E+02  0.51100000000E-03 0. -1.
        -11    1    3    3    0    0 -0.34654811530E+01  0.42002758724E+01 -0.20514381974E+01  0.58189583230E+01  0.51100000000E-03 0.  1.
        -12    1    3    3    0    0  0.14508099065E+01 -0.87979911068E+01 -0.15307470044E+02  0.17715195061E+02  0.00000000000E+00 0.  1.
</event>
<event>
 7    1  0.1185146E-011  0.5052888E+02  0.7816164E-02  0.1300439E+00
        -11   -1    0    0    0    0  0.00000000000E+00  0.00000000000E+00  0.45593999997E+02  0.45594000000E+02  0.51100000000E-03 0. -1.
         11   -1    0    0    0    0 -0.00000000000E+00 -0.00000000000E+00 -0.45593999997E+02  0.45594000000E+02  0.51100000000E-03 0.  1.
    9900012    2    1    2    0    0 -0.13069352933E+02  0.29612632419E+02 -0.24605861319E+02  0.50528875610E+02  0.30000047905E+02 0.  0.
         12    1    1    2    0    0  0.13069352933E+02 -0.29612632419E+02  0.24605861319E+02  0.40659124390E+02  0.00000000000E+00 0. -1.
         11    1    3    3    0    0 -0.68106516575E+01 -0.19110221777E+01 -0.41841992394E+00  0.70860466593E+01  0.51100000000E-03 0. -1.
        -11    1    3    3    0    0 -0.29308903983E+01  0.17222848676E+02 -0.30941154708E+01  0.17742327521E+02  0.51100000000E-03 0.  1.
        -12    1    3    3    0    0 -0.33278108776E+01  0.14300805921E+02 -0.21093325924E+02  0.25700501430E+02  0.00000000000E+00 0.  1.
</event>
<event>
 7    1  0.5843820E-012  0.5052886E+02  0.7816164E-02  0.1300439E+00
        -11   -1    0    0    0    0  0.00000000000E+00  0.00000000000E+00  0.45593999997E+02  0.45594000000E+02  0.51100000000E-03 0. -1.
         11   -1    0    0    0    0 -0.00000000000E+00 -0.00000000000E+00 -0.45593999997E+02  0.45594000000E+02  0.51100000000E-03 0.  1.
    9900012    2    1    2    0    0  0.12581458017E+02 -0.33798321401E+01  0.38515571834E+02  0.50528860501E+02  0.30000001977E+02 0.  0.
        -12    1    1    2    0    0 -0.12581458017E+02  0.33798321401E+01 -0.38515571834E+02  0.40659139499E+02  0.00000000000E+00 0.  1.
         11    1    3    3    0    0 -0.89208266811E+00  0.29374085353E+01 -0.21970031796E+01  0.37750501483E+01  0.51100000000E-03 0. -1.
        -11    1    3    3    0    0 -0.17169642301E+01 -0.66951329548E+01  0.19277822729E+02  0.20479434096E+02  0.51100000000E-03 0.  1.
         12    1    3    3    0    0  0.15190504915E+02  0.37789227946E+00  0.21434752284E+02  0.26274376256E+02  0.00000000000E+00 0. -1.
</event>
<event>
 7    1  0.5843820E-012  0.5052885E+02  0.7816164E-02  0.1300439E+00
        -11   -1    0    0    0    0  0.00000000000E+00  0.00000000000E+00  0.45593999997E+02  0.45594000000E+02  0.51100000000E-03 0. -1.
         11   -1    0    0    0    0 -0.00000000000E+00 -0.00000000000E+00 -0.45593999997E+02  0.45594000000E+02  0.51100000000E-03 0.  1.
    9900012    2    1    2    0    0 -0.24968669985E+02 -0.79047879742E+01 -0.31100579737E+02  0.50528853259E+02  0.29999979966E+02 0.  0.
         12    1    1    2    0    0  0.24968669985E+02  0.79047879742E+01  0.31100579737E+02  0.40659146741E+02  0.00000000000E+00 0. -1.
         11    1    3    3    0    0 -0.69650167332E+01  0.32665570836E+01 -0.52020957103E+01  0.92867461102E+01  0.51100000000E-03 0. -1.
        -11    1    3    3    0    0 -0.10844315421E+00  0.15056706718E+01  0.39354091037E+01  0.42150028664E+01  0.51100000000E-03 0.  1.
        -12    1    3    3    0    0 -0.17895210098E+02 -0.12677015730E+02 -0.29833893130E+02  0.37027104282E+02  0.00000000000E+00 0.  1.
</event>
<event>
 7    1  0.5843820E-012  0.5052886E+02  0.7816164E-02  0.1300439E+00
        -11   -1    0    0    0    0  0.00000000000E+00  0.00000000000E+00  0.45593999997E+02  0.45594000000E+02  0.51100000000E-03 0. -1.
         11   -1    0    0    0    0 -0.00000000000E+00 -0.00000000000E+00 -0.45593999997E+02  0.45594000000E+02  0.51100000000E-03 0.  1.
    9900012    2    1    2    0    0 -0.32836191367E+02 -0.14711152912E+02 -0.18934949895E+02  0.50528858211E+02  0.29999995017E+02 0.  0.
         12    1    1    2    0    0  0.32836191367E+02  0.14711152912E+02  0.18934949895E+02  0.40659141789E+02  0.00000000000E+00 0. -1.
         11    1    3    3    0    0 -0.46708563297E+01 -0.38625048824E+00  0.24909307499E+01  0.53076194809E+01  0.51100000000E-03 0. -1.
        -11    1    3    3    0    0 -0.73814683149E+01  0.68637285408E+01 -0.65578919910E+01  0.12025090087E+02  0.51100000000E-03 0.  1.
        -12    1    3    3    0    0 -0.20783866723E+02 -0.21188630964E+02 -0.14867988654E+02  0.33196148643E+02  0.00000000000E+00 0.  1.
</event>
<event>
 7    1  0.5843820E-012  0.5052886E+02  0.7816164E-02  0.1300439E+00
        -11   -1    0    0    0    0  0.00000000000E+00  0.00000000000E+00  0.45593999997E+02  0.45594000000E+02  0.51100000000E-03 0. -1.
         11   -1    0    0    0    0 -0.00000000000E+00 -0.00000000000E+00 -0.45593999997E+02  0.45594000000E+02  0.51100000000E-03 0.  1.
    9900012    2    1    2    0    0  0.83619571442E+01 -0.10768341494E+02  0.38305174926E+02  0.50528856724E+02  0.29999990499E+02 0.  0.
        -12    1    1    2    0    0 -0.83619571442E+01  0.10768341494E+02 -0.38305174926E+02  0.40659143276E+02  0.00000000000E+00 0.  1.
         11    1    3    3    0    0  0.35887328452E+01 -0.19085983628E+02  0.19909142971E+02  0.27812366828E+02  0.51100000000E-03 0.  1.
        -11    1    3    3    0    0  0.70347792252E+01  0.41113287305E+01  0.87705488466E+01  0.11971368761E+02  0.51100000000E-03 0. -1.
        -12    1    3    3    0    0 -0.22615549262E+01  0.42063134042E+01  0.96254831084E+01  0.10745121135E+02  0.00000000000E+00 0.  1.
</event>
<event>
 7    1  0.5843820E-012  0.5052886E+02  0.7816164E-02  0.1300439E+00
        -11   -1    0    0    0    0  0.00000000000E+00  0.00000000000E+00  0.45593999997E+02  0.45594000000E+02  0.51100000000E-03 0. -1.
         11   -1    0    0    0    0 -0.00000000000E+00 -0.00000000000E+00 -0.45593999997E+02  0.45594000000E+02  0.51100000000E-03 0.  1.
    9900012    2    1    2    0    0  0.17854730825E+02 -0.17882309416E+02 -0.31852737618E+02  0.50528864537E+02  0.30000014245E+02 0.  0.
         12    1    1    2    0    0 -0.17854730825E+02  0.17882309416E+02  0.31852737618E+02  0.40659135463E+02  0.00000000000E+00 0. -1.
         11    1    3    3    0    0 -0.32833479378E+01 -0.12444968494E+01 -0.19189249553E+02  0.19507855976E+02  0.51100000000E-03 0. -1.
        -11    1    3    3    0    0  0.38823639585E+01 -0.31671477495E+01 -0.66364712373E+01  0.83154269594E+01  0.51100000000E-03 0.  1.
        -12    1    3    3    0    0  0.17255714805E+02 -0.13470664817E+02 -0.60270168273E+01  0.22705581602E+02  0.00000000000E+00 0.  1.
</event>
<event>
 7    1  0.5843820E-012  0.5052888E+02  0.7816164E-02  0.1300439E+00
        -11   -1    0    0    0    0  0.00000000000E+00  0.00000000000E+00  0.45593999997E+02  0.45594000000E+02  0.51100000000E-03 0. -1.
         11   -1    0    0    0    0 -0.00000000000E+00 -0.00000000000E+00 -0.45593999997E+02  0.45594000000E+02  0.51100000000E-03 0.  1.
    9900012    2    1    2    0    0  0.37463719128E+02  0.11534316876E+01  0.15757645856E+02  0.50528879763E+02  0.30000060528E+02 0.  0.
        -12    1    1    2    0    0 -0.37463719128E+02 -0.11534316876E+01 -0.15757645856E+02  0.40659120237E+02  0.00000000000E+00 0.  1.
         11    1    3    3    0    0  0.13219710855E+02  0.96071286103E+01  0.14406481426E+02  0.21785416741E+02  0.51100000000E-03 0.  1.
        -11    1    3    3    0    0  0.17042439452E+02  0.61504240603E+00  0.18419008305E+01  0.17152714613E+02  0.51100000000E-03 0. -1.
        -12    1    3    3    0    0  0.72015688204E+01 -0.90687393287E+01 -0.49073640087E+00  0.11590748410E+02  0.00000000000E+00 0.  1.
</event>
<event>
 7    1  0.5843820E-012  0.5052886E+02  0.7816164E-02  0.1300439E+00
        -11   -1    0    0    0    0  0.00000000000E+00  0.00000000000E+00  0.45593999997E+02  0.45594000000E+02  0.51100000000E-03 0. -1.
         11   -1    0    0    0    0 -0.00000000000E+00 -0.00000000000E+00 -0.45593999997E+02  0.45594000000E+02  0.51100000000E-03 0.  1.
    9900012    2    1    2    0    0  0.13624046726E+01  0.25962450665E+02 -0.31261163634E+02  0.50528863969E+02  0.30000012520E+02 0.  0.
         12    1    1    2    0    0 -0.13624046726E+01 -0.25962450665E+02  0.31261163634E+02  0.40659136031E+02  0.00000000000E+00 0. -1.
         11    1    3    3    0    0  0.56127568762E+01  0.19092148163E+01 -0.75629631519E+01  0.96097113830E+01  0.51100000000E-03 0. -1.
        -11    1    3    3    0    0 -0.24624668301E+01 -0.28418606381E+00 -0.14703908478E+02  0.14911385898E+02  0.51100000000E-03 0.  1.
         12    1    3    3    0    0 -0.17878853736E+01  0.24337421912E+02 -0.89942920045E+01  0.26007766688E+02  0.00000000000E+00 0. -1.
</event>
<event>
 7    1  0.5843820E-012  0.5052887E+02  0.7816164E-02  0.1300439E+00
        -11   -1    0    0    0    0  0.00000000000E+00  0.00000000000E+00  0.45593999997E+02  0.45594000000E+02  0.51100000000E-03 0. -1.
         11   -1    0    0    0    0 -0.00000000000E+00 -0.00000000000E+00 -0.45593999997E+02  0.45594000000E+02  0.51100000000E-03 0.  1.
    9900012    2    1    2    0    0 -0.26467620365E+02 -0.15835084855E+01 -0.30824061131E+02  0.50528866075E+02  0.30000018923E+02 0.  0.
         12    1    1    2    0    0  0.26467620365E+02  0.15835084855E+01  0.30824061131E+02  0.40659133925E+02  0.00000000000E+00 0. -1.
         11    1    3    3    0    0 -0.31960546546E+01  0.95892052928E+01 -0.13191478438E+02  0.16618746257E+02  0.51100000000E-03 0. -1.
        -11    1    3    3    0    0 -0.64468736113E+01  0.24480319143E+01 -0.68742565603E+01  0.97370654271E+01  0.51100000000E-03 0.  1.
        -12    1    3    3    0    0 -0.16824692099E+02 -0.13620745693E+02 -0.10758326132E+02  0.24173054391E+02  0.00000000000E+00 0.  1.
</event>
<event>
 7    1  0.5843820E-012  0.5052887E+02  0.7816164E-02  0.1300439E+00
        -11   -1    0    0    0    0  0.00000000000E+00  0.00000000000E+00  0.45593999997E+02  0.45594000000E+02  0.51100000000E-03 0. -1.
         11   -1    0    0    0    0 -0.00000000000E+00 -0.00000000000E+00 -0.45593999997E+02  0.45594000000E+02  0.51100000000E-03 0.  1.
    9900012    2    1    2    0    0  0.27010569170E+01 -0.28064404752E+02  0.29296043438E+02  0.50528872074E+02  0.30000037157E+02 0.  0.
        -12    1    1    2    0    0 -0.27010569170E+01  0.28064404752E+02 -0.29296043438E+02  0.40659127926E+02  0.00000000000E+00 0.  1.
         11    1    3    3    0    0  0.10336928451E+00  0.16767432135E+01  0.34466634261E+01  0.38342720362E+01  0.51100000000E-03 0. -1.
        -11    1    3    3    0    0 -0.35692426063E+01 -0.36533248862E+01 -0.40641483141E+01  0.65271415862E+01  0.51100000000E-03 0.  1.
         12    1    3    3    0    0  0.61669302387E+01 -0.26087823080E+02  0.29913528326E+02  0.40167458452E+02  0.00000000000E+00 0. -1.
</event>
<event>
 7    1  0.5843820E-012  0.5052887E+02  0.7816164E-02  0.1300439E+00
        -11   -1    0    0    0    0  0.00000000000E+00  0.00000000000E+00  0.45593999997E+02  0.45594000000E+02  0.51100000000E-03 0.  1.
         11   -1    0    0    0    0 -0.00000000000E+00 -0.00000000000E+00 -0.45593999997E+02  0.45594000000E+02  0.51100000000E-03 0. -1.
    9900012    2    1    2    0    0 -0.18599119638E+01 -0.38203008276E+02  0.13792596671E+02  0.50528870191E+02  0.30000031433E+02 0.  0.
        -12    1    1    2    0    0  0.18599119638E+01  0.38203008276E+02 -0.13792596671E+02  0.40659129809E+02  0.00000000000E+00 0.  1.
         11    1    3    3    0    0  0.62834463270E+01 -0.14474955882E+02  0.55679750642E+01  0.16733451291E+02  0.51100000000E-03 0. -1.
        -11    1    3    3    0    0  0.70611644521E+01 -0.10119206312E+02  0.23480274558E+01  0.12560717057E+02  0.51100000000E-03 0.  1.
        -12    1    3    3    0    0 -0.15204522743E+02 -0.13608846082E+02  0.58765941513E+01  0.21234701843E+02  0.00000000000E+00 0.  1.
</event>
<event>
 7    1  0.5843820E-012  0.5052890E+02  0.7816164E-02  0.1300439E+00
        -11   -1    0    0    0    0  0.00000000000E+00  0.00000000000E+00  0.45593999997E+02  0.45594000000E+02  0.51100000000E-03 0. -1.
         11   -1    0    0    0    0 -0.00000000000E+00 -0.00000000000E+00 -0.45593999997E+02  0.45594000000E+02  0.51100000000E-03 0.  1.
    9900012    2    1    2    0    0 -0.20872210547E+02  0.34603820362E+02  0.44820307184E+01  0.50528903157E+02  0.30000131635E+02 0.  0.
        -12    1    1    2    0    0  0.20872210547E+02 -0.34603820362E+02 -0.44820307184E+01  0.40659096843E+02  0.00000000000E+00 0.  1.
         11    1    3    3    0    0 -0.18273385744E+02  0.68930235214E+01  0.19562008015E+01  0.19627967843E+02  0.51100000000E-03 0. -1.
        -11    1    3    3    0    0 -0.10213826851E+01 -0.13458361017E+01 -0.27108627159E-01  0.16897433358E+01  0.51100000000E-03 0.  1.
         12    1    3    3    0    0 -0.15774421180E+01  0.29056632942E+02  0.25529385440E+01  0.29211191978E+02  0.00000000000E+00 0. -1.
</event>
<event>
 7    1  0.5843820E-012  0.5052887E+02  0.7816164E-02  0.1300439E+00
        -11   -1    0    0    0    0  0.00000000000E+00  0.00000000000E+00  0.45593999997E+02  0.45594000000E+02  0.51100000000E-03 0. -1.
         11   -1    0    0    0    0 -0.00000000000E+00 -0.00000000000E+00 -0.45593999997E+02  0.45594000000E+02  0.51100000000E-03 0.  1.
    9900012    2    1    2    0    0 -0.21124940561E+02 -0.23929935779E+02  0.25184515638E+02  0.50528871037E+02  0.30000034005E+02 0.  0.
        -12    1    1    2    0    0  0.21124940561E+02  0.23929935779E+02 -0.25184515638E+02  0.40659128963E+02  0.00000000000E+00 0.  1.
         11    1    3    3    0    0  0.15679730417E+01  0.10971215686E+00 -0.37692215969E+01  0.40838227097E+01  0.51100000000E-03 0. -1.
        -11    1    3    3    0    0  0.17708824980E+01 -0.50069843192E+01  0.38708530390E+01  0.65718658162E+01  0.51100000000E-03 0.  1.
         12    1    3    3    0    0 -0.24463796101E+02 -0.19032663617E+02  0.25082884196E+02  0.39873182511E+02  0.00000000000E+00 0. -1.
</event>
<event>
 7    1  0.5843820E-012  0.5052886E+02  0.7816164E-02  0.1300439E+00
        -11   -1    0    0    0    0  0.00000000000E+00  0.00000000000E+00  0.45593999997E+02  0.45594000000E+02  0.51100000000E-03 0. -1.
         11   -1    0    0    0    0 -0.00000000000E+00 -0.00000000000E+00 -0.45593999997E+02  0.45594000000E+02  0.51100000000E-03 0.  1.
    9900012    2    1    2    0    0  0.10442288266E+02 -0.27861083600E+02  0.27710723748E+02  0.50528861123E+02  0.30000003869E+02 0.  0.
        -12    1    1    2    0    0 -0.10442288266E+02  0.27861083600E+02 -0.27710723748E+02  0.40659138877E+02  0.00000000000E+00 0.  1.
         11    1    3    3    0    0  0.14195264539E+00 -0.10901044033E+02  0.20413822330E+02  0.23142537759E+02  0.51100000000E-03 0. -1.
        -11    1    3    3    0    0  0.47309308037E+01  0.28345816338E+01  0.33346068160E+01  0.64448554822E+01  0.51100000000E-03 0.  1.
         12    1    3    3    0    0  0.55694048165E+01 -0.19794621201E+02  0.39622946017E+01  0.20941467881E+02  0.00000000000E+00 0. -1.
</event>
<event>
 7    1  0.5843820E-012  0.5052886E+02  0.7816164E-02  0.1300439E+00
        -11   -1    0    0    0    0  0.00000000000E+00  0.00000000000E+00  0.45593999997E+02  0.45594000000E+02  0.51100000000E-03 0. -1.
         11   -1    0    0    0    0 -0.00000000000E+00 -0.00000000000E+00 -0.45593999997E+02  0.45594000000E+02  0.51100000000E-03 0.  1.
    9900012    2    1    2    0    0  0.11689665403E+02  0.19769076611E+02 -0.33551471078E+02  0.50528857378E+02  0.29999992487E+02 0.  0.
         12    1    1    2    0    0 -0.11689665403E+02 -0.19769076611E+02  0.33551471078E+02  0.40659142622E+02  0.00000000000E+00 0. -1.
         11    1    3    3    0    0 -0.90419974657E+01  0.56562353239E+01 -0.62371028736E+01  0.12355248631E+02  0.51100000000E-03 0. -1.
        -11    1    3    3    0    0  0.10106638093E+02  0.11821965397E+02 -0.13492957794E+02  0.20590359630E+02  0.51100000000E-03 0.  1.
        -12    1    3    3    0    0  0.10625024775E+02  0.22908758901E+01 -0.13821410410E+02  0.17583249118E+02  0.00000000000E+00 0.  1.
</event>
<event>
 7    1  0.5843820E-012  0.5052886E+02  0.7816164E-02  0.1300439E+00
        -11   -1    0    0    0    0  0.00000000000E+00  0.00000000000E+00  0.45593999997E+02  0.45594000000E+02  0.51100000000E-03 0. -1.
         11   -1    0    0    0    0 -0.00000000000E+00 -0.00000000000E+00 -0.45593999997E+02  0.45594000000E+02  0.51100000000E-03 0.  1.
    9900012    2    1    2    0    0 -0.28629383546E+02 -0.27868634441E+02  0.75407643176E+01  0.50528861860E+02  0.30000006109E+02 0.  0.
        -12    1    1    2    0    0  0.28629383546E+02  0.27868634441E+02 -0.75407643176E+01  0.40659138140E+02  0.00000000000E+00 0.  1.
         11    1    3    3    0    0 -0.10673637747E+02 -0.12973390880E+02  0.29812287838E+00  0.16802508479E+02  0.51100000000E-03 0. -1.
        -11    1    3    3    0    0 -0.10497806137E+02 -0.20281651517E+02  0.15112748149E+01  0.22887404260E+02  0.51100000000E-03 0.  1.
        -12    1    3    3    0    0 -0.74579396624E+01  0.53864079555E+01  0.57313666243E+01  0.10838949121E+02  0.00000000000E+00 0.  1.
</event>
<event>
 7    1  0.5843820E-012  0.5052886E+02  0.7816164E-02  0.1300439E+00
        -11   -1    0    0    0    0  0.00000000000E+00  0.00000000000E+00  0.45593999997E+02  0.45594000000E+02  0.51100000000E-03 0. -1.
         11   -1    0    0    0    0 -0.00000000000E+00 -0.00000000000E+00 -0.45593999997E+02  0.45594000000E+02  0.51100000000E-03 0.  1.
    9900012    2    1    2    0    0  0.29360190319E+02  0.24824801629E+02  0.13224004226E+02  0.50528857864E+02  0.29999993964E+02 0.  0.
        -12    1    1    2    0    0 -0.29360190319E+02 -0.24824801629E+02 -0.13224004226E+02  0.40659142136E+02  0.00000000000E+00 0.  1.
         11    1    3    3    0    0  0.10428948028E+02  0.78541523727E+01  0.12143954068E+02  0.17830487574E+02  0.51100000000E-03 0.  1.
        -11    1    3    3    0    0  0.11188297860E+02  0.57804328062E+01  0.10293412463E+02  0.16264862521E+02  0.51100000000E-03 0. -1.
        -12    1    3    3    0    0  0.77429444315E+01  0.11190216450E+02 -0.92133623047E+01  0.16433507770E+02  0.00000000000E+00 0.  1.
</event>
<event>
 7    1  0.5843820E-012  0.5052887E+02  0.7816164E-02  0.1300439E+00
        -11   -1    0    0    0    0  0.00000000000E+00  0.00000000000E+00  0.45593999997E+02  0.45594000000E+02  0.51100000000E-03 0. -1.
         11   -1    0    0    0    0 -0.00000000000E+00 -0.00000000000E+00 -0.45593999997E+02  0.45594000000E+02  0.51100000000E-03 0.  1.
    9900012    2    1    2    0    0  0.13533117003E+02  0.28315600993E+02 -0.25850462393E+02  0.50528869152E+02  0.30000028274E+02 0.  0.
         12    1    1    2    0    0 -0.13533117003E+02 -0.28315600993E+02  0.25850462393E+02  0.40659130848E+02  0.00000000000E+00 0. -1.
         11    1    3    3    0    0 -0.45710676673E+01 -0.63990343837E+00 -0.57204302305E+01  0.73503372925E+01  0.51100000000E-03 0. -1.
        -11    1    3    3    0    0  0.72372760769E+01  0.11261967090E+02 -0.17817222461E+02  0.22285948134E+02  0.51100000000E-03 0.  1.
        -12    1    3    3    0    0  0.10866908593E+02  0.17693537341E+02 -0.23128097019E+01  0.20892583725E+02  0.00000000000E+00 0.  1.
</event>
<event>
 7    1  0.5843820E-012  0.5052885E+02  0.7816164E-02  0.1300439E+00
        -11   -1    0    0    0    0  0.00000000000E+00  0.00000000000E+00  0.45593999997E+02  0.45594000000E+02  0.51100000000E-03 0. -1.
         11   -1    0    0    0    0 -0.00000000000E+00 -0.00000000000E+00 -0.45593999997E+02  0.45594000000E+02  0.51100000000E-03 0.  1.
    9900012    2    1    2    0    0 -0.18848032682E+02  0.46665692898E+01 -0.35723120443E+02  0.50528849257E+02  0.29999967803E+02 0.  0.
         12    1    1    2    0    0  0.18848032682E+02 -0.46665692898E+01  0.35723120443E+02  0.40659150743E+02  0.00000000000E+00 0. -1.
         11    1    3    3    0    0  0.19101225068E+01 -0.45299476188E+00 -0.26987330066E+01  0.33372042712E+01  0.51100000000E-03 0. -1.
        -11    1    3    3    0    0 -0.99555246758E+01 -0.70771077561E+01 -0.27324884858E+02  0.29930707618E+02  0.51100000000E-03 0.  1.
        -12    1    3    3    0    0 -0.10802630513E+02  0.12196671808E+02 -0.56995025785E+01  0.17260937368E+02  0.00000000000E+00 0.  1.
</event>
<event>
 7    1  0.5843820E-012  0.5052886E+02  0.7816164E-02  0.1300439E+00
        -11   -1    0    0    0    0  0.00000000000E+00  0.00000000000E+00  0.45593999997E+02  0.45594000000E+02  0.51100000000E-03 0. -1.
         11   -1    0    0    0    0 -0.00000000000E+00 -0.00000000000E+00 -0.45593999997E+02  0.45594000000E+02  0.51100000000E-03 0.  1.
    9900012    2    1    2    0    0  0.40486269949E+01  0.27228256020E+02  0.29923177827E+02  0.50528857391E+02  0.29999992525E+02 0.  0.
        -12    1    1    2    0    0 -0.40486269949E+01 -0.27228256020E+02 -0.29923177827E+02  0.40659142609E+02  0.00000000000E+00 0.  1.
         11    1    3    3    0    0  0.11598193292E+02  0.22762399700E+02  0.14409178797E+02  0.29330348815E+02  0.51100000000E-03 0. -1.
        -11    1    3    3    0    0  0.13057225400E+01  0.19021071849E+00  0.96698893547E+01  0.97595005949E+01  0.51100000000E-03 0.  1.
        -12    1    3    3    0    0 -0.88552888367E+01  0.42756456020E+01  0.58441096750E+01  0.11439007981E+02  0.00000000000E+00 0.  1.
</event>
<event>
 7    1  0.5843820E-012  0.5052886E+02  0.7816164E-02  0.1300439E+00
        -11   -1    0    0    0    0  0.00000000000E+00  0.00000000000E+00  0.45593999997E+02  0.45594000000E+02  0.51100000000E-03 0. -1.
         11   -1    0    0    0    0 -0.00000000000E+00 -0.00000000000E+00 -0.45593999997E+02  0.45594000000E+02  0.51100000000E-03 0.  1.
    9900012    2    1    2    0    0 -0.20474746752E+02 -0.45073132854E+01  0.34837260449E+02  0.50528857815E+02  0.29999993816E+02 0.  0.
        -12    1    1    2    0    0  0.20474746752E+02  0.45073132854E+01 -0.34837260449E+02  0.40659142185E+02  0.00000000000E+00 0.  1.
         11    1    3    3    0    0 -0.13776191175E+01 -0.16591496889E+01 -0.70232172849E+00  0.22680097430E+01  0.51100000000E-03 0. -1.
        -11    1    3    3    0    0 -0.28279251331E+01 -0.10934761615E+02  0.42277170220E+01  0.12059840945E+02  0.51100000000E-03 0.  1.
         12    1    3    3    0    0 -0.16269202502E+02  0.80865980185E+01  0.31311865155E+02  0.36201007128E+02  0.00000000000E+00 0. -1.
</event>
<event>
 7    1  0.5843820E-012  0.5052886E+02  0.7816164E-02  0.1300439E+00
        -11   -1    0    0    0    0  0.00000000000E+00  0.00000000000E+00  0.45593999997E+02  0.45594000000E+02  0.51100000000E-03 0. -1.
         11   -1    0    0    0    0 -0.00000000000E+00 -0.00000000000E+00 -0.45593999997E+02  0.45594000000E+02  0.51100000000E-03 0.  1.
    9900012    2    1    2    0    0  0.17018187309E+02  0.86996501910E+01  0.35886808181E+02  0.50528860632E+02  0.30000002377E+02 0.  0.
        -12    1    1    2    0    0 -0.17018187309E+02 -0.86996501910E+01 -0.35886808181E+02  0.40659139368E+02  0.00000000000E+00 0.  1.
         11    1    3    3    0    0 -0.16332331241E+01 -0.64862614361E+01  0.15101862634E+02  0.16516818493E+02  0.51100000000E-03 0.  1.
        -11    1    3    3    0    0  0.60395767665E+01  0.18563323779E+00  0.98894512134E+01  0.11589313732E+02  0.51100000000E-03 0. -1.
         12    1    3    3    0    0  0.12611843666E+02  0.15000278389E+02  0.10895494333E+02  0.22422728406E+02  0.00000000000E+00 0. -1.
</event>
<event>
 7    1  0.5843820E-012  0.5052885E+02  0.7816164E-02  0.1300439E+00
        -11   -1    0    0    0    0  0.00000000000E+00  0.00000000000E+00  0.45593999997E+02  0.45594000000E+02  0.51100000000E-03 0. -1.
         11   -1    0    0    0    0 -0.00000000000E+00 -0.00000000000E+00 -0.45593999997E+02  0.45594000000E+02  0.51100000000E-03 0.  1.
    9900012    2    1    2    0    0  0.30965997400E+02 -0.26080140869E+02  0.37549457153E+01  0.50528851460E+02  0.29999974497E+02 0.  0.
         12    1    1    2    0    0 -0.30965997400E+02  0.26080140869E+02 -0.37549457153E+01  0.40659148540E+02  0.00000000000E+00 0. -1.
         11    1    3    3    0    0  0.22649897165E+02 -0.95750394290E+01 -0.81794911239E+01  0.25915310088E+02  0.51100000000E-03 0. -1.
        -11    1    3    3    0    0  0.19840160132E+01 -0.13651542155E+01 -0.19644563886E+01  0.31079019831E+01  0.51100000000E-03 0.  1.
        -12    1    3    3    0    0  0.63320842216E+01 -0.15139947224E+02  0.13898893228E+02  0.21505639388E+02  0.00000000000E+00 0.  1.
</event>
<event>
 7    1  0.5843820E-012  0.5052887E+02  0.7816164E-02  0.1300439E+00
        -11   -1    0    0    0    0  0.00000000000E+00  0.00000000000E+00  0.45593999997E+02  0.45594000000E+02  0.51100000000E-03 0. -1.
         11   -1    0    0    0    0 -0.00000000000E+00 -0.00000000000E+00 -0.45593999997E+02  0.45594000000E+02  0.51100000000E-03 0.  1.
    9900012    2    1    2    0    0  0.20907574653E+01  0.17356478182E+02  0.36708942343E+02  0.50528867574E+02  0.30000023478E+02 0.  0.
        -12    1    1    2    0    0 -0.20907574653E+01 -0.17356478182E+02 -0.36708942343E+02  0.40659132426E+02  0.00000000000E+00 0.  1.
         11    1    3    3    0    0  0.40046415156E+00  0.20006429047E+02  0.27312008006E+02  0.33857988073E+02  0.51100000000E-03 0. -1.
        -11    1    3    3    0    0 -0.19893842325E+01  0.47254260366E+01  0.56107711188E+01  0.76005298276E+01  0.51100000000E-03 0.  1.
         12    1    3    3    0    0  0.36796775463E+01 -0.73753769014E+01  0.37861632182E+01  0.90703496734E+01  0.00000000000E+00 0. -1.
</event>
<event>
 7    1  0.5843820E-012  0.5052887E+02  0.7816164E-02  0.1300439E+00
        -11   -1    0    0    0    0  0.00000000000E+00  0.00000000000E+00  0.45593999997E+02  0.45594000000E+02  0.51100000000E-03 0. -1.
         11   -1    0    0    0    0 -0.00000000000E+00 -0.00000000000E+00 -0.45593999997E+02  0.45594000000E+02  0.51100000000E-03 0.  1.
    9900012    2    1    2    0    0  0.15757629989E+02  0.77484436384E+01 -0.36671839715E+02  0.50528866835E+02  0.30000021230E+02 0.  0.
         12    1    1    2    0    0 -0.15757629989E+02 -0.77484436384E+01  0.36671839715E+02  0.40659133165E+02  0.00000000000E+00 0. -1.
         11    1    3    3    0    0  0.11120989885E+02  0.56272469674E+01 -0.87348284066E+01  0.15219709327E+02  0.51100000000E-03 0. -1.
        -11    1    3    3    0    0  0.35107320359E+01  0.31982568298E+01 -0.31270725751E+02  0.31629296158E+02  0.51100000000E-03 0.  1.
         12    1    3    3    0    0  0.11259080681E+01 -0.10770601589E+01  0.33337144429E+01  0.36798613494E+01  0.00000000000E+00 0. -1.
</event>
<event>
 7    1  0.5843820E-012  0.5052885E+02  0.7816164E-02  0.1300439E+00
        -11   -1    0    0    0    0  0.00000000000E+00  0.00000000000E+00  0.45593999997E+02  0.45594000000E+02  0.51100000000E-03 0. -1.
         11   -1    0    0    0    0 -0.00000000000E+00 -0.00000000000E+00 -0.45593999997E+02  0.45594000000E+02  0.51100000000E-03 0.  1.
    9900012    2    1    2    0    0 -0.33042008880E+01  0.29291891610E+02 -0.28004169425E+02  0.50528853885E+02  0.29999981869E+02 0.  0.
         12    1    1    2    0    0  0.33042008880E+01 -0.29291891610E+02  0.28004169425E+02  0.40659146115E+02  0.00000000000E+00 0. -1.
         11    1    3    3    0    0  0.11481091086E+02  0.16556347176E+02 -0.11213056627E+02  0.23057769266E+02  0.51100000000E-03 0. -1.
        -11    1    3    3    0    0 -0.63601282542E+00  0.41999274679E+01 -0.51849025576E+00  0.42793382031E+01  0.51100000000E-03 0.  1.
        -12    1    3    3    0    0 -0.14149279149E+02  0.85356169660E+01 -0.16272622542E+02  0.23191746416E+02  0.00000000000E+00 0.  1.
</event>
<event>
 7    1  0.5843820E-012  0.5052886E+02  0.7816164E-02  0.1300439E+00
        -11   -1    0    0    0    0  0.00000000000E+00  0.00000000000E+00  0.45593999997E+02  0.45594000000E+02  0.51100000000E-03 0. -1.
         11   -1    0    0    0    0 -0.00000000000E+00 -0.00000000000E+00 -0.45593999997E+02  0.45594000000E+02  0.51100000000E-03 0.  1.
    9900012    2    1    2    0    0 -0.18577237590E+02  0.15811913765E+02 -0.32527457617E+02  0.50528857457E+02  0.29999992725E+02 0.  0.
         12    1    1    2    0    0  0.18577237590E+02 -0.15811913765E+02  0.32527457617E+02  0.40659142543E+02  0.00000000000E+00 0. -1.
         11    1    3    3    0    0  0.47326211056E+00 -0.68346364797E+00 -0.22470226545E+01  0.23958736724E+01  0.51100000000E-03 0. -1.
        -11    1    3    3    0    0 -0.46085153394E+01  0.20969618830E+02 -0.22608655155E+02  0.31178752632E+02  0.51100000000E-03 0.  1.
        -12    1    3    3    0    0 -0.14441984361E+02 -0.44742414177E+01 -0.76717798070E+01  0.16954231152E+02  0.00000000000E+00 0.  1.
</event>
<event>
 7    1  0.5843820E-012  0.5052885E+02  0.7816164E-02  0.1300439E+00
        -11   -1    0    0    0    0  0.00000000000E+00  0.00000000000E+00  0.45593999997E+02  0.45594000000E+02  0.51100000000E-03 0. -1.
         11   -1    0    0    0    0 -0.00000000000E+00 -0.00000000000E+00 -0.45593999997E+02  0.45594000000E+02  0.51100000000E-03 0.  1.
    9900012    2    1    2    0    0 -0.28552337750E+02 -0.52673284786E+01 -0.28463756060E+02  0.50528854051E+02  0.29999982372E+02 0.  0.
         12    1    1    2    0    0  0.28552337750E+02  0.52673284786E+01  0.28463756060E+02  0.40659145949E+02  0.00000000000E+00 0. -1.
         11    1    3    3    0    0 -0.88822222146E+01 -0.72175613393E+01 -0.21142165755E+02  0.24041177930E+02  0.51100000000E-03 0. -1.
        -11    1    3    3    0    0 -0.45617870792E+01 -0.32109736650E+01 -0.88368376912E+01  0.10450356639E+02  0.51100000000E-03 0.  1.
         12    1    3    3    0    0 -0.15108328456E+02  0.51612065257E+01  0.15152473865E+01  0.16037319482E+02  0.00000000000E+00 0. -1.
</event>
<event>
 7    1  0.5843820E-012  0.5052886E+02  0.7816164E-02  0.1300439E+00
        -11   -1    0    0    0    0  0.00000000000E+00  0.00000000000E+00  0.45593999997E+02  0.45594000000E+02  0.51100000000E-03 0. -1.
         11   -1    0    0    0    0 -0.00000000000E+00 -0.00000000000E+00 -0.45593999997E+02  0.45594000000E+02  0.51100000000E-03 0.  1.
    9900012    2    1    2    0    0 -0.44982965082E+01 -0.33824824557E+02  0.22109091636E+02  0.50528863748E+02  0.30000011848E+02 0.  0.
        -12    1    1    2    0    0  0.44982965082E+01  0.33824824557E+02 -0.22109091636E+02  0.40659136252E+02  0.00000000000E+00 0.  1.
         11    1    3    3    0    0  0.60741875932E+01 -0.49266657178E+01  0.12237085588E+02  0.14522880360E+02  0.51100000000E-03 0. -1.
        -11    1    3    3    0    0  0.28625621923E+01 -0.11225459331E+02 -0.29606761760E+00  0.11588479443E+02  0.51100000000E-03 0.  1.
         12    1    3    3    0    0 -0.13435046294E+02 -0.17672699508E+02  0.10168073666E+02  0.24417503945E+02  0.00000000000E+00 0. -1.
</event>
<event>
 7    1  0.5843820E-012  0.5052887E+02  0.7816164E-02  0.1300439E+00
        -11   -1    0    0    0    0  0.00000000000E+00  0.00000000000E+00  0.45593999997E+02  0.45594000000E+02  0.51100000000E-03 0. -1.
         11   -1    0    0    0    0 -0.00000000000E+00 -0.00000000000E+00 -0.45593999997E+02  0.45594000000E+02  0.51100000000E-03 0.  1.
    9900012    2    1    2    0    0 -0.24836736035E+01 -0.25363279823E+02  0.31681224433E+02  0.50528873355E+02  0.30000041048E+02 0.  0.
        -12    1    1    2    0    0  0.24836736035E+01  0.25363279823E+02 -0.31681224433E+02  0.40659126645E+02  0.00000000000E+00 0.  1.
         11    1    3    3    0    0 -0.68302695179E+01  0.87194294976E+00  0.29518688365E+01  0.74917552072E+01  0.51100000000E-03 0. -1.
        -11    1    3    3    0    0 -0.42820253696E+00  0.71800482653E+00 -0.18293972142E+01  0.20113634113E+01  0.51100000000E-03 0.  1.
         12    1    3    3    0    0  0.47747984514E+01 -0.26953227600E+02  0.30558752811E+02  0.41025754736E+02  0.00000000000E+00 0. -1.
</event>
<event>
 7    1  0.5843820E-012  0.5052889E+02  0.7816164E-02  0.1300439E+00
        -11   -1    0    0    0    0  0.00000000000E+00  0.00000000000E+00  0.45593999997E+02  0.45594000000E+02  0.51100000000E-03 0. -1.
         11   -1    0    0    0    0 -0.00000000000E+00 -0.00000000000E+00 -0.45593999997E+02  0.45594000000E+02  0.51100000000E-03 0.  1.
    9900012    2    1    2    0    0  0.39867157515E+02  0.60132404133E+00 -0.79631058167E+01  0.50528894093E+02  0.30000104085E+02 0.  0.
         12    1    1    2    0    0 -0.39867157515E+02 -0.60132404133E+00  0.79631058167E+01  0.40659105907E+02  0.00000000000E+00 0. -1.
         11    1    3    3    0    0  0.28518271362E+02  0.10434196140E+02 -0.60735870371E+01  0.30968576176E+02  0.51100000000E-03 0. -1.
        -11    1    3    3    0    0  0.13814286761E+02 -0.67920945756E+01 -0.25092729900E+01  0.15596907342E+02  0.51100000000E-03 0.  1.
        -12    1    3    3    0    0 -0.24654006085E+01 -0.30407775236E+01  0.61975421040E+00  0.39634105755E+01  0.00000000000E+00 0.  1.
</event>
<event>
 7    1  0.5843820E-012  0.5052885E+02  0.7816164E-02  0.1300439E+00
        -11   -1    0    0    0    0  0.00000000000E+00  0.00000000000E+00  0.45593999997E+02  0.45594000000E+02  0.51100000000E-03 0. -1.
         11   -1    0    0    0    0 -0.00000000000E+00 -0.00000000000E+00 -0.45593999997E+02  0.45594000000E+02  0.51100000000E-03 0.  1.
    9900012    2    1    2    0    0 -0.30426683656E+02 -0.15336577987E+02 -0.22184962513E+02  0.50528852636E+02  0.29999978073E+02 0.  0.
         12    1    1    2    0    0  0.30426683656E+02  0.15336577987E+02  0.22184962513E+02  0.40659147364E+02  0.00000000000E+00 0. -1.
         11    1    3    3    0    0 -0.32028924685E+01  0.13655473065E+01 -0.11483999160E+02  0.12000228189E+02  0.51100000000E-03 0. -1.
        -11    1    3    3    0    0 -0.31875271998E+01  0.40383825152E+01 -0.43806153486E+00  0.51634059649E+01  0.51100000000E-03 0.  1.
        -12    1    3    3    0    0 -0.24036263988E+02 -0.20740507808E+02 -0.10262901818E+02  0.33365218482E+02  0.00000000000E+00 0.  1.
</event>
<event>
 7    1  0.5843820E-012  0.5052888E+02  0.7816164E-02  0.1300439E+00
        -11   -1    0    0    0    0  0.00000000000E+00  0.00000000000E+00  0.45593999997E+02  0.45594000000E+02  0.51100000000E-03 0. -1.
         11   -1    0    0    0    0 -0.00000000000E+00 -0.00000000000E+00 -0.45593999997E+02  0.45594000000E+02  0.51100000000E-03 0.  1.
    9900012    2    1    2    0    0 -0.20327224607E+00  0.52205847647E+01 -0.40322060226E+02  0.50528875984E+02  0.30000049041E+02 0.  0.
         12    1    1    2    0    0  0.20327224607E+00 -0.52205847647E+01  0.40322060226E+02  0.40659124016E+02  0.00000000000E+00 0. -1.
         11    1    3    3    0    0 -0.11860802021E+02  0.81815890574E+01 -0.23907226070E+02  0.27913661220E+02  0.51100000000E-03 0. -1.
        -11    1    3    3    0    0  0.45263124458E+01 -0.37540992844E+01 -0.13761276044E+02  0.14965075490E+02  0.51100000000E-03 0.  1.
        -12    1    3    3    0    0  0.71312173291E+01  0.79309499173E+00 -0.26535581112E+01  0.76501392739E+01  0.00000000000E+00 0.  1.
</event>
<event>
 7    1  0.5843820E-012  0.5052887E+02  0.7816164E-02  0.1300439E+00
        -11   -1    0    0    0    0  0.00000000000E+00  0.00000000000E+00  0.45593999997E+02  0.45594000000E+02  0.51100000000E-03 0. -1.
         11   -1    0    0    0    0 -0.00000000000E+00 -0.00000000000E+00 -0.45593999997E+02  0.45594000000E+02  0.51100000000E-03 0.  1.
    9900012    2    1    2    0    0  0.12978262055E+02 -0.26990073417E+02 -0.27500288137E+02  0.50528865767E+02  0.30000017984E+02 0.  0.
         12    1    1    2    0    0 -0.12978262055E+02  0.26990073417E+02  0.27500288137E+02  0.40659134233E+02  0.00000000000E+00 0. -1.
         11    1    3    3    0    0  0.80915696678E+01 -0.94001917533E+01 -0.13793032711E+02  0.18549524423E+02  0.51100000000E-03 0. -1.
        -11    1    3    3    0    0  0.29269425284E+01 -0.22659810942E+02 -0.82906909498E+01  0.24305752019E+02  0.51100000000E-03 0.  1.
         12    1    3    3    0    0  0.19597498584E+01  0.50699292791E+01 -0.54165644761E+01  0.76735893248E+01  0.00000000000E+00 0. -1.
</event>
<event>
 7    1  0.5843820E-012  0.5052886E+02  0.7816164E-02  0.1300439E+00
        -11   -1    0    0    0    0  0.00000000000E+00  0.00000000000E+00  0.45593999997E+02  0.45594000000E+02  0.51100000000E-03 0. -1.
         11   -1    0    0    0    0 -0.00000000000E+00 -0.00000000000E+00 -0.45593999997E+02  0.45594000000E+02  0.51100000000E-03 0.  1.
    9900012    2    1    2    0    0 -0.16236565518E+01 -0.99973942074E+01 -0.39377422336E+02  0.50528861527E+02  0.30000005097E+02 0.  0.
         12    1    1    2    0    0  0.16236565518E+01  0.99973942074E+01  0.39377422336E+02  0.40659138473E+02  0.00000000000E+00 0. -1.
         11    1    3    3    0    0  0.76963838520E+01  0.53403354783E+01 -0.15825926963E+02  0.18390581065E+02  0.51100000000E-03 0. -1.
        -11    1    3    3    0    0  0.29356590120E+01 -0.26809067013E+01 -0.65031486386E+01  0.76220926951E+01  0.51100000000E-03 0.  1.
         12    1    3    3    0    0 -0.12255699416E+02 -0.12656822984E+02 -0.17048346734E+02  0.24516187767E+02  0.00000000000E+00 0. -1.
</event>
<event>
 7    1  0.5843820E-012  0.5052886E+02  0.7816164E-02  0.1300439E+00
        -11   -1    0    0    0    0  0.00000000000E+00  0.00000000000E+00  0.45593999997E+02  0.45594000000E+02  0.51100000000E-03 0. -1.
         11   -1    0    0    0    0 -0.00000000000E+00 -0.00000000000E+00 -0.45593999997E+02  0.45594000000E+02  0.51100000000E-03 0.  1.
    9900012    2    1    2    0    0 -0.16182079830E+02 -0.29497481973E+01  0.37183395023E+02  0.50528860960E+02  0.30000003374E+02 0.  0.
        -12    1    1    2    0    0  0.16182079830E+02  0.29497481973E+01 -0.37183395023E+02  0.40659139040E+02  0.00000000000E+00 0.  1.
         11    1    3    3    0    0  0.34996835716E+00 -0.78440719543E-01  0.65270135069E+01  0.65368598255E+01  0.51100000000E-03 0. -1.
        -11    1    3    3    0    0 -0.52379864505E+01 -0.13975669515E+02  0.19777406028E+02  0.24777038360E+02  0.51100000000E-03 0.  1.
        -12    1    3    3    0    0 -0.11294061737E+02  0.11104362037E+02  0.10878975488E+02  0.19214962774E+02  0.00000000000E+00 0.  1.
</event>
<event>
 7    1  0.5843820E-012  0.5052887E+02  0.7816164E-02  0.1300439E+00
        -11   -1    0    0    0    0  0.00000000000E+00  0.00000000000E+00  0.45593999997E+02  0.45594000000E+02  0.51100000000E-03 0. -1.
         11   -1    0    0    0    0 -0.00000000000E+00 -0.00000000000E+00 -0.45593999997E+02  0.45594000000E+02  0.51100000000E-03 0.  1.
    9900012    2    1    2    0    0  0.21827032414E+02  0.14753148126E+02 -0.30969176593E+02  0.50528872827E+02  0.30000039445E+02 0.  0.
         12    1    1    2    0    0 -0.21827032414E+02 -0.14753148126E+02  0.30969176593E+02  0.40659127173E+02  0.00000000000E+00 0. -1.
         11    1    3    3    0    0  0.35651017108E+01 -0.13631501941E+01 -0.39046092129E+00  0.38367419319E+01  0.51100000000E-03 0. -1.
        -11    1    3    3    0    0  0.20310213647E+02  0.33329837607E+01 -0.25537096457E+02  0.32798732519E+02  0.51100000000E-03 0.  1.
         12    1    3    3    0    0 -0.20482829430E+01  0.12783314560E+02 -0.50416192145E+01  0.13893398377E+02  0.00000000000E+00 0. -1.
</event>
<event>
 7    1  0.5843820E-012  0.5052886E+02  0.7816164E-02  0.1300439E+00
        -11   -1    0    0    0    0  0.00000000000E+00  0.00000000000E+00  0.45593999997E+02  0.45594000000E+02  0.51100000000E-03 0. -1.
         11   -1    0    0    0    0 -0.00000000000E+00 -0.00000000000E+00 -0.45593999997E+02  0.45594000000E+02  0.51100000000E-03 0.  1.
    9900012    2    1    2    0    0  0.31532749660E+02 -0.32012789202E+01  0.25467689290E+02  0.50528859753E+02  0.29999999706E+02 0.  0.
        -12    1    1    2    0    0 -0.31532749660E+02  0.32012789202E+01 -0.25467689290E+02  0.40659140247E+02  0.00000000000E+00 0.  1.
         11    1    3    3    0    0  0.21512743131E+02  0.24498247176E+01  0.17893129056E+02  0.28088499886E+02  0.51100000000E-03 0. -1.
        -11    1    3    3    0    0  0.61787763015E+01 -0.49082615300E+01  0.13324370422E+02  0.15485708096E+02  0.51100000000E-03 0.  1.
        -12    1    3    3    0    0  0.38412302267E+01 -0.74284210781E+00 -0.57498101883E+01  0.69546517708E+01  0.00000000000E+00 0.  1.
</event>
<event>
 7    1  0.5843820E-012  0.5052886E+02  0.7816164E-02  0.1300439E+00
        -11   -1    0    0    0    0  0.00000000000E+00  0.00000000000E+00  0.45593999997E+02  0.45594000000E+02  0.51100000000E-03 0. -1.
         11   -1    0    0    0    0 -0.00000000000E+00 -0.00000000000E+00 -0.45593999997E+02  0.45594000000E+02  0.51100000000E-03 0.  1.
    9900012    2    1    2    0    0 -0.14212277685E+02  0.10098134488E+02  0.36731524241E+02  0.50528855516E+02  0.29999986826E+02 0.  0.
        -12    1    1    2    0    0  0.14212277685E+02 -0.10098134488E+02 -0.36731524241E+02  0.40659144484E+02  0.00000000000E+00 0.  1.
         11    1    3    3    0    0 -0.32316693378E+00  0.42284786205E+01  0.65341059590E+01  0.77896732444E+01  0.51100000000E-03 0. -1.
        -11    1    3    3    0    0 -0.39286655728E+01  0.71589246289E+01 -0.24950599811E+01  0.85387317322E+01  0.51100000000E-03 0.  1.
         12    1    3    3    0    0 -0.99604451783E+01 -0.12892687617E+01  0.32692478263E+02  0.34200450539E+02  0.00000000000E+00 0. -1.
</event>
<event>
 7    1  0.5843820E-012  0.5052885E+02  0.7816164E-02  0.1300439E+00
        -11   -1    0    0    0    0  0.00000000000E+00  0.00000000000E+00  0.45593999997E+02  0.45594000000E+02  0.51100000000E-03 0. -1.
         11   -1    0    0    0    0 -0.00000000000E+00 -0.00000000000E+00 -0.45593999997E+02  0.45594000000E+02  0.51100000000E-03 0.  1.
    9900012    2    1    2    0    0  0.29836901093E+02 -0.66714775348E+01  0.26803299124E+02  0.50528854371E+02  0.29999983347E+02 0.  0.
        -12    1    1    2    0    0 -0.29836901093E+02  0.66714775348E+01 -0.26803299124E+02  0.40659145629E+02  0.00000000000E+00 0.  1.
         11    1    3    3    0    0  0.44299660609E+01  0.96081245135E+00  0.40658580340E+00  0.45511616258E+01  0.51100000000E-03 0. -1.
        -11    1    3    3    0    0  0.25199915778E+01 -0.72933237809E+01 -0.33764789751E+01  0.84227988137E+01  0.51100000000E-03 0.  1.
         12    1    3    3    0    0  0.22886943454E+02 -0.33896620526E+00  0.29773192296E+02  0.37554893932E+02  0.00000000000E+00 0. -1.
</event>
<event>
 7    1  0.5843820E-012  0.5052885E+02  0.7816164E-02  0.1300439E+00
        -11   -1    0    0    0    0  0.00000000000E+00  0.00000000000E+00  0.45593999997E+02  0.45594000000E+02  0.51100000000E-03 0. -1.
         11   -1    0    0    0    0 -0.00000000000E+00 -0.00000000000E+00 -0.45593999997E+02  0.45594000000E+02  0.51100000000E-03 0.  1.
    9900012    2    1    2    0    0 -0.48135487000E+01 -0.13157537523E+02  0.38169032444E+02  0.50528854872E+02  0.29999984870E+02 0.  0.
        -12    1    1    2    0    0  0.48135487000E+01  0.13157537523E+02 -0.38169032444E+02  0.40659145128E+02  0.00000000000E+00 0.  1.
         11    1    3    3    0    0 -0.14996169259E+02 -0.15611512685E+01  0.27597502801E+02  0.31447487130E+02  0.51100000000E-03 0. -1.
        -11    1    3    3    0    0  0.11952819330E+01 -0.92877799279E-01  0.31237488783E+00  0.12389122312E+01  0.51100000000E-03 0.  1.
        -12    1    3    3    0    0  0.89873386258E+01 -0.11503508455E+02  0.10259154756E+02  0.17842455511E+02  0.00000000000E+00 0.  1.
</event>
<event>
 7    1  0.5843820E-012  0.5052885E+02  0.7816164E-02  0.1300439E+00
        -11   -1    0    0    0    0  0.00000000000E+00  0.00000000000E+00  0.45593999997E+02  0.45594000000E+02  0.51100000000E-03 0. -1.
         11   -1    0    0    0    0 -0.00000000000E+00 -0.00000000000E+00 -0.45593999997E+02  0.45594000000E+02  0.51100000000E-03 0.  1.
    9900012    2    1    2    0    0 -0.18732711832E+02  0.50041143082E+01 -0.35738081215E+02  0.50528854639E+02  0.29999984160E+02 0.  0.
         12    1    1    2    0    0  0.18732711832E+02 -0.50041143082E+01  0.35738081215E+02  0.40659145361E+02  0.00000000000E+00 0. -1.
         11    1    3    3    0    0  0.33212070300E+01  0.24226636736E+00  0.16245484697E+01  0.37051676238E+01  0.51100000000E-03 0. -1.
        -11    1    3    3    0    0  0.24074962005E+01  0.24056783827E+01 -0.68203684056E+01  0.76223849211E+01  0.51100000000E-03 0.  1.
         12    1    3    3    0    0 -0.24461415062E+02  0.23561695582E+01 -0.30542261279E+02  0.39201302094E+02  0.00000000000E+00 0. -1.
</event>
<event>
 7    1  0.5843820E-012  0.5052885E+02  0.7816164E-02  0.1300439E+00
        -11   -1    0    0    0    0  0.00000000000E+00  0.00000000000E+00  0.45593999997E+02  0.45594000000E+02  0.51100000000E-03 0. -1.
         11   -1    0    0    0    0 -0.00000000000E+00 -0.00000000000E+00 -0.45593999997E+02  0.45594000000E+02  0.51100000000E-03 0.  1.
    9900012    2    1    2    0    0 -0.15486098564E+02 -0.11481550174E+02 -0.35798337408E+02  0.50528853375E+02  0.29999980319E+02 0.  0.
         12    1    1    2    0    0  0.15486098564E+02  0.11481550174E+02  0.35798337408E+02  0.40659146625E+02  0.00000000000E+00 0. -1.
         11    1    3    3    0    0 -0.69245576109E+01  0.74726015383E+01 -0.13026300648E+02  0.16537042683E+02  0.51100000000E-03 0. -1.
        -11    1    3    3    0    0 -0.17675846287E+01  0.10454432951E+01 -0.78916703218E+01  0.81544937202E+01  0.51100000000E-03 0.  1.
        -12    1    3    3    0    0 -0.67939563241E+01 -0.19999595008E+02 -0.14880366438E+02  0.25837316972E+02  0.00000000000E+00 0.  1.
</event>
<event>
 7    1  0.5843820E-012  0.5052886E+02  0.7816164E-02  0.1300439E+00
        -11   -1    0    0    0    0  0.00000000000E+00  0.00000000000E+00  0.45593999997E+02  0.45594000000E+02  0.51100000000E-03 0. -1.
         11   -1    0    0    0    0 -0.00000000000E+00 -0.00000000000E+00 -0.45593999997E+02  0.45594000000E+02  0.51100000000E-03 0.  1.
    9900012    2    1    2    0    0  0.27831251446E+02 -0.24935938307E+02  0.16024558163E+02  0.50528855387E+02  0.29999986435E+02 0.  0.
        -12    1    1    2    0    0 -0.27831251446E+02  0.24935938307E+02 -0.16024558163E+02  0.40659144613E+02  0.00000000000E+00 0.  1.
         11    1    3    3    0    0  0.24558651551E+02 -0.12189545365E+02  0.84044003330E+01  0.28676581516E+02  0.51100000000E-03 0. -1.
        -11    1    3    3    0    0  0.67402557918E+01  0.30915180546E-01  0.35330689609E+00  0.67495799804E+01  0.51100000000E-03 0.  1.
        -12    1    3    3    0    0 -0.34676558968E+01 -0.12777308122E+02  0.72668509342E+01  0.15102693891E+02  0.00000000000E+00 0.  1.
</event>
<event>
 7    1  0.5843820E-012  0.5052887E+02  0.7816164E-02  0.1300439E+00
        -11   -1    0    0    0    0  0.00000000000E+00  0.00000000000E+00  0.45593999997E+02  0.45594000000E+02  0.51100000000E-03 0. -1.
         11   -1    0    0    0    0 -0.00000000000E+00 -0.00000000000E+00 -0.45593999997E+02  0.45594000000E+02  0.51100000000E-03 0.  1.
    9900012    2    1    2    0    0  0.95022345315E+01 -0.30097713668E+02 -0.25632019294E+02  0.50528865206E+02  0.30000016279E+02 0.  0.
         12    1    1    2    0    0 -0.95022345315E+01  0.30097713668E+02  0.25632019294E+02  0.40659134794E+02  0.00000000000E+00 0. -1.
         11    1    3    3    0    0 -0.19512601097E+01  0.43065646879E+01 -0.31970032227E+01  0.57074289565E+01  0.51100000000E-03 0. -1.
        -11    1    3    3    0    0  0.12857998155E+01  0.73887646745E+00 -0.31125051299E+01  0.34477395558E+01  0.51100000000E-03 0.  1.
        -12    1    3    3    0    0  0.10167694826E+02 -0.35143154823E+02 -0.19322510942E+02  0.41373696693E+02  0.00000000000E+00 0.  1.
</event>
<event>
 7    1  0.5843820E-012  0.5052886E+02  0.7816164E-02  0.1300439E+00
        -11   -1    0    0    0    0  0.00000000000E+00  0.00000000000E+00  0.45593999997E+02  0.45594000000E+02  0.51100000000E-03 0. -1.
         11   -1    0    0    0    0 -0.00000000000E+00 -0.00000000000E+00 -0.45593999997E+02  0.45594000000E+02  0.51100000000E-03 0.  1.
    9900012    2    1    2    0    0 -0.13687760666E+02 -0.32465322360E+02 -0.20293195643E+02  0.50528859116E+02  0.29999997769E+02 0.  0.
         12    1    1    2    0    0  0.13687760666E+02  0.32465322360E+02  0.20293195643E+02  0.40659140884E+02  0.00000000000E+00 0. -1.
         11    1    3    3    0    0  0.53910611005E+01 -0.38710031332E+01 -0.67312956102E+01  0.94529649264E+01  0.51100000000E-03 0. -1.
        -11    1    3    3    0    0  0.35516545630E+01 -0.40422693658E+01 -0.19743227272E+01  0.57316788337E+01  0.51100000000E-03 0.  1.
         12    1    3    3    0    0 -0.22630476330E+02 -0.24552049861E+02 -0.11587577306E+02  0.35344215356E+02  0.00000000000E+00 0. -1.
</event>
<event>
 7    1  0.5843820E-012  0.5052886E+02  0.7816164E-02  0.1300439E+00
        -11   -1    0    0    0    0  0.00000000000E+00  0.00000000000E+00  0.45593999997E+02  0.45594000000E+02  0.51100000000E-03 0. -1.
         11   -1    0    0    0    0 -0.00000000000E+00 -0.00000000000E+00 -0.45593999997E+02  0.45594000000E+02  0.51100000000E-03 0.  1.
    9900012    2    1    2    0    0 -0.11616846032E+02  0.18733143517E+02 -0.34165534296E+02  0.50528861894E+02  0.30000006214E+02 0.  0.
         12    1    1    2    0    0  0.11616846032E+02 -0.18733143517E+02  0.34165534296E+02  0.40659138106E+02  0.00000000000E+00 0. -1.
         11    1    3    3    0    0  0.88571698354E-01  0.11096168258E+02 -0.23676308197E+01  0.11346297674E+02  0.51100000000E-03 0. -1.
        -11    1    3    3    0    0  0.72413106485E+00  0.78184614542E+01 -0.21985597390E+02  0.23345646236E+02  0.51100000000E-03 0.  1.
        -12    1    3    3    0    0 -0.12429548796E+02 -0.18148619479E+00 -0.98123060857E+01  0.15836917984E+02  0.00000000000E+00 0.  1.
</event>
<event>
 7    1  0.5843820E-012  0.5052891E+02  0.7816164E-02  0.1300439E+00
        -11   -1    0    0    0    0  0.00000000000E+00  0.00000000000E+00  0.45593999997E+02  0.45594000000E+02  0.51100000000E-03 0. -1.
         11   -1    0    0    0    0 -0.00000000000E+00 -0.00000000000E+00 -0.45593999997E+02  0.45594000000E+02  0.51100000000E-03 0.  1.
    9900012    2    1    2    0    0 -0.37637812309E+02 -0.83729497435E+01 -0.12901579607E+02  0.50528905579E+02  0.30000138996E+02 0.  0.
         12    1    1    2    0    0  0.37637812309E+02  0.83729497435E+01  0.12901579607E+02  0.40659094421E+02  0.00000000000E+00 0. -1.
         11    1    3    3    0    0 -0.16918184949E+02 -0.11186437937E+02 -0.11602952381E+01  0.20315207629E+02  0.51100000000E-03 0.  1.
        -11    1    3    3    0    0 -0.41393731934E+01 -0.54419361324E+01 -0.92833687546E+01  0.11529527961E+02  0.51100000000E-03 0. -1.
         12    1    3    3    0    0 -0.16580254166E+02  0.82554243258E+01 -0.24579156140E+01  0.18684169989E+02  0.00000000000E+00 0. -1.
</event>
<event>
 7    1  0.5843820E-012  0.5052884E+02  0.7816164E-02  0.1300439E+00
        -11   -1    0    0    0    0  0.00000000000E+00  0.00000000000E+00  0.45593999997E+02  0.45594000000E+02  0.51100000000E-03 0.  1.
         11   -1    0    0    0    0 -0.00000000000E+00 -0.00000000000E+00 -0.45593999997E+02  0.45594000000E+02  0.51100000000E-03 0. -1.
    9900012    2    1    2    0    0 -0.67488890802E+01 -0.40058332466E+02 -0.17175890271E+01  0.50528836017E+02  0.29999927556E+02 0.  0.
        -12    1    1    2    0    0  0.67488890802E+01  0.40058332466E+02  0.17175890271E+01  0.40659163983E+02  0.00000000000E+00 0.  1.
         11    1    3    3    0    0 -0.38315412926E+01 -0.22058685550E+01 -0.74828576184E+01  0.86913591087E+01  0.51100000000E-03 0. -1.
        -11    1    3    3    0    0 -0.41691765846E+01 -0.12752755669E+02  0.94873580955E+01  0.16432430570E+02  0.51100000000E-03 0.  1.
         12    1    3    3    0    0  0.12518287969E+01 -0.25099708242E+02 -0.37220895041E+01  0.25405046338E+02  0.00000000000E+00 0. -1.
</event>
<event>
 7    1  0.5843820E-012  0.5052886E+02  0.7816164E-02  0.1300439E+00
        -11   -1    0    0    0    0  0.00000000000E+00  0.00000000000E+00  0.45593999997E+02  0.45594000000E+02  0.51100000000E-03 0. -1.
         11   -1    0    0    0    0 -0.00000000000E+00 -0.00000000000E+00 -0.45593999997E+02  0.45594000000E+02  0.51100000000E-03 0.  1.
    9900012    2    1    2    0    0 -0.23836009130E+02  0.18186382971E+02 -0.27463893608E+02  0.50528864386E+02  0.30000013787E+02 0.  0.
         12    1    1    2    0    0  0.23836009130E+02 -0.18186382971E+02  0.27463893608E+02  0.40659135614E+02  0.00000000000E+00 0. -1.
         11    1    3    3    0    0 -0.61599776466E+01  0.18380792976E+02 -0.91765900739E+01  0.21447812958E+02  0.51100000000E-03 0. -1.
        -11    1    3    3    0    0 -0.81216538615E+01  0.65783601849E+01 -0.57669412730E+01  0.11937072341E+02  0.51100000000E-03 0.  1.
        -12    1    3    3    0    0 -0.95543776220E+01 -0.67727701900E+01 -0.12520362261E+02  0.17143979087E+02  0.00000000000E+00 0.  1.
</event>
<event>
 7    1  0.5843820E-012  0.5052887E+02  0.7816164E-02  0.1300439E+00
        -11   -1    0    0    0    0  0.00000000000E+00  0.00000000000E+00  0.45593999997E+02  0.45594000000E+02  0.51100000000E-03 0. -1.
         11   -1    0    0    0    0 -0.00000000000E+00 -0.00000000000E+00 -0.45593999997E+02  0.45594000000E+02  0.51100000000E-03 0.  1.
    9900012    2    1    2    0    0  0.79976873923E+01 -0.49036564577E+01  0.39562051973E+02  0.50528870563E+02  0.30000032563E+02 0.  0.
        -12    1    1    2    0    0 -0.79976873923E+01  0.49036564577E+01 -0.39562051973E+02  0.40659129437E+02  0.00000000000E+00 0.  1.
         11    1    3    3    0    0  0.65346328077E+01 -0.12136046167E+02  0.12679895069E+02  0.18728715431E+02  0.51100000000E-03 0. -1.
        -11    1    3    3    0    0 -0.61746865867E+01  0.49021053324E+01  0.76913047538E+01  0.11014243515E+02  0.51100000000E-03 0.  1.
         12    1    3    3    0    0  0.76377411713E+01  0.23302843765E+01  0.19190852151E+02  0.20785911617E+02  0.00000000000E+00 0. -1.
</event>
<event>
 7    1  0.5843820E-012  0.5052886E+02  0.7816164E-02  0.1300439E+00
        -11   -1    0    0    0    0  0.00000000000E+00  0.00000000000E+00  0.45593999997E+02  0.45594000000E+02  0.51100000000E-03 0. -1.
         11   -1    0    0    0    0 -0.00000000000E+00 -0.00000000000E+00 -0.45593999997E+02  0.45594000000E+02  0.51100000000E-03 0.  1.
    9900012    2    1    2    0    0 -0.11279381318E+02  0.71244140359E+01 -0.38408126181E+02  0.50528857424E+02  0.29999992625E+02 0.  0.
         12    1    1    2    0    0  0.11279381318E+02 -0.71244140359E+01  0.38408126181E+02  0.40659142576E+02  0.00000000000E+00 0. -1.
         11    1    3    3    0    0 -0.71579082475E+00  0.21059102988E+00 -0.52992774455E+01  0.53515462057E+01  0.51100000000E-03 0. -1.
        -11    1    3    3    0    0 -0.31918885706E+01  0.63095089419E+01 -0.36400919748E+02  0.37081329729E+02  0.51100000000E-03 0.  1.
         12    1    3    3    0    0 -0.73717019228E+01  0.60431406413E+00  0.32920710117E+01  0.80959814892E+01  0.00000000000E+00 0. -1.
</event>
<event>
 7    1  0.5843820E-012  0.5052887E+02  0.7816164E-02  0.1300439E+00
        -11   -1    0    0    0    0  0.00000000000E+00  0.00000000000E+00  0.45593999997E+02  0.45594000000E+02  0.51100000000E-03 0. -1.
         11   -1    0    0    0    0 -0.00000000000E+00 -0.00000000000E+00 -0.45593999997E+02  0.45594000000E+02  0.51100000000E-03 0.  1.
    9900012    2    1    2    0    0  0.19433200067E+02  0.73531040033E+01  0.34949217083E+02  0.50528865995E+02  0.30000018677E+02 0.  0.
        -12    1    1    2    0    0 -0.19433200067E+02 -0.73531040033E+01 -0.34949217083E+02  0.40659134005E+02  0.00000000000E+00 0.  1.
         11    1    3    3    0    0 -0.59952184361E+00  0.73947243844E+01  0.69985165335E+01  0.10199049421E+02  0.51100000000E-03 0. -1.
        -11    1    3    3    0    0  0.18483553591E+02  0.35964511629E+01  0.88177207572E+01  0.20792508602E+02  0.51100000000E-03 0.  1.
         12    1    3    3    0    0  0.15491683189E+01 -0.36380715440E+01  0.19132979793E+02  0.19537307972E+02  0.00000000000E+00 0. -1.
</event>
<event>
 7    1  0.5843820E-012  0.5052886E+02  0.7816164E-02  0.1300439E+00
        -11   -1    0    0    0    0  0.00000000000E+00  0.00000000000E+00  0.45593999997E+02  0.45594000000E+02  0.51100000000E-03 0. -1.
         11   -1    0    0    0    0 -0.00000000000E+00 -0.00000000000E+00 -0.45593999997E+02  0.45594000000E+02  0.51100000000E-03 0.  1.
    9900012    2    1    2    0    0 -0.22475012315E+02  0.62462142867E+01  0.33302019754E+02  0.50528857225E+02  0.29999992021E+02 0.  0.
        -12    1    1    2    0    0  0.22475012315E+02 -0.62462142867E+01 -0.33302019754E+02  0.40659142775E+02  0.00000000000E+00 0.  1.
         11    1    3    3    0    0 -0.36282661972E+01  0.21122623155E+01  0.48413295269E+01  0.64081541442E+01  0.51100000000E-03 0. -1.
        -11    1    3    3    0    0 -0.20796160234E+02  0.10183480537E+02  0.11190157467E+02  0.25717760025E+02  0.51100000000E-03 0.  1.
         12    1    3    3    0    0  0.19494141160E+01 -0.60495285659E+01  0.17270532761E+02  0.18402943055E+02  0.00000000000E+00 0. -1.
</event>
<event>
 7    1  0.5843820E-012  0.5052886E+02  0.7816164E-02  0.1300439E+00
        -11   -1    0    0    0    0  0.00000000000E+00  0.00000000000E+00  0.45593999997E+02  0.45594000000E+02  0.51100000000E-03 0. -1.
         11   -1    0    0    0    0 -0.00000000000E+00 -0.00000000000E+00 -0.45593999997E+02  0.45594000000E+02  0.51100000000E-03 0.  1.
    9900012    2    1    2    0    0 -0.11342097581E+02 -0.39358004499E+00  0.39043153968E+02  0.50528856446E+02  0.29999989652E+02 0.  0.
        -12    1    1    2    0    0  0.11342097581E+02  0.39358004499E+00 -0.39043153968E+02  0.40659143554E+02  0.00000000000E+00 0.  1.
         11    1    3    3    0    0 -0.14426001355E+02 -0.27542220957E+01  0.97033193700E+01  0.17602547017E+02  0.51100000000E-03 0. -1.
        -11    1    3    3    0    0  0.52746194423E+01  0.89198100221E+00  0.24094564691E+01  0.58670879580E+01  0.51100000000E-03 0.  1.
        -12    1    3    3    0    0 -0.21907156687E+01  0.14686610485E+01  0.26930378129E+02  0.27059221470E+02  0.00000000000E+00 0.  1.
</event>
<event>
 7    1  0.5843820E-012  0.5052886E+02  0.7816164E-02  0.1300439E+00
        -11   -1    0    0    0    0  0.00000000000E+00  0.00000000000E+00  0.45593999997E+02  0.45594000000E+02  0.51100000000E-03 0. -1.
         11   -1    0    0    0    0 -0.00000000000E+00 -0.00000000000E+00 -0.45593999997E+02  0.45594000000E+02  0.51100000000E-03 0.  1.
    9900012    2    1    2    0    0 -0.40987201518E+01  0.22920989163E+02  0.33331581402E+02  0.50528861177E+02  0.30000004033E+02 0.  0.
        -12    1    1    2    0    0  0.40987201518E+01 -0.22920989163E+02 -0.33331581402E+02  0.40659138823E+02  0.00000000000E+00 0.  1.
         11    1    3    3    0    0 -0.11298912442E+02 -0.10177169897E+01  0.95966631725E+01  0.14859243404E+02  0.51100000000E-03 0. -1.
        -11    1    3    3    0    0  0.14560245614E+01 -0.18600307670E+00  0.20149618757E+00  0.14816226384E+01  0.51100000000E-03 0.  1.
        -12    1    3    3    0    0  0.57441677285E+01  0.24124709229E+02  0.23533422042E+02  0.34187995134E+02  0.00000000000E+00 0.  1.
</event>
<event>
 7    1  0.5843820E-012  0.5052886E+02  0.7816164E-02  0.1300439E+00
        -11   -1    0    0    0    0  0.00000000000E+00  0.00000000000E+00  0.45593999997E+02  0.45594000000E+02  0.51100000000E-03 0. -1.
         11   -1    0    0    0    0 -0.00000000000E+00 -0.00000000000E+00 -0.45593999997E+02  0.45594000000E+02  0.51100000000E-03 0.  1.
    9900012    2    1    2    0    0 -0.43469877273E+00  0.13816044906E+02 -0.38237331597E+02  0.50528860960E+02  0.30000003373E+02 0.  0.
         12    1    1    2    0    0  0.43469877273E+00 -0.13816044906E+02  0.38237331597E+02  0.40659139040E+02  0.00000000000E+00 0. -1.
         11    1    3    3    0    0  0.63020138744E+00  0.15761072736E+01 -0.24466028183E+02  0.24524840534E+02  0.51100000000E-03 0. -1.
        -11    1    3    3    0    0  0.25102440433E+01  0.52964745258E+01 -0.16672487329E+02  0.17672741766E+02  0.51100000000E-03 0.  1.
        -12    1    3    3    0    0 -0.35751442035E+01  0.69434631066E+01  0.29011839147E+01  0.83312786591E+01  0.00000000000E+00 0.  1.
</event>
<event>
 7    1  0.5843820E-012  0.5052885E+02  0.7816164E-02  0.1300439E+00
        -11   -1    0    0    0    0  0.00000000000E+00  0.00000000000E+00  0.45593999997E+02  0.45594000000E+02  0.51100000000E-03 0.  1.
         11   -1    0    0    0    0 -0.00000000000E+00 -0.00000000000E+00 -0.45593999997E+02  0.45594000000E+02  0.51100000000E-03 0. -1.
    9900012    2    1    2    0    0  0.73811734084E+01  0.39974919946E+02  0.83087811556E+00  0.50528852148E+02  0.29999976590E+02 0.  0.
         12    1    1    2    0    0 -0.73811734084E+01 -0.39974919946E+02 -0.83087811556E+00  0.40659147852E+02  0.00000000000E+00 0. -1.
         11    1    3    3    0    0  0.69044198247E+01  0.31176945236E+01  0.21515202316E+00  0.75787415125E+01  0.51100000000E-03 0. -1.
        -11    1    3    3    0    0  0.57715991574E+00  0.13690022999E+02 -0.10491691888E+02  0.17257619831E+02  0.51100000000E-03 0.  1.
        -12    1    3    3    0    0 -0.10040633204E+00  0.23167202424E+02  0.11107417981E+02  0.25692490805E+02  0.00000000000E+00 0.  1.
</event>
<event>
 7    1  0.5843820E-012  0.5052880E+02  0.7816164E-02  0.1300439E+00
        -11   -1    0    0    0    0  0.00000000000E+00  0.00000000000E+00  0.45593999997E+02  0.45594000000E+02  0.51100000000E-03 0. -1.
         11   -1    0    0    0    0 -0.00000000000E+00 -0.00000000000E+00 -0.45593999997E+02  0.45594000000E+02  0.51100000000E-03 0.  1.
    9900012    2    1    2    0    0 -0.21872661177E+02 -0.45905551652E+01  0.33965926861E+02  0.50528798198E+02  0.29999812601E+02 0.  0.
        -12    1    1    2    0    0  0.21872661177E+02  0.45905551652E+01 -0.33965926861E+02  0.40659201802E+02  0.00000000000E+00 0.  1.
         11    1    3    3    0    0 -0.54717861996E+01  0.10303250928E+02  0.16427678855E+02  0.20148599374E+02  0.51100000000E-03 0. -1.
        -11    1    3    3    0    0 -0.11377497768E+02 -0.63014541631E+01  0.15476652011E+02  0.20215898143E+02  0.51100000000E-03 0.  1.
        -12    1    3    3    0    0 -0.50233772101E+01 -0.85923519300E+01  0.20615959951E+01  0.10164300681E+02  0.00000000000E+00 0.  1.
</event>
<event>
 7    1  0.5843820E-012  0.5052886E+02  0.7816164E-02  0.1300439E+00
        -11   -1    0    0    0    0  0.00000000000E+00  0.00000000000E+00  0.45593999997E+02  0.45594000000E+02  0.51100000000E-03 0. -1.
         11   -1    0    0    0    0 -0.00000000000E+00 -0.00000000000E+00 -0.45593999997E+02  0.45594000000E+02  0.51100000000E-03 0.  1.
    9900012    2    1    2    0    0 -0.17461370447E+02 -0.39118777630E+00  0.36716657665E+02  0.50528862825E+02  0.30000009042E+02 0.  0.
        -12    1    1    2    0    0  0.17461370447E+02  0.39118777630E+00 -0.36716657665E+02  0.40659137175E+02  0.00000000000E+00 0.  1.
         11    1    3    3    0    0 -0.10556585366E+01  0.90530776246E+01  0.30014805114E+01  0.95959113660E+01  0.51100000000E-03 0.  1.
        -11    1    3    3    0    0 -0.37483631835E+01  0.11787498123E+01  0.16925305043E+02  0.17375431757E+02  0.51100000000E-03 0. -1.
         12    1    3    3    0    0 -0.12657348726E+02 -0.10623015213E+02  0.16789872111E+02  0.23557519702E+02  0.00000000000E+00 0. -1.
</event>
<event>
 7    1  0.5843820E-012  0.5052887E+02  0.7816164E-02  0.1300439E+00
        -11   -1    0    0    0    0  0.00000000000E+00  0.00000000000E+00  0.45593999997E+02  0.45594000000E+02  0.51100000000E-03 0. -1.
         11   -1    0    0    0    0 -0.00000000000E+00 -0.00000000000E+00 -0.45593999997E+02  0.45594000000E+02  0.51100000000E-03 0.  1.
    9900012    2    1    2    0    0  0.13061921001E+02 -0.13363625667E+02  0.36110451802E+02  0.50528868177E+02  0.30000025312E+02 0.  0.
        -12    1    1    2    0    0 -0.13061921001E+02  0.13363625667E+02 -0.36110451802E+02  0.40659131823E+02  0.00000000000E+00 0.  1.
         11    1    3    3    0    0  0.89671802219E+01  0.41353218122E+01  0.18512688540E+02  0.20981678790E+02  0.51100000000E-03 0. -1.
        -11    1    3    3    0    0  0.10088043970E+01  0.28462049107E+01  0.12589271442E+01  0.32716152769E+01  0.51100000000E-03 0.  1.
        -12    1    3    3    0    0  0.30859363824E+01 -0.20345152390E+02  0.16338836118E+02  0.26275574110E+02  0.00000000000E+00 0.  1.
</event>
<event>
 7    1  0.5843820E-012  0.5052879E+02  0.7816164E-02  0.1300439E+00
        -11   -1    0    0    0    0  0.00000000000E+00  0.00000000000E+00  0.45593999997E+02  0.45594000000E+02  0.51100000000E-03 0. -1.
         11   -1    0    0    0    0 -0.00000000000E+00 -0.00000000000E+00 -0.45593999997E+02  0.45594000000E+02  0.51100000000E-03 0.  1.
    9900012    2    1    2    0    0  0.84921143609E+01  0.12041719828E+02  0.37895276091E+02  0.50528794735E+02  0.29999802077E+02 0.  0.
        -12    1    1    2    0    0 -0.84921143609E+01 -0.12041719828E+02 -0.37895276091E+02  0.40659205265E+02  0.00000000000E+00 0.  1.
         11    1    3    3    0    0  0.40309507791E+01 -0.45833318254E+01  0.25479223249E+02  0.26200120466E+02  0.51100000000E-03 0. -1.
        -11    1    3    3    0    0 -0.16952782722E+00 -0.13033471928E+01  0.35761611284E+01  0.38100370427E+01  0.51100000000E-03 0.  1.
        -12    1    3    3    0    0  0.46306914090E+01  0.17928398847E+02  0.88398917136E+01  0.20518637227E+02  0.00000000000E+00 0.  1.
</event>
<event>
 7    1  0.5843820E-012  0.5052885E+02  0.7816164E-02  0.1300439E+00
        -11   -1    0    0    0    0  0.00000000000E+00  0.00000000000E+00  0.45593999997E+02  0.45594000000E+02  0.51100000000E-03 0.  1.
         11   -1    0    0    0    0 -0.00000000000E+00 -0.00000000000E+00 -0.45593999997E+02  0.45594000000E+02  0.51100000000E-03 0. -1.
    9900012    2    1    2    0    0  0.25128177818E+02  0.25301059535E+02  0.19534519558E+02  0.50528851111E+02  0.29999973437E+02 0.  0.
        -12    1    1    2    0    0 -0.25128177818E+02 -0.25301059535E+02 -0.19534519558E+02  0.40659148889E+02  0.00000000000E+00 0.  1.
         11    1    3    3    0    0  0.22950814955E+01  0.17615697900E+00 -0.79816791936E+00  0.24362887023E+01  0.51100000000E-03 0. -1.
        -11    1    3    3    0    0  0.54188204415E+01 -0.44236157336E+01  0.10127084716E+02  0.12308120744E+02  0.51100000000E-03 0.  1.
         12    1    3    3    0    0  0.17414275881E+02  0.29548518289E+02  0.10205602761E+02  0.35784441665E+02  0.00000000000E+00 0. -1.
</event>
<event>
 7    1  0.5843820E-012  0.5052887E+02  0.7816164E-02  0.1300439E+00
        -11   -1    0    0    0    0  0.00000000000E+00  0.00000000000E+00  0.45593999997E+02  0.45594000000E+02  0.51100000000E-03 0. -1.
         11   -1    0    0    0    0 -0.00000000000E+00 -0.00000000000E+00 -0.45593999997E+02  0.45594000000E+02  0.51100000000E-03 0.  1.
    9900012    2    1    2    0    0  0.88902127263E+01  0.67018996532E+01  0.39105163260E+02  0.50528866526E+02  0.30000020293E+02 0.  0.
        -12    1    1    2    0    0 -0.88902127263E+01 -0.67018996532E+01 -0.39105163260E+02  0.40659133474E+02  0.00000000000E+00 0.  1.
         11    1    3    3    0    0  0.39692422156E+01 -0.13291106356E+01  0.21236887618E+02  0.21645480240E+02  0.51100000000E-03 0. -1.
        -11    1    3    3    0    0  0.99501966090E+01  0.57193671683E+01  0.19912298365E+02  0.22982976304E+02  0.51100000000E-03 0.  1.
        -12    1    3    3    0    0 -0.50292260984E+01  0.23116431205E+01 -0.20440227233E+01  0.59004099822E+01  0.00000000000E+00 0.  1.
</event>
<event>
 7    1  0.5843820E-012  0.5052885E+02  0.7816164E-02  0.1300439E+00
        -11   -1    0    0    0    0  0.00000000000E+00  0.00000000000E+00  0.45593999997E+02  0.45594000000E+02  0.51100000000E-03 0. -1.
         11   -1    0    0    0    0 -0.00000000000E+00 -0.00000000000E+00 -0.45593999997E+02  0.45594000000E+02  0.51100000000E-03 0.  1.
    9900012    2    1    2    0    0  0.74229358767E+01  0.11232822325E+02 -0.38365216076E+02  0.50528854916E+02  0.29999985001E+02 0.  0.
         12    1    1    2    0    0 -0.74229358767E+01 -0.11232822325E+02  0.38365216076E+02  0.40659145084E+02  0.00000000000E+00 0. -1.
         11    1    3    3    0    0 -0.29039672924E+01 -0.39618277157E+01 -0.25347608311E+02  0.25819185739E+02  0.51100000000E-03 0. -1.
        -11    1    3    3    0    0  0.57285178056E+00 -0.27278060323E+00 -0.44869461776E+01  0.45315841250E+01  0.51100000000E-03 0.  1.
        -12    1    3    3    0    0  0.97540513885E+01  0.15467430644E+02 -0.85306615875E+01  0.20178085051E+02  0.00000000000E+00 0.  1.
</event>
<event>
 7    1  0.5843820E-012  0.5052887E+02  0.7816164E-02  0.1300439E+00
        -11   -1    0    0    0    0  0.00000000000E+00  0.00000000000E+00  0.45593999997E+02  0.45594000000E+02  0.51100000000E-03 0. -1.
         11   -1    0    0    0    0 -0.00000000000E+00 -0.00000000000E+00 -0.45593999997E+02  0.45594000000E+02  0.51100000000E-03 0.  1.
    9900012    2    1    2    0    0 -0.30813581176E+02  0.17174918567E+02 -0.20216582804E+02  0.50528870239E+02  0.30000031577E+02 0.  0.
         12    1    1    2    0    0  0.30813581176E+02 -0.17174918567E+02  0.20216582804E+02  0.40659129761E+02  0.00000000000E+00 0. -1.
         11    1    3    3    0    0 -0.11918971889E+01  0.10371167399E+02 -0.57173654518E+01  0.11902520745E+02  0.51100000000E-03 0. -1.
        -11    1    3    3    0    0 -0.26103991308E+02  0.65988734739E+01 -0.18967959878E+02  0.32935497499E+02  0.51100000000E-03 0.  1.
        -12    1    3    3    0    0 -0.35176926792E+01  0.20487769401E+00  0.44687425256E+01  0.56908519938E+01  0.00000000000E+00 0.  1.
</event>
<event>
 7    1  0.5843820E-012  0.5052886E+02  0.7816164E-02  0.1300439E+00
        -11   -1    0    0    0    0  0.00000000000E+00  0.00000000000E+00  0.45593999997E+02  0.45594000000E+02  0.51100000000E-03 0. -1.
         11   -1    0    0    0    0 -0.00000000000E+00 -0.00000000000E+00 -0.45593999997E+02  0.45594000000E+02  0.51100000000E-03 0.  1.
    9900012    2    1    2    0    0  0.18422819327E+02  0.22876890181E+02  0.28114293339E+02  0.50528857531E+02  0.29999992951E+02 0.  0.
        -12    1    1    2    0    0 -0.18422819327E+02 -0.22876890181E+02 -0.28114293339E+02  0.40659142469E+02  0.00000000000E+00 0.  1.
         11    1    3    3    0    0  0.14325627870E+02  0.68730500512E+01  0.20304320489E+02  0.25782316840E+02  0.51100000000E-03 0. -1.
        -11    1    3    3    0    0  0.83922486532E+01  0.30006061002E+01 -0.13675944124E+00  0.89135951126E+01  0.51100000000E-03 0.  1.
        -12    1    3    3    0    0 -0.42950571963E+01  0.13003234030E+02  0.79467322919E+01  0.15832945578E+02  0.00000000000E+00 0.  1.
</event>
<event>
 7    1  0.5843820E-012  0.5052882E+02  0.7816164E-02  0.1300439E+00
        -11   -1    0    0    0    0  0.00000000000E+00  0.00000000000E+00  0.45593999997E+02  0.45594000000E+02  0.51100000000E-03 0. -1.
         11   -1    0    0    0    0 -0.00000000000E+00 -0.00000000000E+00 -0.45593999997E+02  0.45594000000E+02  0.51100000000E-03 0.  1.
    9900012    2    1    2    0    0  0.49222847831E+01  0.49984520372E+01 -0.40049410253E+02  0.50528823031E+02  0.29999888084E+02 0.  0.
         12    1    1    2    0    0 -0.49222847831E+01 -0.49984520372E+01  0.40049410253E+02  0.40659176969E+02  0.00000000000E+00 0. -1.
         11    1    3    3    0    0  0.29445169721E+00 -0.32806172902E+01 -0.35249750627E+01  0.48243757172E+01  0.51100000000E-03 0. -1.
        -11    1    3    3    0    0  0.69189714184E+01 -0.59770924051E+01 -0.26746505634E+02  0.28266116871E+02  0.51100000000E-03 0.  1.
         12    1    3    3    0    0 -0.22911383326E+01  0.14256161733E+02 -0.97779295561E+01  0.17438330442E+02  0.00000000000E+00 0. -1.
</event>
<event>
 7    1  0.5843820E-012  0.5052886E+02  0.7816164E-02  0.1300439E+00
        -11   -1    0    0    0    0  0.00000000000E+00  0.00000000000E+00  0.45593999997E+02  0.45594000000E+02  0.51100000000E-03 0. -1.
         11   -1    0    0    0    0 -0.00000000000E+00 -0.00000000000E+00 -0.45593999997E+02  0.45594000000E+02  0.51100000000E-03 0.  1.
    9900012    2    1    2    0    0 -0.11865137237E+02 -0.11745732139E+02 -0.37073192871E+02  0.50528864067E+02  0.30000012819E+02 0.  0.
         12    1    1    2    0    0  0.11865137237E+02  0.11745732139E+02  0.37073192871E+02  0.40659135933E+02  0.00000000000E+00 0. -1.
         11    1    3    3    0    0  0.12088786843E+01 -0.59027657001E+01 -0.61968766890E+01  0.86432234463E+01  0.51100000000E-03 0. -1.
        -11    1    3    3    0    0 -0.80994402330E+01 -0.12127584015E+02 -0.60343809765E+01  0.15782679752E+02  0.51100000000E-03 0.  1.
         12    1    3    3    0    0 -0.49745756885E+01  0.62846175762E+01 -0.24841935206E+02  0.26102960869E+02  0.00000000000E+00 0. -1.
</event>
<event>
 7    1  0.5843820E-012  0.5052887E+02  0.7816164E-02  0.1300439E+00
        -11   -1    0    0    0    0  0.00000000000E+00  0.00000000000E+00  0.45593999997E+02  0.45594000000E+02  0.51100000000E-03 0. -1.
         11   -1    0    0    0    0 -0.00000000000E+00 -0.00000000000E+00 -0.45593999997E+02  0.45594000000E+02  0.51100000000E-03 0.  1.
    9900012    2    1    2    0    0 -0.28498116871E+01 -0.37490213554E+02  0.15476671994E+02  0.50528869230E+02  0.30000028512E+02 0.  0.
        -12    1    1    2    0    0  0.28498116871E+01  0.37490213554E+02 -0.15476671994E+02  0.40659130770E+02  0.00000000000E+00 0.  1.
         11    1    3    3    0    0  0.12707857576E+01 -0.57860800574E+01  0.85828658834E+01  0.10428768187E+02  0.51100000000E-03 0. -1.
        -11    1    3    3    0    0  0.17267597993E+01  0.34363952582E+01  0.11670880865E+01  0.40190305594E+01  0.51100000000E-03 0.  1.
        -12    1    3    3    0    0 -0.58473572440E+01 -0.35140528755E+02  0.57267180238E+01  0.36081070483E+02  0.00000000000E+00 0.  1.
</event>
<event>
 7    1  0.5843820E-012  0.5052885E+02  0.7816164E-02  0.1300439E+00
        -11   -1    0    0    0    0  0.00000000000E+00  0.00000000000E+00  0.45593999997E+02  0.45594000000E+02  0.51100000000E-03 0. -1.
         11   -1    0    0    0    0 -0.00000000000E+00 -0.00000000000E+00 -0.45593999997E+02  0.45594000000E+02  0.51100000000E-03 0.  1.
    9900012    2    1    2    0    0 -0.40339434244E+02  0.45690246311E+01 -0.22405699126E+01  0.50528854722E+02  0.29999984413E+02 0.  0.
         12    1    1    2    0    0  0.40339434244E+02 -0.45690246311E+01  0.22405699126E+01  0.40659145278E+02  0.00000000000E+00 0. -1.
         11    1    3    3    0    0 -0.28584559004E+02  0.62821021496E+01  0.45595810162E+01  0.29619783932E+02  0.51100000000E-03 0. -1.
        -11    1    3    3    0    0 -0.92005916703E+01  0.56799102871E+01 -0.42943040384E+00  0.10821121877E+02  0.51100000000E-03 0.  1.
         12    1    3    3    0    0 -0.25542835695E+01 -0.73929878056E+01 -0.63707205250E+01  0.10087948912E+02  0.00000000000E+00 0. -1.
</event>
<event>
 7    1  0.5843820E-012  0.5052886E+02  0.7816164E-02  0.1300439E+00
        -11   -1    0    0    0    0  0.00000000000E+00  0.00000000000E+00  0.45593999997E+02  0.45594000000E+02  0.51100000000E-03 0. -1.
         11   -1    0    0    0    0 -0.00000000000E+00 -0.00000000000E+00 -0.45593999997E+02  0.45594000000E+02  0.51100000000E-03 0.  1.
    9900012    2    1    2    0    0  0.38184518894E+01  0.17170876754E+02  0.36657144880E+02  0.50528857681E+02  0.29999993408E+02 0.  0.
        -12    1    1    2    0    0 -0.38184518894E+01 -0.17170876754E+02 -0.36657144880E+02  0.40659142319E+02  0.00000000000E+00 0.  1.
         11    1    3    3    0    0  0.76704924583E+01 -0.41779949391E+01  0.10381791512E+02  0.13567376000E+02  0.51100000000E-03 0. -1.
        -11    1    3    3    0    0  0.37229554184E+01  0.45335401088E+01  0.12924414318E+02  0.14193444568E+02  0.51100000000E-03 0.  1.
         12    1    3    3    0    0 -0.75749959873E+01  0.16815331585E+02  0.13350939050E+02  0.22768037114E+02  0.00000000000E+00 0. -1.
</event>
<event>
 7    1  0.5843820E-012  0.5052885E+02  0.7816164E-02  0.1300439E+00
        -11   -1    0    0    0    0  0.00000000000E+00  0.00000000000E+00  0.45593999997E+02  0.45594000000E+02  0.51100000000E-03 0. -1.
         11   -1    0    0    0    0 -0.00000000000E+00 -0.00000000000E+00 -0.45593999997E+02  0.45594000000E+02  0.51100000000E-03 0.  1.
    9900012    2    1    2    0    0  0.14023084894E+02  0.10767580643E+02  0.36613918617E+02  0.50528846795E+02  0.29999960319E+02 0.  0.
        -12    1    1    2    0    0 -0.14023084894E+02 -0.10767580643E+02 -0.36613918617E+02  0.40659153205E+02  0.00000000000E+00 0.  1.
         11    1    3    3    0    0 -0.36123316363E+01 -0.73524700886E+01  0.10105567300E+02  0.13008852638E+02  0.51100000000E-03 0. -1.
        -11    1    3    3    0    0  0.60590357626E+00 -0.76062872291E+00  0.19061392822E+01  0.21398697208E+01  0.51100000000E-03 0.  1.
        -12    1    3    3    0    0  0.17029512954E+02  0.18880679454E+02  0.24602212035E+02  0.35380124436E+02  0.00000000000E+00 0.  1.
</event>
<event>
 7    1  0.5843820E-012  0.5052886E+02  0.7816164E-02  0.1300439E+00
        -11   -1    0    0    0    0  0.00000000000E+00  0.00000000000E+00  0.45593999997E+02  0.45594000000E+02  0.51100000000E-03 0. -1.
         11   -1    0    0    0    0 -0.00000000000E+00 -0.00000000000E+00 -0.45593999997E+02  0.45594000000E+02  0.51100000000E-03 0.  1.
    9900012    2    1    2    0    0  0.21260400021E+02  0.22972135466E+02 -0.25950760320E+02  0.50528861075E+02  0.30000003725E+02 0.  0.
         12    1    1    2    0    0 -0.21260400021E+02 -0.22972135466E+02  0.25950760320E+02  0.40659138925E+02  0.00000000000E+00 0. -1.
         11    1    3    3    0    0  0.70027446550E+01 -0.21894205311E+01  0.13577501986E+01  0.74616004200E+01  0.51100000000E-03 0. -1.
        -11    1    3    3    0    0  0.59644712598E+01  0.60135374002E+01  0.28199326131E+00  0.84744952612E+01  0.51100000000E-03 0.  1.
         12    1    3    3    0    0  0.82931841063E+01  0.19148018597E+02 -0.27590503780E+02  0.34592765394E+02  0.00000000000E+00 0. -1.
</event>
<event>
 7    1  0.5843820E-012  0.5052886E+02  0.7816164E-02  0.1300439E+00
        -11   -1    0    0    0    0  0.00000000000E+00  0.00000000000E+00  0.45593999997E+02  0.45594000000E+02  0.51100000000E-03 0. -1.
         11   -1    0    0    0    0 -0.00000000000E+00 -0.00000000000E+00 -0.45593999997E+02  0.45594000000E+02  0.51100000000E-03 0.  1.
    9900012    2    1    2    0    0  0.20533511070E+02  0.42993591840E+00 -0.35090674917E+02  0.50528863414E+02  0.30000010835E+02 0.  0.
         12    1    1    2    0    0 -0.20533511070E+02 -0.42993591840E+00  0.35090674917E+02  0.40659136586E+02  0.00000000000E+00 0. -1.
         11    1    3    3    0    0  0.10022798348E+02  0.13988030117E+01 -0.26900816234E+02  0.28741382203E+02  0.51100000000E-03 0. -1.
        -11    1    3    3    0    0  0.11135513301E+02  0.60425502399E+01 -0.29394955413E+01  0.13005871912E+02  0.51100000000E-03 0.  1.
         12    1    3    3    0    0 -0.62480057898E+00 -0.70114173332E+01 -0.52503631412E+01  0.87816093001E+01  0.00000000000E+00 0. -1.
</event>
<event>
 7    1  0.6192754E-012  0.5052894E+02  0.7816164E-02  0.1300438E+00
        -11   -1    0    0    0    0  0.00000000000E+00  0.00000000000E+00  0.45593999997E+02  0.45594000000E+02  0.51100000000E-03 0. -1.
         11   -1    0    0    0    0 -0.00000000000E+00 -0.00000000000E+00 -0.45593999997E+02  0.45594000000E+02  0.51100000000E-03 0.  1.
    9900012    2    1    2    0    0  0.92351783819E+01  0.46298284450E+01 -0.39324738165E+02  0.50528943654E+02  0.30000254730E+02 0.  0.
         12    1    1    2    0    0 -0.92351783819E+01 -0.46298284450E+01  0.39324738165E+02  0.40659056346E+02  0.00000000000E+00 0. -1.
         11    1    3    3    0    0 -0.36591368757E+00 -0.61869009848E+01 -0.61222271253E+01  0.87116761795E+01  0.51100000000E-03 0. -1.
        -11    1    3    3    0    0  0.31837820869E+01 -0.33819754111E+01 -0.22353071511E+02  0.22830550416E+02  0.51100000000E-03 0.  1.
        -12    1    3    3    0    0  0.64173099826E+01  0.14198704841E+02 -0.10849439529E+02  0.18986717059E+02  0.00000000000E+00 0.  1.
</event>
<event>
 7    1  0.5843820E-012  0.5052887E+02  0.7816164E-02  0.1300439E+00
        -11   -1    0    0    0    0  0.00000000000E+00  0.00000000000E+00  0.45593999997E+02  0.45594000000E+02  0.51100000000E-03 0. -1.
         11   -1    0    0    0    0 -0.00000000000E+00 -0.00000000000E+00 -0.45593999997E+02  0.45594000000E+02  0.51100000000E-03 0.  1.
    9900012    2    1    2    0    0  0.46894001922E+01 -0.14807391204E+02 -0.37575466260E+02  0.50528868516E+02  0.30000026340E+02 0.  0.
         12    1    1    2    0    0 -0.46894001922E+01  0.14807391204E+02  0.37575466260E+02  0.40659131484E+02  0.00000000000E+00 0. -1.
         11    1    3    3    0    0  0.79397873312E+01 -0.83907929836E+01 -0.29062784198E+02  0.31274447323E+02  0.51100000000E-03 0. -1.
        -11    1    3    3    0    0  0.24190175874E+01 -0.50041569452E+01 -0.11440485373E+02  0.12719195677E+02  0.51100000000E-03 0.  1.
         12    1    3    3    0    0 -0.56694047264E+01 -0.14124412751E+01  0.29278033122E+01  0.65352255158E+01  0.00000000000E+00 0. -1.
</event>
<event>
 7    1  0.5843820E-012  0.5052886E+02  0.7816164E-02  0.1300439E+00
        -11   -1    0    0    0    0  0.00000000000E+00  0.00000000000E+00  0.45593999997E+02  0.45594000000E+02  0.51100000000E-03 0. -1.
         11   -1    0    0    0    0 -0.00000000000E+00 -0.00000000000E+00 -0.45593999997E+02  0.45594000000E+02  0.51100000000E-03 0.  1.
    9900012    2    1    2    0    0  0.11791711959E+02  0.23803323964E+02 -0.30781860659E+02  0.50528860212E+02  0.30000001102E+02 0.  0.
         12    1    1    2    0    0 -0.11791711959E+02 -0.23803323964E+02  0.30781860659E+02  0.40659139788E+02  0.00000000000E+00 0. -1.
         11    1    3    3    0    0 -0.12464769431E+01  0.60791085756E+00 -0.92226038024E+00  0.16654803663E+01  0.51100000000E-03 0. -1.
        -11    1    3    3    0    0  0.13621904717E+01  0.25870219916E+02 -0.15600603429E+02  0.30240745179E+02  0.51100000000E-03 0.  1.
         12    1    3    3    0    0  0.11675998430E+02 -0.26748068090E+01 -0.14258996849E+02  0.18622634667E+02  0.00000000000E+00 0. -1.
</event>
<event>
 7    1  0.5843820E-012  0.5052884E+02  0.7816164E-02  0.1300439E+00
        -11   -1    0    0    0    0  0.00000000000E+00  0.00000000000E+00  0.45593999997E+02  0.45594000000E+02  0.51100000000E-03 0.  1.
         11   -1    0    0    0    0 -0.00000000000E+00 -0.00000000000E+00 -0.45593999997E+02  0.45594000000E+02  0.51100000000E-03 0. -1.
    9900012    2    1    2    0    0 -0.39595505467E+01  0.33665769646E+02 -0.22452292331E+02  0.50528837228E+02  0.29999931238E+02 0.  0.
         12    1    1    2    0    0  0.39595505467E+01 -0.33665769646E+02  0.22452292331E+02  0.40659162772E+02  0.00000000000E+00 0. -1.
         11    1    3    3    0    0  0.36503089446E+01  0.75634999884E+01  0.33683233537E+01  0.90485849690E+01  0.51100000000E-03 0.  1.
        -11    1    3    3    0    0 -0.11888207954E+02  0.15464668173E+02 -0.99388159821E+01  0.21892133597E+02  0.51100000000E-03 0. -1.
         12    1    3    3    0    0  0.42783484624E+01  0.10637601485E+02 -0.15881799703E+02  0.19588118662E+02  0.00000000000E+00 0. -1.
</event>
<event>
 7    1  0.5843820E-012  0.5052886E+02  0.7816164E-02  0.1300439E+00
        -11   -1    0    0    0    0  0.00000000000E+00  0.00000000000E+00  0.45593999997E+02  0.45594000000E+02  0.51100000000E-03 0. -1.
         11   -1    0    0    0    0 -0.00000000000E+00 -0.00000000000E+00 -0.45593999997E+02  0.45594000000E+02  0.51100000000E-03 0.  1.
    9900012    2    1    2    0    0 -0.24864271876E+02  0.18618743048E+02 -0.26235014494E+02  0.50528860878E+02  0.30000003126E+02 0.  0.
         12    1    1    2    0    0  0.24864271876E+02 -0.18618743048E+02  0.26235014494E+02  0.40659139122E+02  0.00000000000E+00 0. -1.
         11    1    3    3    0    0 -0.14371560260E+02  0.58390200606E+01 -0.86448317161E+01  0.17758632133E+02  0.51100000000E-03 0. -1.
        -11    1    3    3    0    0 -0.15780140775E+02  0.14986104382E+02 -0.12443101959E+02  0.25068445385E+02  0.51100000000E-03 0.  1.
         12    1    3    3    0    0  0.52874291587E+01 -0.22063813947E+01 -0.51470808191E+01  0.77017833601E+01  0.00000000000E+00 0. -1.
</event>
<event>
 7    1  0.5843820E-012  0.5052883E+02  0.7816164E-02  0.1300439E+00
        -11   -1    0    0    0    0  0.00000000000E+00  0.00000000000E+00  0.45593999997E+02  0.45594000000E+02  0.51100000000E-03 0. -1.
         11   -1    0    0    0    0 -0.00000000000E+00 -0.00000000000E+00 -0.45593999997E+02  0.45594000000E+02  0.51100000000E-03 0.  1.
    9900012    2    1    2    0    0  0.27525283359E+02  0.13231027290E+02 -0.26841517195E+02  0.50528826958E+02  0.29999900021E+02 0.  0.
         12    1    1    2    0    0 -0.27525283359E+02 -0.13231027290E+02  0.26841517195E+02  0.40659173042E+02  0.00000000000E+00 0. -1.
         11    1    3    3    0    0  0.19606856225E+02  0.99120558099E+01 -0.47801161429E+01  0.22483931418E+02  0.51100000000E-03 0. -1.
        -11    1    3    3    0    0  0.35064209977E+00  0.30548925110E+01  0.14095641279E+01  0.33826305485E+01  0.51100000000E-03 0.  1.
        -12    1    3    3    0    0  0.75677850346E+01  0.26407896870E+00 -0.23470965180E+02  0.24662264992E+02  0.00000000000E+00 0.  1.
</event>
<event>
 7    1  0.5843820E-012  0.5052886E+02  0.7816164E-02  0.1300439E+00
        -11   -1    0    0    0    0  0.00000000000E+00  0.00000000000E+00  0.45593999997E+02  0.45594000000E+02  0.51100000000E-03 0. -1.
         11   -1    0    0    0    0 -0.00000000000E+00 -0.00000000000E+00 -0.45593999997E+02  0.45594000000E+02  0.51100000000E-03 0.  1.
    9900012    2    1    2    0    0  0.12503182825E+01  0.36951085729E+02 -0.16918025505E+02  0.50528860568E+02  0.30000002183E+02 0.  0.
         12    1    1    2    0    0 -0.12503182825E+01 -0.36951085729E+02  0.16918025505E+02  0.40659139432E+02  0.00000000000E+00 0. -1.
         11    1    3    3    0    0 -0.30312523432E+01 -0.33770636957E+01 -0.31129273113E+01  0.55030324984E+01  0.51100000000E-03 0. -1.
        -11    1    3    3    0    0  0.31192012301E+01  0.87547029149E+00 -0.20851418841E+01  0.38527498599E+01  0.51100000000E-03 0.  1.
        -12    1    3    3    0    0  0.11623693956E+01  0.39452679133E+02 -0.11719956310E+02  0.41173078210E+02  0.00000000000E+00 0.  1.
</event>
<event>
 7    1  0.5843820E-012  0.5052885E+02  0.7816164E-02  0.1300439E+00
        -11   -1    0    0    0    0  0.00000000000E+00  0.00000000000E+00  0.45593999997E+02  0.45594000000E+02  0.51100000000E-03 0. -1.
         11   -1    0    0    0    0 -0.00000000000E+00 -0.00000000000E+00 -0.45593999997E+02  0.45594000000E+02  0.51100000000E-03 0.  1.
    9900012    2    1    2    0    0 -0.16529232019E+02 -0.27147408430E+02 -0.25356829147E+02  0.50528854903E+02  0.29999984962E+02 0.  0.
         12    1    1    2    0    0  0.16529232019E+02  0.27147408430E+02  0.25356829147E+02  0.40659145097E+02  0.00000000000E+00 0. -1.
         11    1    3    3    0    0 -0.11857906923E+02 -0.50523497243E+01 -0.10560189337E+02  0.16662946721E+02  0.51100000000E-03 0. -1.
        -11    1    3    3    0    0 -0.54456638967E+01  0.16659330382E+01 -0.66039350717E+01  0.87202377752E+01  0.51100000000E-03 0.  1.
        -12    1    3    3    0    0  0.77433880045E+00 -0.23760991744E+02 -0.81927047385E+01  0.25145670406E+02  0.00000000000E+00 0.  1.
</event>
<event>
 7    1  0.5843820E-012  0.5052886E+02  0.7816164E-02  0.1300439E+00
        -11   -1    0    0    0    0  0.00000000000E+00  0.00000000000E+00  0.45593999997E+02  0.45594000000E+02  0.51100000000E-03 0. -1.
         11   -1    0    0    0    0 -0.00000000000E+00 -0.00000000000E+00 -0.45593999997E+02  0.45594000000E+02  0.51100000000E-03 0.  1.
    9900012    2    1    2    0    0  0.32587342979E+02 -0.21389713143E+02 -0.11563356074E+02  0.50528856447E+02  0.29999989655E+02 0.  0.
         12    1    1    2    0    0 -0.32587342979E+02  0.21389713143E+02  0.11563356074E+02  0.40659143553E+02  0.00000000000E+00 0. -1.
         11    1    3    3    0    0  0.27042594355E+02 -0.12824489060E+02 -0.66766635298E+01  0.30665082182E+02  0.51100000000E-03 0. -1.
        -11    1    3    3    0    0  0.87645377757E+01  0.13034874645E+01 -0.25955492704E+01  0.92332593524E+01  0.51100000000E-03 0.  1.
         12    1    3    3    0    0 -0.32197891512E+01 -0.98687115479E+01 -0.22911432739E+01  0.10630514912E+02  0.00000000000E+00 0. -1.
</event>
<event>
 7    1  0.5843820E-012  0.5052886E+02  0.7816164E-02  0.1300439E+00
        -11   -1    0    0    0    0  0.00000000000E+00  0.00000000000E+00  0.45593999997E+02  0.45594000000E+02  0.51100000000E-03 0. -1.
         11   -1    0    0    0    0 -0.00000000000E+00 -0.00000000000E+00 -0.45593999997E+02  0.45594000000E+02  0.51100000000E-03 0.  1.
    9900012    2    1    2    0    0  0.32233992526E+01 -0.96666104293E+01 -0.39361553000E+02  0.50528861857E+02  0.30000006101E+02 0.  0.
         12    1    1    2    0    0 -0.32233992526E+01  0.96666104293E+01  0.39361553000E+02  0.40659138143E+02  0.00000000000E+00 0. -1.
         11    1    3    3    0    0  0.26221006072E+01 -0.88998248877E+00 -0.87802834103E-01  0.27704133308E+01  0.51100000000E-03 0. -1.
        -11    1    3    3    0    0 -0.87490188201E+01  0.19414712534E+01 -0.41737700981E+01  0.98861012556E+01  0.51100000000E-03 0.  1.
        -12    1    3    3    0    0  0.93503174654E+01 -0.10718099194E+02 -0.35099980068E+02  0.37872347271E+02  0.00000000000E+00 0.  1.
</event>
<event>
 7    1  0.5843820E-012  0.5052887E+02  0.7816164E-02  0.1300439E+00
        -11   -1    0    0    0    0  0.00000000000E+00  0.00000000000E+00  0.45593999997E+02  0.45594000000E+02  0.51100000000E-03 0.  1.
         11   -1    0    0    0    0 -0.00000000000E+00 -0.00000000000E+00 -0.45593999997E+02  0.45594000000E+02  0.51100000000E-03 0. -1.
    9900012    2    1    2    0    0  0.33419094508E+02 -0.19891322294E+02  0.11860212632E+02  0.50528865430E+02  0.30000016961E+02 0.  0.
        -12    1    1    2    0    0 -0.33419094508E+02  0.19891322294E+02 -0.11860212632E+02  0.40659134570E+02  0.00000000000E+00 0.  1.
         11    1    3    3    0    0  0.42001736333E+01  0.17418269170E+01 -0.34207274783E+01  0.56900611860E+01  0.51100000000E-03 0. -1.
        -11    1    3    3    0    0  0.39284001989E+01  0.19448019846E+01 -0.33918121010E+01  0.55424698891E+01  0.51100000000E-03 0.  1.
        -12    1    3    3    0    0  0.25290520675E+02 -0.23577951195E+02  0.18672752211E+02  0.39296334355E+02  0.00000000000E+00 0.  1.
</event>
<event>
 7    1  0.5843820E-012  0.5052886E+02  0.7816164E-02  0.1300439E+00
        -11   -1    0    0    0    0  0.00000000000E+00  0.00000000000E+00  0.45593999997E+02  0.45594000000E+02  0.51100000000E-03 0. -1.
         11   -1    0    0    0    0 -0.00000000000E+00 -0.00000000000E+00 -0.45593999997E+02  0.45594000000E+02  0.51100000000E-03 0.  1.
    9900012    2    1    2    0    0  0.27105786515E+01  0.17312833397E+02  0.36689021179E+02  0.50528859430E+02  0.29999998722E+02 0.  0.
        -12    1    1    2    0    0 -0.27105786515E+01 -0.17312833397E+02 -0.36689021179E+02  0.40659140570E+02  0.00000000000E+00 0.  1.
         11    1    3    3    0    0  0.14662959895E+01  0.25150759059E+01  0.17991367980E+02  0.18225393076E+02  0.51100000000E-03 0. -1.
        -11    1    3    3    0    0 -0.94690933914E+01  0.24187212252E+01  0.89376744705E+01  0.13243714253E+02  0.51100000000E-03 0.  1.
        -12    1    3    3    0    0  0.10713376053E+02  0.12379036266E+02  0.97599787285E+01  0.19059752100E+02  0.00000000000E+00 0.  1.
</event>
<event>
 7    1  0.5843820E-012  0.5052886E+02  0.7816164E-02  0.1300439E+00
        -11   -1    0    0    0    0  0.00000000000E+00  0.00000000000E+00  0.45593999997E+02  0.45594000000E+02  0.51100000000E-03 0. -1.
         11   -1    0    0    0    0 -0.00000000000E+00 -0.00000000000E+00 -0.45593999997E+02  0.45594000000E+02  0.51100000000E-03 0.  1.
    9900012    2    1    2    0    0  0.27730852800E+01  0.78774527490E+01  0.39792226998E+02  0.50528860889E+02  0.30000003160E+02 0.  0.
        -12    1    1    2    0    0 -0.27730852800E+01 -0.78774527490E+01 -0.39792226998E+02  0.40659139111E+02  0.00000000000E+00 0.  1.
         11    1    3    3    0    0  0.14390129492E+00  0.54064702075E+01  0.84585911997E+01  0.10039840289E+02  0.51100000000E-03 0. -1.
        -11    1    3    3    0    0  0.88525665736E+01  0.48754584776E+01  0.32211556999E+02  0.33759775397E+02  0.51100000000E-03 0.  1.
        -12    1    3    3    0    0 -0.62233825886E+01 -0.24044759360E+01 -0.87792120094E+00  0.67292452033E+01  0.00000000000E+00 0.  1.
</event>
<event>
 7    1  0.5843820E-012  0.5052886E+02  0.7816164E-02  0.1300439E+00
        -11   -1    0    0    0    0  0.00000000000E+00  0.00000000000E+00  0.45593999997E+02  0.45594000000E+02  0.51100000000E-03 0. -1.
         11   -1    0    0    0    0 -0.00000000000E+00 -0.00000000000E+00 -0.45593999997E+02  0.45594000000E+02  0.51100000000E-03 0.  1.
    9900012    2    1    2    0    0 -0.21489958197E+02 -0.12401727578E+02  0.32210933951E+02  0.50528863066E+02  0.30000009774E+02 0.  0.
        -12    1    1    2    0    0  0.21489958197E+02  0.12401727578E+02 -0.32210933951E+02  0.40659136934E+02  0.00000000000E+00 0.  1.
         11    1    3    3    0    0 -0.72458760361E+01  0.79583848822E+01  0.11352369385E+02  0.15643366018E+02  0.51100000000E-03 0. -1.
        -11    1    3    3    0    0 -0.15069173179E+02 -0.14898780717E+02  0.20280941798E+02  0.29332068587E+02  0.51100000000E-03 0.  1.
        -12    1    3    3    0    0  0.82509101754E+00 -0.54613317433E+01  0.57762276819E+00  0.55534284600E+01  0.00000000000E+00 0.  1.
</event>
<event>
 7    1  0.5843820E-012  0.5052888E+02  0.7816164E-02  0.1300439E+00
        -11   -1    0    0    0    0  0.00000000000E+00  0.00000000000E+00  0.45593999997E+02  0.45594000000E+02  0.51100000000E-03 0.  1.
         11   -1    0    0    0    0 -0.00000000000E+00 -0.00000000000E+00 -0.45593999997E+02  0.45594000000E+02  0.51100000000E-03 0. -1.
    9900012    2    1    2    0    0  0.25905395070E+02  0.16918578152E+02 -0.26378709939E+02  0.50528879025E+02  0.30000058285E+02 0.  0.
         12    1    1    2    0    0 -0.25905395070E+02 -0.16918578152E+02  0.26378709939E+02  0.40659120975E+02  0.00000000000E+00 0. -1.
         11    1    3    3    0    0  0.20206622511E+01 -0.13337017670E+00 -0.56902515510E+01  0.60398531863E+01  0.51100000000E-03 0. -1.
        -11    1    3    3    0    0  0.22513729459E+02  0.14077529151E+02 -0.26692259406E+02  0.37649987432E+02  0.51100000000E-03 0.  1.
        -12    1    3    3    0    0  0.13710033600E+01  0.29744191773E+01  0.60038010187E+01  0.68390384067E+01  0.00000000000E+00 0.  1.
</event>
<event>
 7    1  0.5843820E-012  0.5052886E+02  0.7816164E-02  0.1300439E+00
        -11   -1    0    0    0    0  0.00000000000E+00  0.00000000000E+00  0.45593999997E+02  0.45594000000E+02  0.51100000000E-03 0. -1.
         11   -1    0    0    0    0 -0.00000000000E+00 -0.00000000000E+00 -0.45593999997E+02  0.45594000000E+02  0.51100000000E-03 0.  1.
    9900012    2    1    2    0    0  0.18206152625E+02 -0.24879563485E+02 -0.26508663093E+02  0.50528857220E+02  0.29999992007E+02 0.  0.
         12    1    1    2    0    0 -0.18206152625E+02  0.24879563485E+02  0.26508663093E+02  0.40659142780E+02  0.00000000000E+00 0. -1.
         11    1    3    3    0    0  0.78215060318E+01  0.13462459942E+01 -0.12123712022E+02  0.14490435754E+02  0.51100000000E-03 0. -1.
        -11    1    3    3    0    0  0.14580212134E+02 -0.14466452665E+02 -0.83620133563E+01  0.22176205857E+02  0.51100000000E-03 0.  1.
        -12    1    3    3    0    0 -0.41955655407E+01 -0.11759356814E+02 -0.60229377139E+01  0.13862215609E+02  0.00000000000E+00 0.  1.
</event>
<event>
 7    1  0.5843820E-012  0.5052886E+02  0.7816164E-02  0.1300439E+00
        -11   -1    0    0    0    0  0.00000000000E+00  0.00000000000E+00  0.45593999997E+02  0.45594000000E+02  0.51100000000E-03 0. -1.
         11   -1    0    0    0    0 -0.00000000000E+00 -0.00000000000E+00 -0.45593999997E+02  0.45594000000E+02  0.51100000000E-03 0.  1.
    9900012    2    1    2    0    0  0.17330731296E+02 -0.33653459531E+02  0.14841021843E+02  0.50528861852E+02  0.30000006084E+02 0.  0.
        -12    1    1    2    0    0 -0.17330731296E+02  0.33653459531E+02 -0.14841021843E+02  0.40659138148E+02  0.00000000000E+00 0.  1.
         11    1    3    3    0    0 -0.38039206687E+01 -0.54553400471E+01  0.54454397842E+01  0.85955431584E+01  0.51100000000E-03 0. -1.
        -11    1    3    3    0    0  0.16712207695E+02 -0.19609419111E+02 -0.33053017261E+01  0.25975993218E+02  0.51100000000E-03 0.  1.
         12    1    3    3    0    0  0.44224442696E+01 -0.85887003729E+01  0.12700883785E+02  0.15957325475E+02  0.00000000000E+00 0. -1.
</event>
<event>
 7    1  0.5843820E-012  0.5052887E+02  0.7816164E-02  0.1300439E+00
        -11   -1    0    0    0    0  0.00000000000E+00  0.00000000000E+00  0.45593999997E+02  0.45594000000E+02  0.51100000000E-03 0.  1.
         11   -1    0    0    0    0 -0.00000000000E+00 -0.00000000000E+00 -0.45593999997E+02  0.45594000000E+02  0.51100000000E-03 0. -1.
    9900012    2    1    2    0    0 -0.88400927766E+01 -0.28599562157E+02 -0.27515129438E+02  0.50528873794E+02  0.30000042383E+02 0.  0.
         12    1    1    2    0    0  0.88400927766E+01  0.28599562157E+02  0.27515129438E+02  0.40659126206E+02  0.00000000000E+00 0. -1.
         11    1    3    3    0    0 -0.50340813909E+01 -0.23732533949E+02 -0.15719457315E+02  0.28908069489E+02  0.51100000000E-03 0. -1.
        -11    1    3    3    0    0  0.32564015884E+01 -0.56686306796E+01 -0.12867244191E+02  0.14432723181E+02  0.51100000000E-03 0.  1.
         12    1    3    3    0    0 -0.70624129741E+01  0.80160247108E+00  0.10715720676E+01  0.71880811233E+01  0.00000000000E+00 0. -1.
</event>
<event>
 7    1  0.5843820E-012  0.5052884E+02  0.7816164E-02  0.1300439E+00
        -11   -1    0    0    0    0  0.00000000000E+00  0.00000000000E+00  0.45593999997E+02  0.45594000000E+02  0.51100000000E-03 0. -1.
         11   -1    0    0    0    0 -0.00000000000E+00 -0.00000000000E+00 -0.45593999997E+02  0.45594000000E+02  0.51100000000E-03 0.  1.
    9900012    2    1    2    0    0 -0.21456481824E+01  0.44174958103E+01 -0.40361481074E+02  0.50528840763E+02  0.29999941984E+02 0.  0.
         12    1    1    2    0    0  0.21456481824E+01 -0.44174958103E+01  0.40361481074E+02  0.40659159237E+02  0.00000000000E+00 0. -1.
         11    1    3    3    0    0 -0.56457386601E+01 -0.25773436079E+01 -0.23124445262E+02  0.23942786681E+02  0.51100000000E-03 0. -1.
        -11    1    3    3    0    0 -0.74157601637E+01  0.29535127216E+00 -0.67622780924E+01  0.10040375314E+02  0.51100000000E-03 0.  1.
        -12    1    3    3    0    0  0.10915850641E+02  0.66994881460E+01 -0.10474757719E+02  0.16545678769E+02  0.00000000000E+00 0.  1.
</event>
<event>
 7    1  0.5843820E-012  0.5052886E+02  0.7816164E-02  0.1300439E+00
        -11   -1    0    0    0    0  0.00000000000E+00  0.00000000000E+00  0.45593999997E+02  0.45594000000E+02  0.51100000000E-03 0. -1.
         11   -1    0    0    0    0 -0.00000000000E+00 -0.00000000000E+00 -0.45593999997E+02  0.45594000000E+02  0.51100000000E-03 0.  1.
    9900012    2    1    2    0    0 -0.26834007068E+02  0.22037748669E+01  0.30467114904E+02  0.50528860197E+02  0.30000001054E+02 0.  0.
        -12    1    1    2    0    0  0.26834007068E+02 -0.22037748669E+01 -0.30467114904E+02  0.40659139803E+02  0.00000000000E+00 0.  1.
         11    1    3    3    0    0  0.33365258412E+00 -0.11212234882E+01  0.11001090533E+02  0.11063112552E+02  0.51100000000E-03 0. -1.
        -11    1    3    3    0    0 -0.29547963789E+00 -0.58631810135E+01  0.42430977540E+01  0.72434852540E+01  0.51100000000E-03 0.  1.
        -12    1    3    3    0    0 -0.26872180014E+02  0.91881793686E+01  0.15222926617E+02  0.32222262391E+02  0.00000000000E+00 0.  1.
</event>
<event>
 7    1  0.5843820E-012  0.5052886E+02  0.7816164E-02  0.1300439E+00
        -11   -1    0    0    0    0  0.00000000000E+00  0.00000000000E+00  0.45593999997E+02  0.45594000000E+02  0.51100000000E-03 0. -1.
         11   -1    0    0    0    0 -0.00000000000E+00 -0.00000000000E+00 -0.45593999997E+02  0.45594000000E+02  0.51100000000E-03 0.  1.
    9900012    2    1    2    0    0  0.10024077396E+02 -0.13881554266E+02 -0.36877988999E+02  0.50528858973E+02  0.29999997333E+02 0.  0.
         12    1    1    2    0    0 -0.10024077396E+02  0.13881554266E+02  0.36877988999E+02  0.40659141027E+02  0.00000000000E+00 0. -1.
         11    1    3    3    0    0  0.43641887479E+01 -0.41319361605E+01 -0.39659078576E+01  0.72005184020E+01  0.51100000000E-03 0. -1.
        -11    1    3    3    0    0  0.81905169477E+01  0.58778979094E+01 -0.50327787185E+01  0.11267790981E+02  0.51100000000E-03 0.  1.
        -12    1    3    3    0    0 -0.25306282995E+01 -0.15627516015E+02 -0.27879302423E+02  0.32060549589E+02  0.00000000000E+00 0.  1.
</event>
<event>
 7    1  0.5843820E-012  0.5052885E+02  0.7816164E-02  0.1300439E+00
        -11   -1    0    0    0    0  0.00000000000E+00  0.00000000000E+00  0.45593999997E+02  0.45594000000E+02  0.51100000000E-03 0.  1.
         11   -1    0    0    0    0 -0.00000000000E+00 -0.00000000000E+00 -0.45593999997E+02  0.45594000000E+02  0.51100000000E-03 0. -1.
    9900012    2    1    2    0    0 -0.32499756031E+02  0.24314537096E+02 -0.23948806140E+01  0.50528852082E+02  0.29999976387E+02 0.  0.
         12    1    1    2    0    0  0.32499756031E+02 -0.24314537096E+02  0.23948806140E+01  0.40659147918E+02  0.00000000000E+00 0. -1.
         11    1    3    3    0    0 -0.86357129799E+01  0.22527882006E+01  0.14985022969E+01  0.90496465535E+01  0.51100000000E-03 0. -1.
        -11    1    3    3    0    0 -0.17136964082E+02  0.14646138331E+02  0.97459639946E+01  0.24559493488E+02  0.51100000000E-03 0.  1.
         12    1    3    3    0    0 -0.67270789696E+01  0.74156105648E+01 -0.13639346906E+02  0.16919712040E+02  0.00000000000E+00 0. -1.
</event>
<event>
 7    1  0.5843820E-012  0.5052885E+02  0.7816164E-02  0.1300439E+00
        -11   -1    0    0    0    0  0.00000000000E+00  0.00000000000E+00  0.45593999997E+02  0.45594000000E+02  0.51100000000E-03 0. -1.
         11   -1    0    0    0    0 -0.00000000000E+00 -0.00000000000E+00 -0.45593999997E+02  0.45594000000E+02  0.51100000000E-03 0.  1.
    9900012    2    1    2    0    0  0.12847195212E+02 -0.14651490625E+02  0.35685435163E+02  0.50528845002E+02  0.29999954870E+02 0.  0.
        -12    1    1    2    0    0 -0.12847195212E+02  0.14651490625E+02 -0.35685435163E+02  0.40659154998E+02  0.00000000000E+00 0.  1.
         11    1    3    3    0    0  0.37368424480E+01 -0.16984630953E+02  0.14925304808E+02  0.22917382136E+02  0.51100000000E-03 0. -1.
        -11    1    3    3    0    0 -0.41059513718E+01  0.16967935781E+01  0.84116727608E+01  0.95128431086E+01  0.51100000000E-03 0.  1.
         12    1    3    3    0    0  0.13216304136E+02  0.63634674954E+00  0.12348457594E+02  0.18098619758E+02  0.00000000000E+00 0. -1.
</event>
<event>
 7    1  0.8204156E-012  0.5052894E+02  0.7816164E-02  0.1300439E+00
        -11   -1    0    0    0    0  0.00000000000E+00  0.00000000000E+00  0.45593999997E+02  0.45594000000E+02  0.51100000000E-03 0. -1.
         11   -1    0    0    0    0 -0.00000000000E+00 -0.00000000000E+00 -0.45593999997E+02  0.45594000000E+02  0.51100000000E-03 0.  1.
    9900012    2    1    2    0    0 -0.28744055987E+02  0.12047522454E+02 -0.26111218819E+02  0.50528938278E+02  0.30000238390E+02 0.  0.
         12    1    1    2    0    0  0.28744055987E+02 -0.12047522454E+02  0.26111218819E+02  0.40659061722E+02  0.00000000000E+00 0. -1.
         11    1    3    3    0    0  0.71552318045E+00  0.24577728175E+01  0.22898240287E+01  0.34345181595E+01  0.51100000000E-03 0. -1.
        -11    1    3    3    0    0 -0.95751862097E+01  0.31530122299E+01  0.19257560622E+01  0.10263245770E+02  0.51100000000E-03 0.  1.
        -12    1    3    3    0    0 -0.19884392958E+02  0.64367374064E+01 -0.30326798910E+02  0.36831174348E+02  0.00000000000E+00 0.  1.
</event>
<event>
 7    1  0.5843820E-012  0.5052886E+02  0.7816164E-02  0.1300439E+00
        -11   -1    0    0    0    0  0.00000000000E+00  0.00000000000E+00  0.45593999997E+02  0.45594000000E+02  0.51100000000E-03 0. -1.
         11   -1    0    0    0    0 -0.00000000000E+00 -0.00000000000E+00 -0.45593999997E+02  0.45594000000E+02  0.51100000000E-03 0.  1.
    9900012    2    1    2    0    0  0.23963206258E+02  0.26515081590E+02  0.19387650295E+02  0.50528858471E+02  0.29999995810E+02 0.  0.
        -12    1    1    2    0    0 -0.23963206258E+02 -0.26515081590E+02 -0.19387650295E+02  0.40659141529E+02  0.00000000000E+00 0.  1.
         11    1    3    3    0    0  0.91372557209E+01  0.13453992300E+02 -0.14426396633E+01  0.16327294950E+02  0.51100000000E-03 0. -1.
        -11    1    3    3    0    0  0.12224731750E+02  0.37404288238E+01  0.18774841180E+01  0.12921293318E+02  0.51100000000E-03 0.  1.
         12    1    3    3    0    0  0.26012187876E+01  0.93206604655E+01  0.18952805841E+02  0.21280270203E+02  0.00000000000E+00 0. -1.
</event>
<event>
 7    1  0.5843820E-012  0.5052888E+02  0.7816164E-02  0.1300439E+00
        -11   -1    0    0    0    0  0.00000000000E+00  0.00000000000E+00  0.45593999997E+02  0.45594000000E+02  0.51100000000E-03 0. -1.
         11   -1    0    0    0    0 -0.00000000000E+00 -0.00000000000E+00 -0.45593999997E+02  0.45594000000E+02  0.51100000000E-03 0.  1.
    9900012    2    1    2    0    0  0.15971413524E+02 -0.13156824819E+02 -0.34999662054E+02  0.50528875155E+02  0.30000046520E+02 0.  0.
         12    1    1    2    0    0 -0.15971413524E+02  0.13156824819E+02  0.34999662054E+02  0.40659124845E+02  0.00000000000E+00 0. -1.
         11    1    3    3    0    0  0.10634010800E+02  0.38227143480E+00 -0.93994232149E+01  0.14197798216E+02  0.51100000000E-03 0. -1.
        -11    1    3    3    0    0  0.99488130761E+01 -0.78487513605E+00 -0.38452965386E+01  0.10694915443E+02  0.51100000000E-03 0.  1.
         12    1    3    3    0    0 -0.46114103519E+01 -0.12754221117E+02 -0.21754942301E+02  0.25636161496E+02  0.00000000000E+00 0. -1.
</event>
<event>
 7    1  0.5843820E-012  0.5052886E+02  0.7816164E-02  0.1300439E+00
        -11   -1    0    0    0    0  0.00000000000E+00  0.00000000000E+00  0.45593999997E+02  0.45594000000E+02  0.51100000000E-03 0. -1.
         11   -1    0    0    0    0 -0.00000000000E+00 -0.00000000000E+00 -0.45593999997E+02  0.45594000000E+02  0.51100000000E-03 0.  1.
    9900012    2    1    2    0    0  0.32490607608E+02 -0.15796233439E+02  0.18654902709E+02  0.50528856272E+02  0.29999989124E+02 0.  0.
        -12    1    1    2    0    0 -0.32490607608E+02  0.15796233439E+02 -0.18654902709E+02  0.40659143728E+02  0.00000000000E+00 0.  1.
         11    1    3    3    0    0  0.21807111644E+02 -0.10139944152E+02  0.13546104346E+02  0.27601911689E+02  0.51100000000E-03 0. -1.
        -11    1    3    3    0    0  0.17406540561E+01  0.80954159668E+00  0.10479565724E+02  0.10653944442E+02  0.51100000000E-03 0.  1.
        -12    1    3    3    0    0  0.89428419081E+01 -0.64658308837E+01 -0.53707673612E+01  0.12273000141E+02  0.00000000000E+00 0.  1.
</event>
<event>
 7    1  0.5843820E-012  0.5052886E+02  0.7816164E-02  0.1300439E+00
        -11   -1    0    0    0    0  0.00000000000E+00  0.00000000000E+00  0.45593999997E+02  0.45594000000E+02  0.51100000000E-03 0. -1.
         11   -1    0    0    0    0 -0.00000000000E+00 -0.00000000000E+00 -0.45593999997E+02  0.45594000000E+02  0.51100000000E-03 0.  1.
    9900012    2    1    2    0    0 -0.48325541108E+01 -0.35975521137E+01 -0.40210321288E+02  0.50528857135E+02  0.29999991748E+02 0.  0.
         12    1    1    2    0    0  0.48325541108E+01  0.35975521137E+01  0.40210321288E+02  0.40659142865E+02  0.00000000000E+00 0. -1.
         11    1    3    3    0    0  0.42773058871E+01 -0.28564872484E+00 -0.25089671201E+02  0.25453261914E+02  0.51100000000E-03 0. -1.
        -11    1    3    3    0    0 -0.47765486677E+01 -0.96913262672E+00 -0.18480776307E+02  0.19112658852E+02  0.51100000000E-03 0.  1.
        -12    1    3    3    0    0 -0.43333113303E+01 -0.23427707621E+01  0.33601262199E+01  0.59629363692E+01  0.00000000000E+00 0.  1.
</event>
<event>
 7    1  0.5843820E-012  0.5052885E+02  0.7816164E-02  0.1300439E+00
        -11   -1    0    0    0    0  0.00000000000E+00  0.00000000000E+00  0.45593999997E+02  0.45594000000E+02  0.51100000000E-03 0. -1.
         11   -1    0    0    0    0 -0.00000000000E+00 -0.00000000000E+00 -0.45593999997E+02  0.45594000000E+02  0.51100000000E-03 0.  1.
    9900012    2    1    2    0    0 -0.57490886515E+01  0.12246823215E+02  0.38342273754E+02  0.50528847823E+02  0.29999963442E+02 0.  0.
        -12    1    1    2    0    0  0.57490886515E+01 -0.12246823215E+02 -0.38342273754E+02  0.40659152177E+02  0.00000000000E+00 0.  1.
         11    1    3    3    0    0  0.38983170131E+01 -0.33382665196E+01  0.78101850676E+01  0.93455813057E+01  0.51100000000E-03 0. -1.
        -11    1    3    3    0    0  0.19938269863E+01  0.12090941247E+01 -0.24409638904E+01  0.33757309770E+01  0.51100000000E-03 0.  1.
         12    1    3    3    0    0 -0.11641232651E+02  0.14375995610E+02  0.32973052576E+02  0.37807535540E+02  0.00000000000E+00 0. -1.
</event>
<event>
 7    1  0.5843820E-012  0.5052885E+02  0.7816164E-02  0.1300439E+00
        -11   -1    0    0    0    0  0.00000000000E+00  0.00000000000E+00  0.45593999997E+02  0.45594000000E+02  0.51100000000E-03 0. -1.
         11   -1    0    0    0    0 -0.00000000000E+00 -0.00000000000E+00 -0.45593999997E+02  0.45594000000E+02  0.51100000000E-03 0.  1.
    9900012    2    1    2    0    0 -0.71163092526E+01 -0.28702625533E+02  0.27904908333E+02  0.50528849998E+02  0.29999970052E+02 0.  0.
        -12    1    1    2    0    0  0.71163092526E+01  0.28702625533E+02 -0.27904908333E+02  0.40659150002E+02  0.00000000000E+00 0.  1.
         11    1    3    3    0    0 -0.12160991993E+02 -0.11161594960E+02  0.63102676696E+01  0.17671740339E+02  0.51100000000E-03 0. -1.
        -11    1    3    3    0    0 -0.43754802899E+01 -0.56614177997E+01  0.91254400456E+00  0.72131280379E+01  0.51100000000E-03 0.  1.
         12    1    3    3    0    0  0.94201630299E+01 -0.11879612774E+02  0.20682096659E+02  0.25643981621E+02  0.00000000000E+00 0. -1.
</event>
<event>
 7    1  0.5843820E-012  0.5052886E+02  0.7816164E-02  0.1300439E+00
        -11   -1    0    0    0    0  0.00000000000E+00  0.00000000000E+00  0.45593999997E+02  0.45594000000E+02  0.51100000000E-03 0. -1.
         11   -1    0    0    0    0 -0.00000000000E+00 -0.00000000000E+00 -0.45593999997E+02  0.45594000000E+02  0.51100000000E-03 0.  1.
    9900012    2    1    2    0    0 -0.14106310992E+02  0.15487734854E+02 -0.34846917790E+02  0.50528860558E+02  0.30000002152E+02 0.  0.
         12    1    1    2    0    0  0.14106310992E+02 -0.15487734854E+02  0.34846917790E+02  0.40659139442E+02  0.00000000000E+00 0. -1.
         11    1    3    3    0    0 -0.87002245928E+01 -0.11865753872E+01 -0.46905091471E+01  0.99550361845E+01  0.51100000000E-03 0. -1.
        -11    1    3    3    0    0  0.59511744001E+01  0.29573489111E+01 -0.14652044029E+01  0.68050873269E+01  0.51100000000E-03 0.  1.
        -12    1    3    3    0    0 -0.11357260799E+02  0.13716961330E+02 -0.28691204240E+02  0.33768737047E+02  0.00000000000E+00 0.  1.
</event>
<event>
 7    1  0.5843820E-012  0.5052872E+02  0.7816164E-02  0.1300439E+00
        -11   -1    0    0    0    0  0.00000000000E+00  0.00000000000E+00  0.45593999997E+02  0.45594000000E+02  0.51100000000E-03 0.  1.
         11   -1    0    0    0    0 -0.00000000000E+00 -0.00000000000E+00 -0.45593999997E+02  0.45594000000E+02  0.51100000000E-03 0. -1.
    9900012    2    1    2    0    0 -0.21497177288E+02 -0.29876622557E+02 -0.17275284972E+02  0.50528724580E+02  0.29999588832E+02 0.  0.
         12    1    1    2    0    0  0.21497177288E+02  0.29876622557E+02  0.17275284972E+02  0.40659275420E+02  0.00000000000E+00 0. -1.
         11    1    3    3    0    0 -0.94230691652E+01 -0.52723266550E+01 -0.17585810899E+02  0.20636191656E+02  0.51100000000E-03 0. -1.
        -11    1    3    3    0    0  0.49970987897E+00  0.11286865408E+01  0.20756746928E+00  0.12516899720E+01  0.51100000000E-03 0.  1.
        -12    1    3    3    0    0 -0.12573818002E+02 -0.25732982443E+02  0.10295845776E+00  0.28640842952E+02  0.00000000000E+00 0.  1.
</event>
<event>
 7    1  0.5843820E-012  0.5052885E+02  0.7816164E-02  0.1300439E+00
        -11   -1    0    0    0    0  0.00000000000E+00  0.00000000000E+00  0.45593999997E+02  0.45594000000E+02  0.51100000000E-03 0. -1.
         11   -1    0    0    0    0 -0.00000000000E+00 -0.00000000000E+00 -0.45593999997E+02  0.45594000000E+02  0.51100000000E-03 0.  1.
    9900012    2    1    2    0    0  0.64336083441E+01  0.95808640642E+01  0.38986951688E+02  0.50528847593E+02  0.29999962742E+02 0.  0.
        -12    1    1    2    0    0 -0.64336083441E+01 -0.95808640642E+01 -0.38986951688E+02  0.40659152407E+02  0.00000000000E+00 0.  1.
         11    1    3    3    0    0  0.16064671515E+01  0.10233760352E+02  0.19433065367E+01  0.10539783119E+02  0.51100000000E-03 0. -1.
        -11    1    3    3    0    0 -0.36954113501E+01 -0.38255741569E+01  0.19705563688E+02  0.20410789382E+02  0.51100000000E-03 0.  1.
        -12    1    3    3    0    0  0.85225525427E+01  0.31726778695E+01  0.17338081464E+02  0.19578275091E+02  0.00000000000E+00 0.  1.
</event>
<event>
 7    1  0.5843820E-012  0.5052886E+02  0.7816164E-02  0.1300439E+00
        -11   -1    0    0    0    0  0.00000000000E+00  0.00000000000E+00  0.45593999997E+02  0.45594000000E+02  0.51100000000E-03 0. -1.
         11   -1    0    0    0    0 -0.00000000000E+00 -0.00000000000E+00 -0.45593999997E+02  0.45594000000E+02  0.51100000000E-03 0.  1.
    9900012    2    1    2    0    0 -0.38506365588E+02  0.39220420660E+01  0.12451618464E+02  0.50528863178E+02  0.30000010116E+02 0.  0.
        -12    1    1    2    0    0  0.38506365588E+02 -0.39220420660E+01 -0.12451618464E+02  0.40659136822E+02  0.00000000000E+00 0.  1.
         11    1    3    3    0    0 -0.18887833938E+02 -0.47657971706E+01  0.81350416080E+01  0.21110234385E+02  0.51100000000E-03 0. -1.
        -11    1    3    3    0    0 -0.14223456760E+02 -0.42024568052E+01  0.13250952425E+00  0.14831888769E+02  0.51100000000E-03 0.  1.
         12    1    3    3    0    0 -0.53950748891E+01  0.12890296042E+02  0.41840673320E+01  0.14586740024E+02  0.00000000000E+00 0. -1.
</event>
<event>
 7    1  0.5843820E-012  0.5052888E+02  0.7816164E-02  0.1300439E+00
        -11   -1    0    0    0    0  0.00000000000E+00  0.00000000000E+00  0.45593999997E+02  0.45594000000E+02  0.51100000000E-03 0. -1.
         11   -1    0    0    0    0 -0.00000000000E+00 -0.00000000000E+00 -0.45593999997E+02  0.45594000000E+02  0.51100000000E-03 0.  1.
    9900012    2    1    2    0    0  0.35399069518E+02  0.16528666943E+02 -0.11263781201E+02  0.50528883918E+02  0.30000073156E+02 0.  0.
         12    1    1    2    0    0 -0.35399069518E+02 -0.16528666943E+02  0.11263781201E+02  0.40659116082E+02  0.00000000000E+00 0. -1.
         11    1    3    3    0    0  0.29996135621E+01  0.47719109319E+01 -0.61981006480E+01  0.83776647920E+01  0.51100000000E-03 0. -1.
        -11    1    3    3    0    0  0.24540174554E+02 -0.31313557820E+01 -0.53613004398E+01  0.25313417368E+02  0.51100000000E-03 0.  1.
         12    1    3    3    0    0  0.78592814023E+01  0.14888111793E+02  0.29561988709E+00  0.16837801758E+02  0.00000000000E+00 0. -1.
</event>
<event>
 7    1  0.5843820E-012  0.5052886E+02  0.7816164E-02  0.1300439E+00
        -11   -1    0    0    0    0  0.00000000000E+00  0.00000000000E+00  0.45593999997E+02  0.45594000000E+02  0.51100000000E-03 0. -1.
         11   -1    0    0    0    0 -0.00000000000E+00 -0.00000000000E+00 -0.45593999997E+02  0.45594000000E+02  0.51100000000E-03 0.  1.
    9900012    2    1    2    0    0 -0.26682254538E+02 -0.12600925560E+02  0.27972120870E+02  0.50528861074E+02  0.30000003721E+02 0.  0.
        -12    1    1    2    0    0  0.26682254538E+02  0.12600925560E+02 -0.27972120870E+02  0.40659138926E+02  0.00000000000E+00 0.  1.
         11    1    3    3    0    0 -0.19209637800E+02 -0.14572209730E+02  0.16265917463E+02  0.29085040004E+02  0.51100000000E-03 0. -1.
        -11    1    3    3    0    0  0.15440039525E+01 -0.24074380517E+01 -0.26737023969E+01  0.39151489047E+01  0.51100000000E-03 0.  1.
        -12    1    3    3    0    0 -0.90166206908E+01  0.43787222216E+01  0.14379905804E+02  0.17528672166E+02  0.00000000000E+00 0.  1.
</event>
<event>
 7    1  0.5843820E-012  0.5052886E+02  0.7816164E-02  0.1300439E+00
        -11   -1    0    0    0    0  0.00000000000E+00  0.00000000000E+00  0.45593999997E+02  0.45594000000E+02  0.51100000000E-03 0. -1.
         11   -1    0    0    0    0 -0.00000000000E+00 -0.00000000000E+00 -0.45593999997E+02  0.45594000000E+02  0.51100000000E-03 0.  1.
    9900012    2    1    2    0    0  0.23142382110E+02  0.29542217244E+02  0.15647777299E+02  0.50528863465E+02  0.30000010987E+02 0.  0.
        -12    1    1    2    0    0 -0.23142382110E+02 -0.29542217244E+02 -0.15647777299E+02  0.40659136535E+02  0.00000000000E+00 0.  1.
         11    1    3    3    0    0 -0.70321146199E-01 -0.99410613085E+00  0.63737653264E+01  0.64512073878E+01  0.51100000000E-03 0.  1.
        -11    1    3    3    0    0  0.99616089906E+01  0.26570762051E+02  0.19931230320E+01  0.28446644605E+02  0.51100000000E-03 0. -1.
         12    1    3    3    0    0  0.13251094266E+02  0.39655613239E+01  0.72808889401E+01  0.15631011471E+02  0.00000000000E+00 0. -1.
</event>
<event>
 7    1  0.5843820E-012  0.5052886E+02  0.7816164E-02  0.1300439E+00
        -11   -1    0    0    0    0  0.00000000000E+00  0.00000000000E+00  0.45593999997E+02  0.45594000000E+02  0.51100000000E-03 0. -1.
         11   -1    0    0    0    0 -0.00000000000E+00 -0.00000000000E+00 -0.45593999997E+02  0.45594000000E+02  0.51100000000E-03 0.  1.
    9900012    2    1    2    0    0 -0.79636373366E+01  0.17874919091E+02  0.35640337744E+02  0.50528856789E+02  0.29999990697E+02 0.  0.
        -12    1    1    2    0    0  0.79636373366E+01 -0.17874919091E+02 -0.35640337744E+02  0.40659143211E+02  0.00000000000E+00 0.  1.
         11    1    3    3    0    0 -0.34121511463E+01  0.31809488368E+01  0.14013545055E+02  0.14769585513E+02  0.51100000000E-03 0. -1.
        -11    1    3    3    0    0 -0.85606563299E+00  0.91558387430E+01  0.26143698220E+02  0.27713808622E+02  0.51100000000E-03 0.  1.
         12    1    3    3    0    0 -0.36954205572E+01  0.55381315116E+01 -0.45169055320E+01  0.80454626542E+01  0.00000000000E+00 0. -1.
</event>
<event>
 7    1  0.5843820E-012  0.5052885E+02  0.7816164E-02  0.1300439E+00
        -11   -1    0    0    0    0  0.00000000000E+00  0.00000000000E+00  0.45593999997E+02  0.45594000000E+02  0.51100000000E-03 0. -1.
         11   -1    0    0    0    0 -0.00000000000E+00 -0.00000000000E+00 -0.45593999997E+02  0.45594000000E+02  0.51100000000E-03 0.  1.
    9900012    2    1    2    0    0 -0.33245234506E+01 -0.86853989225E+00  0.40513694494E+02  0.50528852699E+02  0.29999978263E+02 0.  0.
        -12    1    1    2    0    0  0.33245234506E+01  0.86853989225E+00 -0.40513694494E+02  0.40659147301E+02  0.00000000000E+00 0.  1.
         11    1    3    3    0    0 -0.99593127223E-01 -0.96024241449E+00  0.21245064555E+01  0.23335621325E+01  0.51100000000E-03 0. -1.
        -11    1    3    3    0    0 -0.13997789436E+02 -0.67235766083E+01  0.15180719127E+02  0.21716326231E+02  0.51100000000E-03 0.  1.
         12    1    3    3    0    0  0.10772859112E+02  0.68152791305E+01  0.23208468911E+02  0.26478964336E+02  0.00000000000E+00 0. -1.
</event>
<event>
 7    1  0.5843820E-012  0.5052887E+02  0.7816164E-02  0.1300439E+00
        -11   -1    0    0    0    0  0.00000000000E+00  0.00000000000E+00  0.45593999997E+02  0.45594000000E+02  0.51100000000E-03 0. -1.
         11   -1    0    0    0    0 -0.00000000000E+00 -0.00000000000E+00 -0.45593999997E+02  0.45594000000E+02  0.51100000000E-03 0.  1.
    9900012    2    1    2    0    0  0.78998564071E+01  0.20532501070E+01 -0.39831414476E+02  0.50528866384E+02  0.30000019860E+02 0.  0.
         12    1    1    2    0    0 -0.78998564071E+01 -0.20532501070E+01  0.39831414476E+02  0.40659133616E+02  0.00000000000E+00 0. -1.
         11    1    3    3    0    0  0.13044376980E+02  0.22444627726E+01 -0.23222834249E+02  0.26730009628E+02  0.51100000000E-03 0. -1.
        -11    1    3    3    0    0  0.43681293629E+01  0.45418801087E+01 -0.48569214267E+01  0.79560615294E+01  0.51100000000E-03 0.  1.
         12    1    3    3    0    0 -0.95126499355E+01 -0.47330927743E+01 -0.11751658801E+02  0.15842795226E+02  0.00000000000E+00 0. -1.
</event>
<event>
 7    1  0.5843820E-012  0.5052885E+02  0.7816164E-02  0.1300439E+00
        -11   -1    0    0    0    0  0.00000000000E+00  0.00000000000E+00  0.45593999997E+02  0.45594000000E+02  0.51100000000E-03 0. -1.
         11   -1    0    0    0    0 -0.00000000000E+00 -0.00000000000E+00 -0.45593999997E+02  0.45594000000E+02  0.51100000000E-03 0.  1.
    9900012    2    1    2    0    0 -0.30549620153E+02  0.22208713429E+02 -0.15055237114E+02  0.50528850867E+02  0.29999972697E+02 0.  0.
         12    1    1    2    0    0  0.30549620153E+02 -0.22208713429E+02  0.15055237114E+02  0.40659149133E+02  0.00000000000E+00 0. -1.
         11    1    3    3    0    0  0.24050207586E+01  0.53991679513E+01 -0.49718624433E+01  0.77236361794E+01  0.51100000000E-03 0. -1.
        -11    1    3    3    0    0 -0.11014764133E+01 -0.36018055531E+01 -0.10434789270E+01  0.39083375064E+01  0.51100000000E-03 0.  1.
         12    1    3    3    0    0 -0.31853164498E+02  0.20411351031E+02 -0.90398957433E+01  0.38896877182E+02  0.00000000000E+00 0. -1.
</event>
<event>
 7    1  0.5843820E-012  0.5052886E+02  0.7816164E-02  0.1300439E+00
        -11   -1    0    0    0    0  0.00000000000E+00  0.00000000000E+00  0.45593999997E+02  0.45594000000E+02  0.51100000000E-03 0. -1.
         11   -1    0    0    0    0 -0.00000000000E+00 -0.00000000000E+00 -0.45593999997E+02  0.45594000000E+02  0.51100000000E-03 0.  1.
    9900012    2    1    2    0    0 -0.18661372633E+02 -0.11118021478E+02 -0.34370172408E+02  0.50528856114E+02  0.29999988646E+02 0.  0.
         12    1    1    2    0    0  0.18661372633E+02  0.11118021478E+02  0.34370172408E+02  0.40659143886E+02  0.00000000000E+00 0. -1.
         11    1    3    3    0    0  0.23033720359E-01 -0.10281061165E+02 -0.23233988751E+02  0.25407065608E+02  0.51100000000E-03 0. -1.
        -11    1    3    3    0    0  0.64140778265E+00  0.24663018912E+01 -0.28874223214E+01  0.38511370900E+01  0.51100000000E-03 0.  1.
         12    1    3    3    0    0 -0.19325814136E+02 -0.33032622036E+01 -0.82487613356E+01  0.21270653417E+02  0.00000000000E+00 0. -1.
</event>
<event>
 7    1  0.5843820E-012  0.5052886E+02  0.7816164E-02  0.1300439E+00
        -11   -1    0    0    0    0  0.00000000000E+00  0.00000000000E+00  0.45593999997E+02  0.45594000000E+02  0.51100000000E-03 0. -1.
         11   -1    0    0    0    0 -0.00000000000E+00 -0.00000000000E+00 -0.45593999997E+02  0.45594000000E+02  0.51100000000E-03 0.  1.
    9900012    2    1    2    0    0 -0.64878616326E+01 -0.32744237890E+02 -0.23213964294E+02  0.50528860783E+02  0.30000002837E+02 0.  0.
         12    1    1    2    0    0  0.64878616326E+01  0.32744237890E+02  0.23213964294E+02  0.40659139217E+02  0.00000000000E+00 0. -1.
         11    1    3    3    0    0  0.58915620397E+01 -0.18504826291E+02 -0.83632747499E+01  0.21144348279E+02  0.51100000000E-03 0.  1.
        -11    1    3    3    0    0 -0.70802409378E+01 -0.29988969281E+01  0.24618106728E+01  0.80736427077E+01  0.51100000000E-03 0. -1.
         12    1    3    3    0    0 -0.52991827345E+01 -0.11240514671E+02 -0.17312500217E+02  0.21310869797E+02  0.00000000000E+00 0. -1.
</event>
<event>
 7    1  0.5843820E-012  0.5052887E+02  0.7816164E-02  0.1300439E+00
        -11   -1    0    0    0    0  0.00000000000E+00  0.00000000000E+00  0.45593999997E+02  0.45594000000E+02  0.51100000000E-03 0. -1.
         11   -1    0    0    0    0 -0.00000000000E+00 -0.00000000000E+00 -0.45593999997E+02  0.45594000000E+02  0.51100000000E-03 0.  1.
    9900012    2    1    2    0    0 -0.31143961812E+02 -0.69152668367E+01 -0.25207101630E+02  0.50528865167E+02  0.30000016161E+02 0.  0.
         12    1    1    2    0    0  0.31143961812E+02  0.69152668367E+01  0.25207101630E+02  0.40659134833E+02  0.00000000000E+00 0. -1.
         11    1    3    3    0    0 -0.52529300296E+01 -0.19124879016E+01 -0.68816788337E+01  0.88661371353E+01  0.51100000000E-03 0. -1.
        -11    1    3    3    0    0 -0.11269203402E+02 -0.12123349602E+02 -0.19232002505E+02  0.25374011735E+02  0.51100000000E-03 0.  1.
         12    1    3    3    0    0 -0.14621828381E+02  0.71205706671E+01  0.90657970896E+00  0.16288716297E+02  0.00000000000E+00 0. -1.
</event>
<event>
 7    1  0.5843820E-012  0.5052886E+02  0.7816164E-02  0.1300439E+00
        -11   -1    0    0    0    0  0.00000000000E+00  0.00000000000E+00  0.45593999997E+02  0.45594000000E+02  0.51100000000E-03 0.  1.
         11   -1    0    0    0    0 -0.00000000000E+00 -0.00000000000E+00 -0.45593999997E+02  0.45594000000E+02  0.51100000000E-03 0. -1.
    9900012    2    1    2    0    0 -0.39650132382E+02  0.45271455215E+01 -0.77806107954E+01  0.50528856517E+02  0.29999989868E+02 0.  0.
         12    1    1    2    0    0  0.39650132382E+02 -0.45271455215E+01  0.77806107954E+01  0.40659143483E+02  0.00000000000E+00 0. -1.
         11    1    3    3    0    0 -0.23322424877E+02 -0.22543625507E+00 -0.45196956669E+01  0.23757398276E+02  0.51100000000E-03 0. -1.
        -11    1    3    3    0    0 -0.11873673442E+02 -0.48203204869E+01 -0.80967063763E+01  0.15158372769E+02  0.51100000000E-03 0.  1.
         12    1    3    3    0    0 -0.44540340621E+01  0.95729022635E+01  0.48357912478E+01  0.11613085471E+02  0.00000000000E+00 0. -1.
</event>
<event>
 7    1  0.5843820E-012  0.5052885E+02  0.7816164E-02  0.1300439E+00
        -11   -1    0    0    0    0  0.00000000000E+00  0.00000000000E+00  0.45593999997E+02  0.45594000000E+02  0.51100000000E-03 0.  1.
         11   -1    0    0    0    0 -0.00000000000E+00 -0.00000000000E+00 -0.45593999997E+02  0.45594000000E+02  0.51100000000E-03 0. -1.
    9900012    2    1    2    0    0  0.17354339481E+02  0.34243595000E+02  0.13392884089E+02  0.50528852916E+02  0.29999978924E+02 0.  0.
        -12    1    1    2    0    0 -0.17354339481E+02 -0.34243595000E+02 -0.13392884089E+02  0.40659147084E+02  0.00000000000E+00 0.  1.
         11    1    3    3    0    0  0.22240594244E+02  0.15971708401E+02  0.62492517170E+01  0.28085452620E+02  0.51100000000E-03 0. -1.
        -11    1    3    3    0    0  0.25222945091E+01  0.15277080671E+01  0.13084694783E+01  0.32261361046E+01  0.51100000000E-03 0.  1.
        -12    1    3    3    0    0 -0.74085492715E+01  0.16744178532E+02  0.58351628939E+01  0.19217264192E+02  0.00000000000E+00 0.  1.
</event>
<event>
 7    1  0.5843820E-012  0.5052886E+02  0.7816164E-02  0.1300439E+00
        -11   -1    0    0    0    0  0.00000000000E+00  0.00000000000E+00  0.45593999997E+02  0.45594000000E+02  0.51100000000E-03 0. -1.
         11   -1    0    0    0    0 -0.00000000000E+00 -0.00000000000E+00 -0.45593999997E+02  0.45594000000E+02  0.51100000000E-03 0.  1.
    9900012    2    1    2    0    0  0.23947190342E+02  0.29399496126E+02 -0.14675400708E+02  0.50528859777E+02  0.29999999777E+02 0.  0.
         12    1    1    2    0    0 -0.23947190342E+02 -0.29399496126E+02  0.14675400708E+02  0.40659140223E+02  0.00000000000E+00 0. -1.
         11    1    3    3    0    0  0.29915632309E+02  0.26118508008E+02 -0.13906855939E+02  0.42077573116E+02  0.51100000000E-03 0. -1.
        -11    1    3    3    0    0 -0.53540071353E-02  0.23863528196E+01 -0.20078718405E+00  0.23947910555E+01  0.51100000000E-03 0.  1.
         12    1    3    3    0    0 -0.59630879600E+01  0.89463529935E+00 -0.56775758446E+00  0.60564956049E+01  0.00000000000E+00 0. -1.
</event>
<event>
 7    1  0.5843820E-012  0.5052887E+02  0.7816164E-02  0.1300439E+00
        -11   -1    0    0    0    0  0.00000000000E+00  0.00000000000E+00  0.45593999997E+02  0.45594000000E+02  0.51100000000E-03 0. -1.
         11   -1    0    0    0    0 -0.00000000000E+00 -0.00000000000E+00 -0.45593999997E+02  0.45594000000E+02  0.51100000000E-03 0.  1.
    9900012    2    1    2    0    0  0.31437455879E+02  0.85998606012E+01  0.24308301334E+02  0.50528871280E+02  0.30000034742E+02 0.  0.
        -12    1    1    2    0    0 -0.31437455879E+02 -0.85998606012E+01 -0.24308301334E+02  0.40659128720E+02  0.00000000000E+00 0.  1.
         11    1    3    3    0    0  0.38099730586E+01 -0.49051186679E+01  0.36037815412E+01  0.71807607891E+01  0.51100000000E-03 0. -1.
        -11    1    3    3    0    0 -0.36653380815E+01 -0.64175416362E+00  0.24591878904E+01  0.44602866499E+01  0.51100000000E-03 0.  1.
         12    1    3    3    0    0  0.31292820902E+02  0.14146733433E+02  0.18245331903E+02  0.38887823841E+02  0.00000000000E+00 0. -1.
</event>
<event>
 7    1  0.5843820E-012  0.5052885E+02  0.7816164E-02  0.1300439E+00
        -11   -1    0    0    0    0  0.00000000000E+00  0.00000000000E+00  0.45593999997E+02  0.45594000000E+02  0.51100000000E-03 0. -1.
         11   -1    0    0    0    0 -0.00000000000E+00 -0.00000000000E+00 -0.45593999997E+02  0.45594000000E+02  0.51100000000E-03 0.  1.
    9900012    2    1    2    0    0 -0.87416893173E+01  0.12131423001E+02 -0.37809757755E+02  0.50528851735E+02  0.29999975333E+02 0.  0.
         12    1    1    2    0    0  0.87416893173E+01 -0.12131423001E+02  0.37809757755E+02  0.40659148265E+02  0.00000000000E+00 0. -1.
         11    1    3    3    0    0  0.27571589302E+01  0.34765509884E+01 -0.57744407893E+01  0.72823415761E+01  0.51100000000E-03 0. -1.
        -11    1    3    3    0    0  0.42512595061E+01 -0.43969766632E+01 -0.16390067098E+02  0.17494025006E+02  0.51100000000E-03 0.  1.
         12    1    3    3    0    0 -0.15750107754E+02  0.13051848676E+02 -0.15645249868E+02  0.25752485153E+02  0.00000000000E+00 0. -1.
</event>
<event>
 7    1  0.5843820E-012  0.5052886E+02  0.7816164E-02  0.1300439E+00
        -11   -1    0    0    0    0  0.00000000000E+00  0.00000000000E+00  0.45593999997E+02  0.45594000000E+02  0.51100000000E-03 0. -1.
         11   -1    0    0    0    0 -0.00000000000E+00 -0.00000000000E+00 -0.45593999997E+02  0.45594000000E+02  0.51100000000E-03 0.  1.
    9900012    2    1    2    0    0  0.18903628092E+02 -0.15299509187E+02 -0.32584401998E+02  0.50528863389E+02  0.30000010758E+02 0.  0.
         12    1    1    2    0    0 -0.18903628092E+02  0.15299509187E+02  0.32584401998E+02  0.40659136611E+02  0.00000000000E+00 0. -1.
         11    1    3    3    0    0 -0.81939275811E+00 -0.44614048706E+01 -0.49854640311E+01  0.67402069536E+01  0.51100000000E-03 0. -1.
        -11    1    3    3    0    0  0.17610554750E+01 -0.14832102285E+02 -0.16689183791E+02  0.22396906716E+02  0.51100000000E-03 0.  1.
         12    1    3    3    0    0  0.17961965375E+02  0.39939979682E+01 -0.10909754175E+02  0.21391749719E+02  0.00000000000E+00 0. -1.
</event>
<event>
 7    1  0.5843820E-012  0.5052887E+02  0.7816164E-02  0.1300439E+00
        -11   -1    0    0    0    0  0.00000000000E+00  0.00000000000E+00  0.45593999997E+02  0.45594000000E+02  0.51100000000E-03 0. -1.
         11   -1    0    0    0    0 -0.00000000000E+00 -0.00000000000E+00 -0.45593999997E+02  0.45594000000E+02  0.51100000000E-03 0.  1.
    9900012    2    1    2    0    0 -0.27085564609E+02  0.30180578137E+02 -0.29444916127E+01  0.50528866490E+02  0.30000020184E+02 0.  0.
        -12    1    1    2    0    0  0.27085564609E+02 -0.30180578137E+02  0.29444916127E+01  0.40659133510E+02  0.00000000000E+00 0.  1.
         11    1    3    3    0    0 -0.18043523849E+02  0.56004416137E+01 -0.19060778473E+01  0.18988597426E+02  0.51100000000E-03 0. -1.
        -11    1    3    3    0    0 -0.15260827448E+01 -0.19930536172E+01 -0.29320079521E+01  0.38597748843E+01  0.51100000000E-03 0.  1.
        -12    1    3    3    0    0 -0.75159580153E+01  0.26573190141E+02  0.18935941867E+01  0.27680494181E+02  0.00000000000E+00 0.  1.
</event>
<event>
 7    1  0.5843820E-012  0.5052886E+02  0.7816164E-02  0.1300439E+00
        -11   -1    0    0    0    0  0.00000000000E+00  0.00000000000E+00  0.45593999997E+02  0.45594000000E+02  0.51100000000E-03 0. -1.
         11   -1    0    0    0    0 -0.00000000000E+00 -0.00000000000E+00 -0.45593999997E+02  0.45594000000E+02  0.51100000000E-03 0.  1.
    9900012    2    1    2    0    0  0.28105689986E+02  0.98339204954E+01  0.27686269074E+02  0.50528864530E+02  0.30000014227E+02 0.  0.
        -12    1    1    2    0    0 -0.28105689986E+02 -0.98339204954E+01 -0.27686269074E+02  0.40659135470E+02  0.00000000000E+00 0.  1.
         11    1    3    3    0    0  0.33394042873E+00 -0.48816611727E+00  0.48807645255E+01  0.49164707853E+01  0.51100000000E-03 0. -1.
        -11    1    3    3    0    0  0.26007217924E+02  0.19826799595E+01  0.25693578409E+02  0.36612380088E+02  0.51100000000E-03 0.  1.
         12    1    3    3    0    0  0.17645316331E+01  0.83394066532E+01 -0.28880738605E+01  0.90000136575E+01  0.00000000000E+00 0. -1.
</event>
<event>
 7    1  0.5843820E-012  0.5052885E+02  0.7816164E-02  0.1300439E+00
        -11   -1    0    0    0    0  0.00000000000E+00  0.00000000000E+00  0.45593999997E+02  0.45594000000E+02  0.51100000000E-03 0. -1.
         11   -1    0    0    0    0 -0.00000000000E+00 -0.00000000000E+00 -0.45593999997E+02  0.45594000000E+02  0.51100000000E-03 0.  1.
    9900012    2    1    2    0    0  0.21652972502E+02 -0.56854555816E+01 -0.33940985091E+02  0.50528854753E+02  0.29999984506E+02 0.  0.
         12    1    1    2    0    0 -0.21652972502E+02  0.56854555816E+01  0.33940985091E+02  0.40659145247E+02  0.00000000000E+00 0. -1.
         11    1    3    3    0    0  0.11693677983E+02  0.21190423994E+01 -0.67331820609E+01  0.13658996537E+02  0.51100000000E-03 0. -1.
        -11    1    3    3    0    0 -0.12870714231E+01  0.65315499624E+01 -0.69878898737E+01  0.96513368456E+01  0.51100000000E-03 0.  1.
        -12    1    3    3    0    0  0.11246365941E+02 -0.14336047943E+02 -0.20219913156E+02  0.27218521370E+02  0.00000000000E+00 0.  1.
</event>
<event>
 7    1  0.5843820E-012  0.5052886E+02  0.7816164E-02  0.1300439E+00
        -11   -1    0    0    0    0  0.00000000000E+00  0.00000000000E+00  0.45593999997E+02  0.45594000000E+02  0.51100000000E-03 0. -1.
         11   -1    0    0    0    0 -0.00000000000E+00 -0.00000000000E+00 -0.45593999997E+02  0.45594000000E+02  0.51100000000E-03 0.  1.
    9900012    2    1    2    0    0 -0.36884110653E+02 -0.71073633241E+01 -0.15563215018E+02  0.50528857193E+02  0.29999991925E+02 0.  0.
         12    1    1    2    0    0  0.36884110653E+02  0.71073633241E+01  0.15563215018E+02  0.40659142807E+02  0.00000000000E+00 0. -1.
         11    1    3    3    0    0 -0.17093405368E+02  0.13779139157E+01 -0.45352861085E+00  0.17154848945E+02  0.51100000000E-03 0. -1.
        -11    1    3    3    0    0 -0.21433287456E+02 -0.36354267743E+00 -0.11617076244E+02  0.24381846427E+02  0.51100000000E-03 0.  1.
        -12    1    3    3    0    0  0.16425821712E+01 -0.81217345623E+01 -0.34926101626E+01  0.89921618223E+01  0.00000000000E+00 0.  1.
</event>
<event>
 7    1  0.5843820E-012  0.5052886E+02  0.7816164E-02  0.1300439E+00
        -11   -1    0    0    0    0  0.00000000000E+00  0.00000000000E+00  0.45593999997E+02  0.45594000000E+02  0.51100000000E-03 0. -1.
         11   -1    0    0    0    0 -0.00000000000E+00 -0.00000000000E+00 -0.45593999997E+02  0.45594000000E+02  0.51100000000E-03 0.  1.
    9900012    2    1    2    0    0  0.54706183852E+01  0.22697745918E+02  0.33287394007E+02  0.50528856686E+02  0.29999990382E+02 0.  0.
        -12    1    1    2    0    0 -0.54706183852E+01 -0.22697745918E+02 -0.33287394007E+02  0.40659143314E+02  0.00000000000E+00 0.  1.
         11    1    3    3    0    0 -0.21223853909E+01  0.17695822667E+02  0.15179881390E+02  0.23411011488E+02  0.51100000000E-03 0. -1.
        -11    1    3    3    0    0  0.13170373184E+01  0.38936520071E+01 -0.29873661446E+01  0.50812862539E+01  0.51100000000E-03 0.  1.
        -12    1    3    3    0    0  0.62759664576E+01  0.11082712435E+01  0.21094878762E+02  0.22036558944E+02  0.00000000000E+00 0.  1.
</event>
<event>
 7    1  0.5843820E-012  0.5052886E+02  0.7816164E-02  0.1300439E+00
        -11   -1    0    0    0    0  0.00000000000E+00  0.00000000000E+00  0.45593999997E+02  0.45594000000E+02  0.51100000000E-03 0.  1.
         11   -1    0    0    0    0 -0.00000000000E+00 -0.00000000000E+00 -0.45593999997E+02  0.45594000000E+02  0.51100000000E-03 0. -1.
    9900012    2    1    2    0    0 -0.31091333636E+02  0.24143744166E+02  0.10177128506E+02  0.50528863828E+02  0.30000012091E+02 0.  0.
        -12    1    1    2    0    0  0.31091333636E+02 -0.24143744166E+02 -0.10177128506E+02  0.40659136172E+02  0.00000000000E+00 0.  1.
         11    1    3    3    0    0 -0.31932069085E+01 -0.34492800490E+01 -0.24485446728E+01  0.52999504237E+01  0.51100000000E-03 0. -1.
        -11    1    3    3    0    0 -0.90009304996E+01 -0.10729093043E+01  0.33490864834E+01  0.96635534235E+01  0.51100000000E-03 0.  1.
         12    1    3    3    0    0 -0.18897196228E+02  0.28665933520E+02  0.92765866957E+01  0.35565359981E+02  0.00000000000E+00 0. -1.
</event>
<event>
 7    1  0.5843820E-012  0.5052886E+02  0.7816164E-02  0.1300439E+00
        -11   -1    0    0    0    0  0.00000000000E+00  0.00000000000E+00  0.45593999997E+02  0.45594000000E+02  0.51100000000E-03 0. -1.
         11   -1    0    0    0    0 -0.00000000000E+00 -0.00000000000E+00 -0.45593999997E+02  0.45594000000E+02  0.51100000000E-03 0.  1.
    9900012    2    1    2    0    0  0.28680443508E+02 -0.16508975163E+01  0.28772776169E+02  0.50528856491E+02  0.29999989789E+02 0.  0.
        -12    1    1    2    0    0 -0.28680443508E+02  0.16508975163E+01 -0.28772776169E+02  0.40659143509E+02  0.00000000000E+00 0.  1.
         11    1    3    3    0    0 -0.20467445575E-01  0.17183495690E+01  0.40561296542E+01  0.44051483733E+01  0.51100000000E-03 0.  1.
        -11    1    3    3    0    0 -0.37069393073E+01 -0.44277558904E+01  0.79443571890E+00  0.58290264732E+01  0.51100000000E-03 0. -1.
         12    1    3    3    0    0  0.32407850261E+02  0.10585088051E+01  0.23922210796E+02  0.40294681644E+02  0.00000000000E+00 0. -1.
</event>
<event>
 7    1  0.5843820E-012  0.5052886E+02  0.7816164E-02  0.1300439E+00
        -11   -1    0    0    0    0  0.00000000000E+00  0.00000000000E+00  0.45593999997E+02  0.45594000000E+02  0.51100000000E-03 0. -1.
         11   -1    0    0    0    0 -0.00000000000E+00 -0.00000000000E+00 -0.45593999997E+02  0.45594000000E+02  0.51100000000E-03 0.  1.
    9900012    2    1    2    0    0 -0.90086427115E+01 -0.23687106658E+02  0.31795140991E+02  0.50528860117E+02  0.30000000812E+02 0.  0.
        -12    1    1    2    0    0  0.90086427115E+01  0.23687106658E+02 -0.31795140991E+02  0.40659139883E+02  0.00000000000E+00 0.  1.
         11    1    3    3    0    0 -0.55547711822E+01 -0.38720682761E+01  0.14018349547E+02  0.15567996657E+02  0.51100000000E-03 0. -1.
        -11    1    3    3    0    0 -0.91595741377E+01 -0.12059229877E+00  0.83439087419E+01  0.12390849617E+02  0.51100000000E-03 0.  1.
         12    1    3    3    0    0  0.57057026085E+01 -0.19694446083E+02  0.94328827023E+01  0.22570013843E+02  0.00000000000E+00 0. -1.
</event>
<event>
 7    1  0.5843820E-012  0.5052887E+02  0.7816164E-02  0.1300439E+00
        -11   -1    0    0    0    0  0.00000000000E+00  0.00000000000E+00  0.45593999997E+02  0.45594000000E+02  0.51100000000E-03 0. -1.
         11   -1    0    0    0    0 -0.00000000000E+00 -0.00000000000E+00 -0.45593999997E+02  0.45594000000E+02  0.51100000000E-03 0.  1.
    9900012    2    1    2    0    0  0.36527678006E+01  0.17062102644E+02 -0.36724745580E+02  0.50528868219E+02  0.30000025438E+02 0.  0.
         12    1    1    2    0    0 -0.36527678006E+01 -0.17062102644E+02  0.36724745580E+02  0.40659131781E+02  0.00000000000E+00 0. -1.
         11    1    3    3    0    0 -0.10700362297E+00  0.54856968476E+01 -0.12773276366E+02  0.13901831140E+02  0.51100000000E-03 0.  1.
        -11    1    3    3    0    0  0.69075726056E+01  0.18648343585E+02 -0.18482070723E+02  0.27148889779E+02  0.51100000000E-03 0. -1.
         12    1    3    3    0    0 -0.31478011821E+01 -0.70719377888E+01 -0.54693984921E+01  0.94781472998E+01  0.00000000000E+00 0. -1.
</event>
<event>
 7    1  0.5843820E-012  0.5052887E+02  0.7816164E-02  0.1300439E+00
        -11   -1    0    0    0    0  0.00000000000E+00  0.00000000000E+00  0.45593999997E+02  0.45594000000E+02  0.51100000000E-03 0. -1.
         11   -1    0    0    0    0 -0.00000000000E+00 -0.00000000000E+00 -0.45593999997E+02  0.45594000000E+02  0.51100000000E-03 0.  1.
    9900012    2    1    2    0    0 -0.37623462107E+02  0.11415190828E+02  0.10360199387E+02  0.50528865554E+02  0.30000017337E+02 0.  0.
        -12    1    1    2    0    0  0.37623462107E+02 -0.11415190828E+02 -0.10360199387E+02  0.40659134446E+02  0.00000000000E+00 0.  1.
         11    1    3    3    0    0 -0.18265775924E+02  0.51793600848E+01  0.12292464531E+02  0.22617891713E+02  0.51100000000E-03 0. -1.
        -11    1    3    3    0    0  0.31015365436E+01 -0.20638734955E+01  0.80453991294E+00  0.38113498225E+01  0.51100000000E-03 0.  1.
         12    1    3    3    0    0 -0.22459222726E+02  0.82997042389E+01 -0.27368050569E+01  0.24099624019E+02  0.00000000000E+00 0. -1.
</event>
<event>
 7    1  0.5843820E-012  0.5052886E+02  0.7816164E-02  0.1300439E+00
        -11   -1    0    0    0    0  0.00000000000E+00  0.00000000000E+00  0.45593999997E+02  0.45594000000E+02  0.51100000000E-03 0. -1.
         11   -1    0    0    0    0 -0.00000000000E+00 -0.00000000000E+00 -0.45593999997E+02  0.45594000000E+02  0.51100000000E-03 0.  1.
    9900012    2    1    2    0    0  0.27592412333E+02 -0.88683287109E+01 -0.28516262314E+02  0.50528859714E+02  0.29999999587E+02 0.  0.
         12    1    1    2    0    0 -0.27592412333E+02  0.88683287109E+01  0.28516262314E+02  0.40659140286E+02  0.00000000000E+00 0. -1.
         11    1    3    3    0    0  0.94445134073E+01 -0.12542085651E+02 -0.18992833905E+02  0.24642047114E+02  0.51100000000E-03 0. -1.
        -11    1    3    3    0    0  0.11582332101E+01 -0.83420648153E+00 -0.81297369332E+01  0.82540915604E+01  0.51100000000E-03 0.  1.
         12    1    3    3    0    0  0.16989665715E+02  0.45079634219E+01 -0.13936914757E+01  0.17632721040E+02  0.00000000000E+00 0. -1.
</event>
<event>
 7    1  0.5843820E-012  0.5052887E+02  0.7816164E-02  0.1300439E+00
        -11   -1    0    0    0    0  0.00000000000E+00  0.00000000000E+00  0.45593999997E+02  0.45594000000E+02  0.51100000000E-03 0. -1.
         11   -1    0    0    0    0 -0.00000000000E+00 -0.00000000000E+00 -0.45593999997E+02  0.45594000000E+02  0.51100000000E-03 0.  1.
    9900012    2    1    2    0    0  0.19229794017E+02  0.20420753275E+02 -0.29434211050E+02  0.50528869139E+02  0.30000028235E+02 0.  0.
         12    1    1    2    0    0 -0.19229794017E+02 -0.20420753275E+02  0.29434211050E+02  0.40659130861E+02  0.00000000000E+00 0. -1.
         11    1    3    3    0    0 -0.34724216788E+00 -0.52987587547E+00 -0.18881986558E+02  0.18892611312E+02  0.51100000000E-03 0. -1.
        -11    1    3    3    0    0  0.12984318036E+02  0.97589515302E+01 -0.89590705994E+01  0.18549786956E+02  0.51100000000E-03 0.  1.
        -12    1    3    3    0    0  0.65927181487E+01  0.11191677620E+02 -0.15931538924E+01  0.13086470871E+02  0.00000000000E+00 0.  1.
</event>
<event>
 7    1  0.5843820E-012  0.5052886E+02  0.7816164E-02  0.1300439E+00
        -11   -1    0    0    0    0  0.00000000000E+00  0.00000000000E+00  0.45593999997E+02  0.45594000000E+02  0.51100000000E-03 0. -1.
         11   -1    0    0    0    0 -0.00000000000E+00 -0.00000000000E+00 -0.45593999997E+02  0.45594000000E+02  0.51100000000E-03 0.  1.
    9900012    2    1    2    0    0  0.38016889985E+02  0.10938746308E+02 -0.93928414894E+01  0.50528861222E+02  0.30000004171E+02 0.  0.
         12    1    1    2    0    0 -0.38016889985E+02 -0.10938746308E+02  0.93928414894E+01  0.40659138778E+02  0.00000000000E+00 0. -1.
         11    1    3    3    0    0  0.12032031181E+02  0.20910358931E+01  0.29791489574E+01  0.12570502544E+02  0.51100000000E-03 0. -1.
        -11    1    3    3    0    0  0.29666121179E+02  0.88579725462E+01 -0.75068411039E+01  0.31857418085E+02  0.51100000000E-03 0.  1.
        -12    1    3    3    0    0 -0.36812623751E+01 -0.10262131296E-01 -0.48651493429E+01  0.61009405926E+01  0.00000000000E+00 0.  1.
</event>
<event>
 7    1  0.5843820E-012  0.5052886E+02  0.7816164E-02  0.1300439E+00
        -11   -1    0    0    0    0  0.00000000000E+00  0.00000000000E+00  0.45593999997E+02  0.45594000000E+02  0.51100000000E-03 0. -1.
         11   -1    0    0    0    0 -0.00000000000E+00 -0.00000000000E+00 -0.45593999997E+02  0.45594000000E+02  0.51100000000E-03 0.  1.
    9900012    2    1    2    0    0  0.28207577030E+02  0.58253961397E+01 -0.28697790168E+02  0.50528858314E+02  0.29999995333E+02 0.  0.
         12    1    1    2    0    0 -0.28207577030E+02 -0.58253961397E+01  0.28697790168E+02  0.40659141686E+02  0.00000000000E+00 0. -1.
         11    1    3    3    0    0  0.91447289277E+01  0.24289470789E+01 -0.13870546648E+02  0.16790411420E+02  0.51100000000E-03 0.  1.
        -11    1    3    3    0    0  0.16700375290E+02  0.72203863577E+01 -0.19897974942E+02  0.26962305559E+02  0.51100000000E-03 0. -1.
        -12    1    3    3    0    0  0.23624728118E+01 -0.38239372970E+01  0.50707314225E+01  0.67761413354E+01  0.00000000000E+00 0.  1.
</event>
<event>
 7    1  0.5843820E-012  0.5052886E+02  0.7816164E-02  0.1300439E+00
        -11   -1    0    0    0    0  0.00000000000E+00  0.00000000000E+00  0.45593999997E+02  0.45594000000E+02  0.51100000000E-03 0. -1.
         11   -1    0    0    0    0 -0.00000000000E+00 -0.00000000000E+00 -0.45593999997E+02  0.45594000000E+02  0.51100000000E-03 0.  1.
    9900012    2    1    2    0    0 -0.37304447766E+02  0.16016073686E+02  0.22425387937E+01  0.50528863024E+02  0.30000009647E+02 0.  0.
         12    1    1    2    0    0  0.37304447766E+02 -0.16016073686E+02 -0.22425387937E+01  0.40659136976E+02  0.00000000000E+00 0. -1.
         11    1    3    3    0    0 -0.75138140091E+01  0.61140877962E+01 -0.94878199851E+01  0.13559432100E+02  0.51100000000E-03 0. -1.
        -11    1    3    3    0    0 -0.20407980917E+02 -0.12967178572E+01  0.67870704412E+01  0.21546031833E+02  0.51100000000E-03 0.  1.
        -12    1    3    3    0    0 -0.93826528392E+01  0.11198703747E+02  0.49432883376E+01  0.15423399091E+02  0.00000000000E+00 0.  1.
</event>
<event>
 7    1  0.5843820E-012  0.5052885E+02  0.7816164E-02  0.1300439E+00
        -11   -1    0    0    0    0  0.00000000000E+00  0.00000000000E+00  0.45593999997E+02  0.45594000000E+02  0.51100000000E-03 0. -1.
         11   -1    0    0    0    0 -0.00000000000E+00 -0.00000000000E+00 -0.45593999997E+02  0.45594000000E+02  0.51100000000E-03 0.  1.
    9900012    2    1    2    0    0  0.36132516848E+02  0.29119802886E+01 -0.18415427279E+02  0.50528851400E+02  0.29999974316E+02 0.  0.
         12    1    1    2    0    0 -0.36132516848E+02 -0.29119802886E+01  0.18415427279E+02  0.40659148600E+02  0.00000000000E+00 0. -1.
         11    1    3    3    0    0 -0.16220101519E+01 -0.19359442008E+01 -0.20434717838E+01  0.32487803979E+01  0.51100000000E-03 0. -1.
        -11    1    3    3    0    0  0.22110162304E+02 -0.72307752566E+01 -0.14535366767E+02  0.27430280261E+02  0.51100000000E-03 0.  1.
        -12    1    3    3    0    0  0.15644364696E+02  0.12078699746E+02 -0.18365887283E+01  0.19849790741E+02  0.00000000000E+00 0.  1.
</event>
<event>
 7    1  0.5843820E-012  0.5052886E+02  0.7816164E-02  0.1300439E+00
        -11   -1    0    0    0    0  0.00000000000E+00  0.00000000000E+00  0.45593999997E+02  0.45594000000E+02  0.51100000000E-03 0.  1.
         11   -1    0    0    0    0 -0.00000000000E+00 -0.00000000000E+00 -0.45593999997E+02  0.45594000000E+02  0.51100000000E-03 0. -1.
    9900012    2    1    2    0    0  0.73897300213E+01 -0.33529383119E+02  0.21779306594E+02  0.50528857881E+02  0.29999994016E+02 0.  0.
        -12    1    1    2    0    0 -0.73897300213E+01  0.33529383119E+02 -0.21779306594E+02  0.40659142119E+02  0.00000000000E+00 0.  1.
         11    1    3    3    0    0  0.43748830837E+01 -0.10085926358E+02 -0.26297341799E-01  0.10993916695E+02  0.51100000000E-03 0. -1.
        -11    1    3    3    0    0 -0.15786977628E+00 -0.27650143876E+02  0.19150657707E+02  0.33634849042E+02  0.51100000000E-03 0.  1.
        -12    1    3    3    0    0  0.31727167138E+01  0.42066871149E+01  0.26549462292E+01  0.59000921441E+01  0.00000000000E+00 0.  1.
</event>
<event>
 7    1  0.5843820E-012  0.5052886E+02  0.7816164E-02  0.1300439E+00
        -11   -1    0    0    0    0  0.00000000000E+00  0.00000000000E+00  0.45593999997E+02  0.45594000000E+02  0.51100000000E-03 0.  1.
         11   -1    0    0    0    0 -0.00000000000E+00 -0.00000000000E+00 -0.45593999997E+02  0.45594000000E+02  0.51100000000E-03 0. -1.
    9900012    2    1    2    0    0 -0.34615250367E+02 -0.16779842400E+02 -0.13167655660E+02  0.50528858045E+02  0.29999994514E+02 0.  0.
         12    1    1    2    0    0  0.34615250367E+02  0.16779842400E+02  0.13167655660E+02  0.40659141955E+02  0.00000000000E+00 0. -1.
         11    1    3    3    0    0 -0.68795951957E+01 -0.16731817655E+02 -0.23120157700E+01  0.18238091163E+02  0.51100000000E-03 0.  1.
        -11    1    3    3    0    0 -0.52487658602E+01 -0.45373813855E+00 -0.80572802368E+01  0.96267952315E+01  0.51100000000E-03 0. -1.
        -12    1    3    3    0    0 -0.22486889311E+02  0.40571339329E+00 -0.27983596530E+01  0.22663971651E+02  0.00000000000E+00 0.  1.
</event>
<event>
 7    1  0.5843820E-012  0.5052888E+02  0.7816164E-02  0.1300439E+00
        -11   -1    0    0    0    0  0.00000000000E+00  0.00000000000E+00  0.45593999997E+02  0.45594000000E+02  0.51100000000E-03 0. -1.
         11   -1    0    0    0    0 -0.00000000000E+00 -0.00000000000E+00 -0.45593999997E+02  0.45594000000E+02  0.51100000000E-03 0.  1.
    9900012    2    1    2    0    0  0.31615639824E+02  0.18383124805E+02  0.17767278717E+02  0.50528878611E+02  0.30000057027E+02 0.  0.
        -12    1    1    2    0    0 -0.31615639824E+02 -0.18383124805E+02 -0.17767278717E+02  0.40659121389E+02  0.00000000000E+00 0.  1.
         11    1    3    3    0    0 -0.42773444817E+01  0.29516293027E+01  0.54188858734E+01  0.75081366347E+01  0.51100000000E-03 0. -1.
        -11    1    3    3    0    0  0.27672841927E+01  0.57842046423E+01  0.38804857978E+01  0.74948686070E+01  0.51100000000E-03 0.  1.
         12    1    3    3    0    0  0.33125700113E+02  0.96472908604E+01  0.84679070458E+01  0.35525873370E+02  0.00000000000E+00 0. -1.
</event>
<event>
 7    1  0.5843820E-012  0.5052882E+02  0.7816164E-02  0.1300439E+00
        -11   -1    0    0    0    0  0.00000000000E+00  0.00000000000E+00  0.45593999997E+02  0.45594000000E+02  0.51100000000E-03 0. -1.
         11   -1    0    0    0    0 -0.00000000000E+00 -0.00000000000E+00 -0.45593999997E+02  0.45594000000E+02  0.51100000000E-03 0.  1.
    9900012    2    1    2    0    0  0.27815811822E+02  0.40255393057E+01 -0.29381023854E+02  0.50528820019E+02  0.29999878929E+02 0.  0.
         12    1    1    2    0    0 -0.27815811822E+02 -0.40255393057E+01  0.29381023854E+02  0.40659179981E+02  0.00000000000E+00 0. -1.
         11    1    3    3    0    0  0.19499423479E+02  0.37159119179E+01 -0.25717414537E+02  0.32487242544E+02  0.51100000000E-03 0. -1.
        -11    1    3    3    0    0  0.97249249764E+01  0.50153778632E+01 -0.61331760960E+01  0.12543684873E+02  0.51100000000E-03 0.  1.
         12    1    3    3    0    0 -0.14085366335E+01 -0.47057504755E+01  0.24695667784E+01  0.54978926016E+01  0.00000000000E+00 0. -1.
</event>
<event>
 7    1  0.5843820E-012  0.5052884E+02  0.7816164E-02  0.1300439E+00
        -11   -1    0    0    0    0  0.00000000000E+00  0.00000000000E+00  0.45593999997E+02  0.45594000000E+02  0.51100000000E-03 0. -1.
         11   -1    0    0    0    0 -0.00000000000E+00 -0.00000000000E+00 -0.45593999997E+02  0.45594000000E+02  0.51100000000E-03 0.  1.
    9900012    2    1    2    0    0  0.15101055890E+02 -0.31443919524E+02 -0.20890316694E+02  0.50528839954E+02  0.29999939525E+02 0.  0.
         12    1    1    2    0    0 -0.15101055890E+02  0.31443919524E+02  0.20890316694E+02  0.40659160046E+02  0.00000000000E+00 0. -1.
         11    1    3    3    0    0  0.12505859668E+02 -0.52265252418E+01 -0.14945069590E+02  0.20175931142E+02  0.51100000000E-03 0. -1.
        -11    1    3    3    0    0  0.12614569925E+01 -0.74016318301E+01 -0.84732589027E+01  0.11321287214E+02  0.51100000000E-03 0.  1.
        -12    1    3    3    0    0  0.13337392298E+01 -0.18815762452E+02  0.25280117990E+01  0.19031621598E+02  0.00000000000E+00 0.  1.
</event>
<event>
 7    1  0.5843820E-012  0.5052886E+02  0.7816164E-02  0.1300439E+00
        -11   -1    0    0    0    0  0.00000000000E+00  0.00000000000E+00  0.45593999997E+02  0.45594000000E+02  0.51100000000E-03 0. -1.
         11   -1    0    0    0    0 -0.00000000000E+00 -0.00000000000E+00 -0.45593999997E+02  0.45594000000E+02  0.51100000000E-03 0.  1.
    9900012    2    1    2    0    0 -0.25697000766E+02 -0.12901296026E+02  0.28746938114E+02  0.50528859104E+02  0.29999997732E+02 0.  0.
        -12    1    1    2    0    0  0.25697000766E+02  0.12901296026E+02 -0.28746938114E+02  0.40659140896E+02  0.00000000000E+00 0.  1.
         11    1    3    3    0    0 -0.15936097187E+02 -0.18934392299E+02  0.17514333068E+02  0.30318678539E+02  0.51100000000E-03 0. -1.
        -11    1    3    3    0    0 -0.78324149307E+01 -0.21281777768E+01  0.36308200356E+01  0.88914969880E+01  0.51100000000E-03 0.  1.
        -12    1    3    3    0    0 -0.19284886482E+01  0.81612740493E+01  0.76017850097E+01  0.11318683577E+02  0.00000000000E+00 0.  1.
</event>
<event>
 7    1  0.5843820E-012  0.5052887E+02  0.7816164E-02  0.1300439E+00
        -11   -1    0    0    0    0  0.00000000000E+00  0.00000000000E+00  0.45593999997E+02  0.45594000000E+02  0.51100000000E-03 0. -1.
         11   -1    0    0    0    0 -0.00000000000E+00 -0.00000000000E+00 -0.45593999997E+02  0.45594000000E+02  0.51100000000E-03 0.  1.
    9900012    2    1    2    0    0  0.43676606453E+00 -0.32020839122E+02  0.25052741679E+02  0.50528871034E+02  0.30000033994E+02 0.  0.
        -12    1    1    2    0    0 -0.43676606453E+00  0.32020839122E+02 -0.25052741679E+02  0.40659128966E+02  0.00000000000E+00 0.  1.
         11    1    3    3    0    0  0.62886049836E+01 -0.11301696162E+02  0.39820729722E+01  0.13532619636E+02  0.51100000000E-03 0. -1.
        -11    1    3    3    0    0  0.79480975568E-01 -0.21208959376E+02  0.80600000102E+01  0.22688981367E+02  0.51100000000E-03 0.  1.
         12    1    3    3    0    0 -0.59313198946E+01  0.48981641649E+00  0.13010668697E+02  0.14307270031E+02  0.00000000000E+00 0. -1.
</event>
<event>
 7    1  0.5843820E-012  0.5052885E+02  0.7816164E-02  0.1300439E+00
        -11   -1    0    0    0    0  0.00000000000E+00  0.00000000000E+00  0.45593999997E+02  0.45594000000E+02  0.51100000000E-03 0. -1.
         11   -1    0    0    0    0 -0.00000000000E+00 -0.00000000000E+00 -0.45593999997E+02  0.45594000000E+02  0.51100000000E-03 0.  1.
    9900012    2    1    2    0    0 -0.30413653980E+01 -0.59994875420E+00 -0.40540798088E+02  0.50528854023E+02  0.29999982288E+02 0.  0.
         12    1    1    2    0    0  0.30413653980E+01  0.59994875420E+00  0.40540798088E+02  0.40659145977E+02  0.00000000000E+00 0. -1.
         11    1    3    3    0    0  0.67286254123E+01 -0.28956590603E+01 -0.24936354290E+02  0.25990017447E+02  0.51100000000E-03 0. -1.
        -11    1    3    3    0    0 -0.55224160247E+01  0.49617652533E+01 -0.17630686501E+02  0.19130010453E+02  0.51100000000E-03 0.  1.
         12    1    3    3    0    0 -0.42475747856E+01 -0.26660549472E+01  0.20262427031E+01  0.54088261233E+01  0.00000000000E+00 0. -1.
</event>
<event>
 7    1  0.5843820E-012  0.5052886E+02  0.7816164E-02  0.1300439E+00
        -11   -1    0    0    0    0  0.00000000000E+00  0.00000000000E+00  0.45593999997E+02  0.45594000000E+02  0.51100000000E-03 0.  1.
         11   -1    0    0    0    0 -0.00000000000E+00 -0.00000000000E+00 -0.45593999997E+02  0.45594000000E+02  0.51100000000E-03 0. -1.
    9900012    2    1    2    0    0 -0.12221232130E+02  0.37084591036E+02  0.11337553065E+02  0.50528861831E+02  0.30000006023E+02 0.  0.
         12    1    1    2    0    0  0.12221232130E+02 -0.37084591036E+02 -0.11337553065E+02  0.40659138169E+02  0.00000000000E+00 0. -1.
         11    1    3    3    0    0 -0.48171620244E+01  0.10563460381E+02  0.14604025137E+01  0.11701475162E+02  0.51100000000E-03 0. -1.
        -11    1    3    3    0    0 -0.11327964719E+02  0.25452126086E+02 -0.30738679373E+00  0.27860868505E+02  0.51100000000E-03 0.  1.
         12    1    3    3    0    0  0.39238946138E+01  0.10690045693E+01  0.10184537345E+02  0.10966518164E+02  0.00000000000E+00 0. -1.
</event>
<event>
 7    1  0.5843820E-012  0.5052885E+02  0.7816164E-02  0.1300439E+00
        -11   -1    0    0    0    0  0.00000000000E+00  0.00000000000E+00  0.45593999997E+02  0.45594000000E+02  0.51100000000E-03 0. -1.
         11   -1    0    0    0    0 -0.00000000000E+00 -0.00000000000E+00 -0.45593999997E+02  0.45594000000E+02  0.51100000000E-03 0.  1.
    9900012    2    1    2    0    0 -0.93082063300E+01  0.10609939631E+02  0.38130729711E+02  0.50528854997E+02  0.29999985250E+02 0.  0.
        -12    1    1    2    0    0  0.93082063300E+01 -0.10609939631E+02 -0.38130729711E+02  0.40659145003E+02  0.00000000000E+00 0.  1.
         11    1    3    3    0    0  0.53803631880E+01  0.11433507212E+01  0.64537845971E+01  0.84797933225E+01  0.51100000000E-03 0. -1.
        -11    1    3    3    0    0  0.46249503017E+01  0.22040823166E+01  0.12297801914E+01  0.52688237522E+01  0.51100000000E-03 0.  1.
        -12    1    3    3    0    0 -0.19313519820E+02  0.72625065935E+01  0.30447164922E+02  0.36780237923E+02  0.00000000000E+00 0.  1.
</event>
<event>
 7    1  0.5843820E-012  0.5052886E+02  0.7816164E-02  0.1300439E+00
        -11   -1    0    0    0    0  0.00000000000E+00  0.00000000000E+00  0.45593999997E+02  0.45594000000E+02  0.51100000000E-03 0. -1.
         11   -1    0    0    0    0 -0.00000000000E+00 -0.00000000000E+00 -0.45593999997E+02  0.45594000000E+02  0.51100000000E-03 0.  1.
    9900012    2    1    2    0    0  0.25231863233E+02  0.17830370000E+02  0.26430980727E+02  0.50528858854E+02  0.29999996972E+02 0.  0.
        -12    1    1    2    0    0 -0.25231863233E+02 -0.17830370000E+02 -0.26430980727E+02  0.40659141146E+02  0.00000000000E+00 0.  1.
         11    1    3    3    0    0  0.11154830963E+02  0.25820638772E+01 -0.76842928300E-02  0.11449775849E+02  0.51100000000E-03 0. -1.
        -11    1    3    3    0    0 -0.40736535656E+01  0.53490964044E+01  0.18899890685E+01  0.69842354382E+01  0.51100000000E-03 0.  1.
         12    1    3    3    0    0  0.18150685835E+02  0.98992097180E+01  0.24548675952E+02  0.32094847566E+02  0.00000000000E+00 0. -1.
</event>
<event>
 7    1  0.5843820E-012  0.5052886E+02  0.7816164E-02  0.1300439E+00
        -11   -1    0    0    0    0  0.00000000000E+00  0.00000000000E+00  0.45593999997E+02  0.45594000000E+02  0.51100000000E-03 0. -1.
         11   -1    0    0    0    0 -0.00000000000E+00 -0.00000000000E+00 -0.45593999997E+02  0.45594000000E+02  0.51100000000E-03 0.  1.
    9900012    2    1    2    0    0 -0.62306584995E+01  0.15112371892E+02 -0.37228492180E+02  0.50528861796E+02  0.30000005914E+02 0.  0.
         12    1    1    2    0    0  0.62306584995E+01 -0.15112371892E+02  0.37228492180E+02  0.40659138204E+02  0.00000000000E+00 0. -1.
         11    1    3    3    0    0 -0.40366144545E+01  0.34355502392E+01 -0.30272468304E+01  0.61042186505E+01  0.51100000000E-03 0. -1.
        -11    1    3    3    0    0  0.28300039335E+01 -0.63710248396E+00  0.34418630302E+01  0.45012490731E+01  0.51100000000E-03 0.  1.
        -12    1    3    3    0    0 -0.50240479785E+01  0.12313924136E+02 -0.37643108380E+02  0.39923394072E+02  0.00000000000E+00 0.  1.
</event>
<event>
 7    1  0.5843820E-012  0.5052887E+02  0.7816164E-02  0.1300439E+00
        -11   -1    0    0    0    0  0.00000000000E+00  0.00000000000E+00  0.45593999997E+02  0.45594000000E+02  0.51100000000E-03 0. -1.
         11   -1    0    0    0    0 -0.00000000000E+00 -0.00000000000E+00 -0.45593999997E+02  0.45594000000E+02  0.51100000000E-03 0.  1.
    9900012    2    1    2    0    0 -0.10776869689E+02 -0.79158738921E+01 -0.38397429565E+02  0.50528873387E+02  0.30000041147E+02 0.  0.
         12    1    1    2    0    0  0.10776869689E+02  0.79158738921E+01  0.38397429565E+02  0.40659126613E+02  0.00000000000E+00 0. -1.
         11    1    3    3    0    0  0.10458906216E+01 -0.41247975031E+01 -0.25225710396E+02  0.25582109117E+02  0.51100000000E-03 0. -1.
        -11    1    3    3    0    0 -0.13948703296E+02 -0.36649470596E+01 -0.15912579522E+02  0.21475761869E+02  0.51100000000E-03 0.  1.
         12    1    3    3    0    0  0.21259429854E+01 -0.12612932951E+00  0.27408603531E+01  0.34710024000E+01  0.00000000000E+00 0. -1.
</event>
<event>
 7    1  0.5843820E-012  0.5052887E+02  0.7816164E-02  0.1300439E+00
        -11   -1    0    0    0    0  0.00000000000E+00  0.00000000000E+00  0.45593999997E+02  0.45594000000E+02  0.51100000000E-03 0.  1.
         11   -1    0    0    0    0 -0.00000000000E+00 -0.00000000000E+00 -0.45593999997E+02  0.45594000000E+02  0.51100000000E-03 0. -1.
    9900012    2    1    2    0    0 -0.26292922599E+02 -0.29894742854E+02  0.82554063332E+01  0.50528866182E+02  0.30000019248E+02 0.  0.
         12    1    1    2    0    0  0.26292922599E+02  0.29894742854E+02 -0.82554063332E+01  0.40659133818E+02  0.00000000000E+00 0. -1.
         11    1    3    3    0    0 -0.12156649037E+02 -0.16678200021E+02  0.96249630367E+01  0.22772491859E+02  0.51100000000E-03 0. -1.
        -11    1    3    3    0    0 -0.17262157035E+02 -0.14371952390E+02 -0.48050597362E+01  0.22970060521E+02  0.51100000000E-03 0.  1.
         12    1    3    3    0    0  0.31258834726E+01  0.11554095578E+01  0.34355030326E+01  0.47863138027E+01  0.00000000000E+00 0. -1.
</event>
<event>
 7    1  0.5843820E-012  0.5052886E+02  0.7816164E-02  0.1300439E+00
        -11   -1    0    0    0    0  0.00000000000E+00  0.00000000000E+00  0.45593999997E+02  0.45594000000E+02  0.51100000000E-03 0. -1.
         11   -1    0    0    0    0 -0.00000000000E+00 -0.00000000000E+00 -0.45593999997E+02  0.45594000000E+02  0.51100000000E-03 0.  1.
    9900012    2    1    2    0    0  0.37155671014E+02 -0.16487764286E+02 -0.88059401735E+00  0.50528859509E+02  0.29999998964E+02 0.  0.
         12    1    1    2    0    0 -0.37155671014E+02  0.16487764286E+02  0.88059401735E+00  0.40659140491E+02  0.00000000000E+00 0. -1.
         11    1    3    3    0    0  0.61634646270E+01  0.38097344288E+01  0.31150470810E+01  0.78870711423E+01  0.51100000000E-03 0. -1.
        -11    1    3    3    0    0  0.27188490305E+02 -0.10286923220E+02  0.39095397304E+01  0.29331200037E+02  0.51100000000E-03 0.  1.
         12    1    3    3    0    0  0.38037160813E+01 -0.10010575494E+02 -0.79051808288E+01  0.13310588330E+02  0.00000000000E+00 0. -1.
</event>
<event>
 7    1  0.5843820E-012  0.5052886E+02  0.7816164E-02  0.1300439E+00
        -11   -1    0    0    0    0  0.00000000000E+00  0.00000000000E+00  0.45593999997E+02  0.45594000000E+02  0.51100000000E-03 0. -1.
         11   -1    0    0    0    0 -0.00000000000E+00 -0.00000000000E+00 -0.45593999997E+02  0.45594000000E+02  0.51100000000E-03 0.  1.
    9900012    2    1    2    0    0 -0.24644539694E+02  0.10768325671E+02 -0.30493530716E+02  0.50528860929E+02  0.30000003279E+02 0.  0.
         12    1    1    2    0    0  0.24644539694E+02 -0.10768325671E+02  0.30493530716E+02  0.40659139071E+02  0.00000000000E+00 0. -1.
         11    1    3    3    0    0  0.44721068612E+01 -0.21885067085E+01 -0.60803712199E+01  0.78587668132E+01  0.51100000000E-03 0. -1.
        -11    1    3    3    0    0 -0.52464916839E+01 -0.26352839563E+01 -0.74815774348E+01  0.95102259539E+01  0.51100000000E-03 0.  1.
        -12    1    3    3    0    0 -0.23870154871E+02  0.15592116336E+02 -0.16931582061E+02  0.33159868162E+02  0.00000000000E+00 0.  1.
</event>
<event>
 7    1  0.5843820E-012  0.5052885E+02  0.7816164E-02  0.1300439E+00
        -11   -1    0    0    0    0  0.00000000000E+00  0.00000000000E+00  0.45593999997E+02  0.45594000000E+02  0.51100000000E-03 0. -1.
         11   -1    0    0    0    0 -0.00000000000E+00 -0.00000000000E+00 -0.45593999997E+02  0.45594000000E+02  0.51100000000E-03 0.  1.
    9900012    2    1    2    0    0 -0.44780116258E+01  0.17362694551E+02 -0.36491793964E+02  0.50528846333E+02  0.29999958914E+02 0.  0.
         12    1    1    2    0    0  0.44780116258E+01 -0.17362694551E+02  0.36491793964E+02  0.40659153667E+02  0.00000000000E+00 0. -1.
         11    1    3    3    0    0 -0.22814343759E+01  0.31548656753E+00  0.10202932841E+01  0.25190222771E+01  0.51100000000E-03 0. -1.
        -11    1    3    3    0    0 -0.11610849637E+02  0.61994810368E+01 -0.85891872867E+01  0.15716855058E+02  0.51100000000E-03 0.  1.
        -12    1    3    3    0    0  0.94142723871E+01  0.10847726947E+02 -0.28922899961E+02  0.32292968998E+02  0.00000000000E+00 0.  1.
</event>
<event>
 7    1  0.5843820E-012  0.5052884E+02  0.7816164E-02  0.1300439E+00
        -11   -1    0    0    0    0  0.00000000000E+00  0.00000000000E+00  0.45593999997E+02  0.45594000000E+02  0.51100000000E-03 0. -1.
         11   -1    0    0    0    0 -0.00000000000E+00 -0.00000000000E+00 -0.45593999997E+02  0.45594000000E+02  0.51100000000E-03 0.  1.
    9900012    2    1    2    0    0 -0.25771559263E+02 -0.11610183799E+02 -0.29226665741E+02  0.50528835904E+02  0.29999927213E+02 0.  0.
         12    1    1    2    0    0  0.25771559263E+02  0.11610183799E+02  0.29226665741E+02  0.40659164096E+02  0.00000000000E+00 0. -1.
         11    1    3    3    0    0 -0.43412112405E+01 -0.12806544057E+02 -0.99960836282E+01  0.16815926197E+02  0.51100000000E-03 0. -1.
        -11    1    3    3    0    0 -0.68897605491E+01 -0.64660883820E+01 -0.15539428973E+01  0.95756899582E+01  0.51100000000E-03 0.  1.
        -12    1    3    3    0    0 -0.14540587473E+02  0.76624486400E+01 -0.17676639215E+02  0.24137219748E+02  0.00000000000E+00 0.  1.
</event>
<event>
 7    1  0.5843820E-012  0.5052886E+02  0.7816164E-02  0.1300439E+00
        -11   -1    0    0    0    0  0.00000000000E+00  0.00000000000E+00  0.45593999997E+02  0.45594000000E+02  0.51100000000E-03 0.  1.
         11   -1    0    0    0    0 -0.00000000000E+00 -0.00000000000E+00 -0.45593999997E+02  0.45594000000E+02  0.51100000000E-03 0. -1.
    9900012    2    1    2    0    0 -0.19876235057E+02 -0.35444929511E+02  0.13258995551E+01  0.50528858867E+02  0.29999997012E+02 0.  0.
         12    1    1    2    0    0  0.19876235057E+02  0.35444929511E+02 -0.13258995551E+01  0.40659141133E+02  0.00000000000E+00 0. -1.
         11    1    3    3    0    0 -0.41121129722E+01 -0.17928093478E+02 -0.12377532158E+02  0.22170460335E+02  0.51100000000E-03 0. -1.
        -11    1    3    3    0    0 -0.46089806749E+00 -0.32338546577E+01 -0.12716104510E+00  0.32690079792E+01  0.51100000000E-03 0.  1.
         12    1    3    3    0    0 -0.15303224017E+02 -0.14282981375E+02  0.13830592758E+02  0.25089390553E+02  0.00000000000E+00 0. -1.
</event>
<event>
 7    1  0.5843820E-012  0.5052887E+02  0.7816164E-02  0.1300439E+00
        -11   -1    0    0    0    0  0.00000000000E+00  0.00000000000E+00  0.45593999997E+02  0.45594000000E+02  0.51100000000E-03 0. -1.
         11   -1    0    0    0    0 -0.00000000000E+00 -0.00000000000E+00 -0.45593999997E+02  0.45594000000E+02  0.51100000000E-03 0.  1.
    9900012    2    1    2    0    0 -0.10408673225E+02  0.36313078238E+02 -0.15039446919E+02  0.50528867040E+02  0.30000021856E+02 0.  0.
         12    1    1    2    0    0  0.10408673225E+02 -0.36313078238E+02  0.15039446919E+02  0.40659132960E+02  0.00000000000E+00 0. -1.
         11    1    3    3    0    0  0.49053132563E+01  0.11181293020E+02 -0.84634984258E+01  0.14856453736E+02  0.51100000000E-03 0. -1.
        -11    1    3    3    0    0 -0.75362264812E+00  0.78120794649E+01 -0.10080756102E+02  0.12775686929E+02  0.51100000000E-03 0.  1.
         12    1    3    3    0    0 -0.14560363833E+02  0.17319705753E+02  0.35048076092E+01  0.22896726375E+02  0.00000000000E+00 0. -1.
</event>
<event>
 7    1  0.5843820E-012  0.5052882E+02  0.7816164E-02  0.1300439E+00
        -11   -1    0    0    0    0  0.00000000000E+00  0.00000000000E+00  0.45593999997E+02  0.45594000000E+02  0.51100000000E-03 0. -1.
         11   -1    0    0    0    0 -0.00000000000E+00 -0.00000000000E+00 -0.45593999997E+02  0.45594000000E+02  0.51100000000E-03 0.  1.
    9900012    2    1    2    0    0  0.19870172077E+01 -0.40481660924E+02  0.32335859394E+01  0.50528816701E+02  0.29999868844E+02 0.  0.
        -12    1    1    2    0    0 -0.19870172077E+01  0.40481660924E+02 -0.32335859394E+01  0.40659183299E+02  0.00000000000E+00 0.  1.
         11    1    3    3    0    0  0.32100186950E+01  0.15102426070E+01 -0.47358367035E+00  0.35790130634E+01  0.51100000000E-03 0. -1.
        -11    1    3    3    0    0  0.86505055530E+01 -0.11068248711E+02 -0.12858331684E+01  0.14106407872E+02  0.51100000000E-03 0.  1.
         12    1    3    3    0    0 -0.98735070403E+01 -0.30923654820E+02  0.49930027781E+01  0.32843395766E+02  0.00000000000E+00 0. -1.
</event>
<event>
 7    1  0.5843820E-012  0.5052885E+02  0.7816164E-02  0.1300439E+00
        -11   -1    0    0    0    0  0.00000000000E+00  0.00000000000E+00  0.45593999997E+02  0.45594000000E+02  0.51100000000E-03 0. -1.
         11   -1    0    0    0    0 -0.00000000000E+00 -0.00000000000E+00 -0.45593999997E+02  0.45594000000E+02  0.51100000000E-03 0.  1.
    9900012    2    1    2    0    0  0.18745690190E+01  0.73065694998E+01 -0.39953301964E+02  0.50528852140E+02  0.29999976564E+02 0.  0.
         12    1    1    2    0    0 -0.18745690190E+01 -0.73065694998E+01  0.39953301964E+02  0.40659147860E+02  0.00000000000E+00 0. -1.
         11    1    3    3    0    0 -0.64822869201E+01  0.53047209989E+01 -0.68060920677E+01  0.10792728945E+02  0.51100000000E-03 0. -1.
        -11    1    3    3    0    0 -0.22244945572E+01 -0.36262244468E+01  0.24203043843E+00  0.42610396347E+01  0.51100000000E-03 0.  1.
         12    1    3    3    0    0  0.10581350496E+02  0.56280729477E+01 -0.33389240335E+02  0.35475083560E+02  0.00000000000E+00 0. -1.
</event>
<event>
 7    1  0.5843820E-012  0.5052886E+02  0.7816164E-02  0.1300439E+00
        -11   -1    0    0    0    0  0.00000000000E+00  0.00000000000E+00  0.45593999997E+02  0.45594000000E+02  0.51100000000E-03 0. -1.
         11   -1    0    0    0    0 -0.00000000000E+00 -0.00000000000E+00 -0.45593999997E+02  0.45594000000E+02  0.51100000000E-03 0.  1.
    9900012    2    1    2    0    0 -0.90631477489E+01 -0.28712225055E+02 -0.27324591518E+02  0.50528858145E+02  0.29999994819E+02 0.  0.
         12    1    1    2    0    0  0.90631477489E+01  0.28712225055E+02  0.27324591518E+02  0.40659141855E+02  0.00000000000E+00 0. -1.
         11    1    3    3    0    0 -0.13002229739E+02 -0.12039358428E+02 -0.11331966229E+02  0.21033725025E+02  0.51100000000E-03 0. -1.
        -11    1    3    3    0    0  0.89985412990E+00 -0.15683515486E+00 -0.12257428967E+02  0.12291415698E+02  0.51100000000E-03 0.  1.
         12    1    3    3    0    0  0.30392278606E+01 -0.16516031472E+02 -0.37351963222E+01  0.17203717422E+02  0.00000000000E+00 0. -1.
</event>
<event>
 7    1  0.5843820E-012  0.5052886E+02  0.7816164E-02  0.1300439E+00
        -11   -1    0    0    0    0  0.00000000000E+00  0.00000000000E+00  0.45593999997E+02  0.45594000000E+02  0.51100000000E-03 0. -1.
         11   -1    0    0    0    0 -0.00000000000E+00 -0.00000000000E+00 -0.45593999997E+02  0.45594000000E+02  0.51100000000E-03 0.  1.
    9900012    2    1    2    0    0  0.26597985711E+02 -0.45944378953E+01  0.30407297852E+02  0.50528862452E+02  0.30000007909E+02 0.  0.
        -12    1    1    2    0    0 -0.26597985711E+02  0.45944378953E+01 -0.30407297852E+02  0.40659137548E+02  0.00000000000E+00 0.  1.
         11    1    3    3    0    0  0.13487156837E+01  0.54395596241E+01  0.12301479988E+00  0.56056200194E+01  0.51100000000E-03 0. -1.
        -11    1    3    3    0    0 -0.46785176146E+00  0.14039872483E+00 -0.22039332758E+01  0.22574142769E+01  0.51100000000E-03 0.  1.
        -12    1    3    3    0    0  0.25717121789E+02 -0.10174396244E+02  0.32488216328E+02  0.42665828156E+02  0.00000000000E+00 0.  1.
</event>
<event>
 7    1  0.5843820E-012  0.5052886E+02  0.7816164E-02  0.1300439E+00
        -11   -1    0    0    0    0  0.00000000000E+00  0.00000000000E+00  0.45593999997E+02  0.45594000000E+02  0.51100000000E-03 0. -1.
         11   -1    0    0    0    0 -0.00000000000E+00 -0.00000000000E+00 -0.45593999997E+02  0.45594000000E+02  0.51100000000E-03 0.  1.
    9900012    2    1    2    0    0  0.81722106659E+01 -0.52092040470E+01  0.39487276800E+02  0.50528857571E+02  0.29999993073E+02 0.  0.
        -12    1    1    2    0    0 -0.81722106659E+01  0.52092040470E+01 -0.39487276800E+02  0.40659142429E+02  0.00000000000E+00 0.  1.
         11    1    3    3    0    0  0.25525818972E+00  0.53872500038E+01  0.17857129512E+02  0.18653811782E+02  0.51100000000E-03 0. -1.
        -11    1    3    3    0    0 -0.37436220320E+00  0.53550502250E+01  0.39923020101E+01  0.66899316568E+01  0.51100000000E-03 0.  1.
        -12    1    3    3    0    0  0.82913146794E+01 -0.15951504276E+02  0.17637845278E+02  0.25185114132E+02  0.00000000000E+00 0.  1.
</event>
<event>
 7    1  0.5843820E-012  0.5052886E+02  0.7816164E-02  0.1300439E+00
        -11   -1    0    0    0    0  0.00000000000E+00  0.00000000000E+00  0.45593999997E+02  0.45594000000E+02  0.51100000000E-03 0. -1.
         11   -1    0    0    0    0 -0.00000000000E+00 -0.00000000000E+00 -0.45593999997E+02  0.45594000000E+02  0.51100000000E-03 0.  1.
    9900012    2    1    2    0    0  0.73939047064E+01 -0.15878115135E+02  0.36693066570E+02  0.50528862019E+02  0.30000006593E+02 0.  0.
        -12    1    1    2    0    0 -0.73939047064E+01  0.15878115135E+02 -0.36693066570E+02  0.40659137981E+02  0.00000000000E+00 0.  1.
         11    1    3    3    0    0  0.12662178991E+00 -0.15501366561E+01  0.21443987288E+02  0.21500315063E+02  0.51100000000E-03 0. -1.
        -11    1    3    3    0    0 -0.28154957629E+00  0.44710026146E+00  0.12135665017E+02  0.12147161581E+02  0.51100000000E-03 0.  1.
        -12    1    3    3    0    0  0.75488324928E+01 -0.14775078741E+02  0.31134142642E+01  0.16881385375E+02  0.00000000000E+00 0.  1.
</event>
<event>
 7    1  0.5843820E-012  0.5052886E+02  0.7816164E-02  0.1300439E+00
        -11   -1    0    0    0    0  0.00000000000E+00  0.00000000000E+00  0.45593999997E+02  0.45594000000E+02  0.51100000000E-03 0. -1.
         11   -1    0    0    0    0 -0.00000000000E+00 -0.00000000000E+00 -0.45593999997E+02  0.45594000000E+02  0.51100000000E-03 0.  1.
    9900012    2    1    2    0    0 -0.26672725139E+02  0.12156461361E+02  0.28177157338E+02  0.50528855705E+02  0.29999987401E+02 0.  0.
        -12    1    1    2    0    0  0.26672725139E+02 -0.12156461361E+02 -0.28177157338E+02  0.40659144295E+02  0.00000000000E+00 0.  1.
         11    1    3    3    0    0 -0.43427295579E+01  0.15057055735E+01 -0.53708671025E+01  0.70691345284E+01  0.51100000000E-03 0. -1.
        -11    1    3    3    0    0 -0.10782733058E+01  0.38981841623E+00 -0.10665325395E+01  0.15659258087E+01  0.51100000000E-03 0.  1.
         12    1    3    3    0    0 -0.21251722276E+02  0.10260937372E+02  0.34614556979E+02  0.41893795368E+02  0.00000000000E+00 0. -1.
</event>
<event>
 7    1  0.5843820E-012  0.5052886E+02  0.7816164E-02  0.1300439E+00
        -11   -1    0    0    0    0  0.00000000000E+00  0.00000000000E+00  0.45593999997E+02  0.45594000000E+02  0.51100000000E-03 0. -1.
         11   -1    0    0    0    0 -0.00000000000E+00 -0.00000000000E+00 -0.45593999997E+02  0.45594000000E+02  0.51100000000E-03 0.  1.
    9900012    2    1    2    0    0 -0.10772618776E+02 -0.37235880967E+02 -0.12272132966E+02  0.50528863337E+02  0.30000010598E+02 0.  0.
         12    1    1    2    0    0  0.10772618776E+02  0.37235880967E+02  0.12272132966E+02  0.40659136663E+02  0.00000000000E+00 0. -1.
         11    1    3    3    0    0 -0.97553176199E+01 -0.71066237822E+01 -0.88400655703E+01  0.14960517471E+02  0.51100000000E-03 0. -1.
        -11    1    3    3    0    0  0.22274447049E+01 -0.20512990180E+02 -0.10547930585E+02  0.23173327683E+02  0.51100000000E-03 0.  1.
         12    1    3    3    0    0 -0.32447458611E+01 -0.96162670049E+01  0.71158631895E+01  0.12395018183E+02  0.00000000000E+00 0. -1.
</event>
<event>
 7    1  0.5843820E-012  0.5052883E+02  0.7816164E-02  0.1300439E+00
        -11   -1    0    0    0    0  0.00000000000E+00  0.00000000000E+00  0.45593999997E+02  0.45594000000E+02  0.51100000000E-03 0. -1.
         11   -1    0    0    0    0 -0.00000000000E+00 -0.00000000000E+00 -0.45593999997E+02  0.45594000000E+02  0.51100000000E-03 0.  1.
    9900012    2    1    2    0    0 -0.22292334991E+02  0.28744699290E+02 -0.18164855179E+02  0.50528832518E+02  0.29999916922E+02 0.  0.
         12    1    1    2    0    0  0.22292334991E+02 -0.28744699290E+02  0.18164855179E+02  0.40659167482E+02  0.00000000000E+00 0. -1.
         11    1    3    3    0    0  0.18736244936E+01  0.79268230582E+01  0.44152548357E+01  0.92649591507E+01  0.51100000000E-03 0. -1.
        -11    1    3    3    0    0 -0.73212420737E+01  0.50755243613E+01  0.11905250406E+00  0.89093045073E+01  0.51100000000E-03 0.  1.
         12    1    3    3    0    0 -0.16844717411E+02  0.15742351870E+02 -0.22699162519E+02  0.32354568860E+02  0.00000000000E+00 0. -1.
</event>
<event>
 7    1  0.5843820E-012  0.5052887E+02  0.7816164E-02  0.1300439E+00
        -11   -1    0    0    0    0  0.00000000000E+00  0.00000000000E+00  0.45593999997E+02  0.45594000000E+02  0.51100000000E-03 0. -1.
         11   -1    0    0    0    0 -0.00000000000E+00 -0.00000000000E+00 -0.45593999997E+02  0.45594000000E+02  0.51100000000E-03 0.  1.
    9900012    2    1    2    0    0 -0.31889239381E+02 -0.12844821604E+02  0.21708337432E+02  0.50528868868E+02  0.30000027410E+02 0.  0.
        -12    1    1    2    0    0  0.31889239381E+02  0.12844821604E+02 -0.21708337432E+02  0.40659131132E+02  0.00000000000E+00 0.  1.
         11    1    3    3    0    0 -0.59779446137E+01  0.66979065673E+00  0.56459868338E+01  0.82499459948E+01  0.51100000000E-03 0. -1.
        -11    1    3    3    0    0 -0.85215137243E+01  0.75782805014E+01  0.74324452596E+01  0.13612045192E+02  0.51100000000E-03 0.  1.
        -12    1    3    3    0    0 -0.17389781043E+02 -0.21092892763E+02  0.86299053391E+01  0.28666877681E+02  0.00000000000E+00 0.  1.
</event>
<event>
 7    1  0.5843820E-012  0.5052886E+02  0.7816164E-02  0.1300439E+00
        -11   -1    0    0    0    0  0.00000000000E+00  0.00000000000E+00  0.45593999997E+02  0.45594000000E+02  0.51100000000E-03 0. -1.
         11   -1    0    0    0    0 -0.00000000000E+00 -0.00000000000E+00 -0.45593999997E+02  0.45594000000E+02  0.51100000000E-03 0.  1.
    9900012    2    1    2    0    0 -0.44598524006E+01  0.26911988447E+02 -0.30149959435E+02  0.50528862533E+02  0.30000008157E+02 0.  0.
         12    1    1    2    0    0  0.44598524006E+01 -0.26911988447E+02  0.30149959435E+02  0.40659137467E+02  0.00000000000E+00 0. -1.
         11    1    3    3    0    0  0.34829608864E+01  0.76406165065E+01  0.94240603933E+00  0.84497435783E+01  0.51100000000E-03 0. -1.
        -11    1    3    3    0    0  0.33115945083E+01  0.11392800798E+02 -0.55976241190E+01  0.13118535141E+02  0.51100000000E-03 0.  1.
        -12    1    3    3    0    0 -0.11254407795E+02  0.78785711421E+01 -0.25494741355E+02  0.28960583814E+02  0.00000000000E+00 0.  1.
</event>
<event>
 7    1  0.5843820E-012  0.5052886E+02  0.7816164E-02  0.1300439E+00
        -11   -1    0    0    0    0  0.00000000000E+00  0.00000000000E+00  0.45593999997E+02  0.45594000000E+02  0.51100000000E-03 0.  1.
         11   -1    0    0    0    0 -0.00000000000E+00 -0.00000000000E+00 -0.45593999997E+02  0.45594000000E+02  0.51100000000E-03 0. -1.
    9900012    2    1    2    0    0 -0.16582536330E+02 -0.29086622299E+02  0.23068459767E+02  0.50528856577E+02  0.29999990051E+02 0.  0.
        -12    1    1    2    0    0  0.16582536330E+02  0.29086622299E+02 -0.23068459767E+02  0.40659143423E+02  0.00000000000E+00 0.  1.
         11    1    3    3    0    0  0.22814225341E+01 -0.18399915004E+02  0.13874873224E+02  0.23157587702E+02  0.51100000000E-03 0. -1.
        -11    1    3    3    0    0 -0.63996727837E+00  0.21857622826E+01 -0.13988494076E+01  0.26728065399E+01  0.51100000000E-03 0.  1.
        -12    1    3    3    0    0 -0.18223991585E+02 -0.12872469578E+02  0.10592435950E+02  0.24698462335E+02  0.00000000000E+00 0.  1.
</event>
<event>
 7    1  0.5843820E-012  0.5052885E+02  0.7816164E-02  0.1300439E+00
        -11   -1    0    0    0    0  0.00000000000E+00  0.00000000000E+00  0.45593999997E+02  0.45594000000E+02  0.51100000000E-03 0.  1.
         11   -1    0    0    0    0 -0.00000000000E+00 -0.00000000000E+00 -0.45593999997E+02  0.45594000000E+02  0.51100000000E-03 0. -1.
    9900012    2    1    2    0    0 -0.37442890888E+02 -0.11789725063E+02 -0.10592375506E+02  0.50528854485E+02  0.29999983693E+02 0.  0.
         12    1    1    2    0    0  0.37442890888E+02  0.11789725063E+02  0.10592375506E+02  0.40659145515E+02  0.00000000000E+00 0. -1.
         11    1    3    3    0    0 -0.30961908563E+00 -0.14967290455E+01 -0.56631329055E+00  0.16299609867E+01  0.51100000000E-03 0. -1.
        -11    1    3    3    0    0 -0.83179560671E+01  0.95193760287E+01 -0.48244782688E+00  0.12650678609E+02  0.51100000000E-03 0.  1.
         12    1    3    3    0    0 -0.28815315736E+02 -0.19812372046E+02 -0.95436143889E+01  0.36248214889E+02  0.00000000000E+00 0. -1.
</event>
<event>
 7    1  0.5843820E-012  0.5052886E+02  0.7816164E-02  0.1300439E+00
        -11   -1    0    0    0    0  0.00000000000E+00  0.00000000000E+00  0.45593999997E+02  0.45594000000E+02  0.51100000000E-03 0. -1.
         11   -1    0    0    0    0 -0.00000000000E+00 -0.00000000000E+00 -0.45593999997E+02  0.45594000000E+02  0.51100000000E-03 0.  1.
    9900012    2    1    2    0    0 -0.30107214192E+02 -0.16574307645E+02 -0.21725870159E+02  0.50528862596E+02  0.30000008347E+02 0.  0.
         12    1    1    2    0    0  0.30107214192E+02  0.16574307645E+02  0.21725870159E+02  0.40659137404E+02  0.00000000000E+00 0. -1.
         11    1    3    3    0    0 -0.10932183850E+02 -0.10626898531E+02 -0.81962429388E+01  0.17309593141E+02  0.51100000000E-03 0. -1.
        -11    1    3    3    0    0 -0.15487463487E+02 -0.38559733788E+01  0.29260622666E+01  0.16226271803E+02  0.51100000000E-03 0.  1.
        -12    1    3    3    0    0 -0.36875668540E+01 -0.20914357352E+01 -0.16455689487E+02  0.16992997652E+02  0.00000000000E+00 0.  1.
</event>
<event>
 7    1  0.5843820E-012  0.5052887E+02  0.7816164E-02  0.1300439E+00
        -11   -1    0    0    0    0  0.00000000000E+00  0.00000000000E+00  0.45593999997E+02  0.45594000000E+02  0.51100000000E-03 0. -1.
         11   -1    0    0    0    0 -0.00000000000E+00 -0.00000000000E+00 -0.45593999997E+02  0.45594000000E+02  0.51100000000E-03 0.  1.
    9900012    2    1    2    0    0 -0.66363510532E+00  0.30235871873E+02 -0.27175656127E+02  0.50528872545E+02  0.30000038587E+02 0.  0.
         12    1    1    2    0    0  0.66363510532E+00 -0.30235871873E+02  0.27175656127E+02  0.40659127455E+02  0.00000000000E+00 0. -1.
         11    1    3    3    0    0  0.81525900981E+01  0.11330035436E+02 -0.48162788291E-01  0.13958393467E+02  0.51100000000E-03 0. -1.
        -11    1    3    3    0    0 -0.42388594974E+01  0.19371890439E+02 -0.23208968872E+02  0.30526943925E+02  0.51100000000E-03 0.  1.
        -12    1    3    3    0    0 -0.45773657059E+01 -0.46605400174E+00 -0.39185244665E+01  0.60435351520E+01  0.00000000000E+00 0.  1.
</event>
<event>
 7    1  0.7471459E-012  0.5052886E+02  0.7816164E-02  0.1300439E+00
        -11   -1    0    0    0    0  0.00000000000E+00  0.00000000000E+00  0.45593999997E+02  0.45594000000E+02  0.51100000000E-03 0. -1.
         11   -1    0    0    0    0 -0.00000000000E+00 -0.00000000000E+00 -0.45593999997E+02  0.45594000000E+02  0.51100000000E-03 0.  1.
    9900012    2    1    2    0    0 -0.13152795129E+02 -0.10414915811E+02 -0.37036456729E+02  0.50528860584E+02  0.30000002231E+02 0.  0.
         12    1    1    2    0    0  0.13152795129E+02  0.10414915811E+02  0.37036456729E+02  0.40659139416E+02  0.00000000000E+00 0. -1.
         11    1    3    3    0    0 -0.71112020714E+01 -0.76826173850E+01 -0.23564654685E+01  0.10730551456E+02  0.51100000000E-03 0.  1.
        -11    1    3    3    0    0 -0.68584628279E+01 -0.33679010047E+00 -0.21865559290E+01  0.72064531515E+01  0.51100000000E-03 0. -1.
        -12    1    3    3    0    0  0.81686977072E+00 -0.23955083253E+01 -0.32493435331E+02  0.32591855976E+02  0.00000000000E+00 0.  1.
</event>
<event>
 7    1  0.5843820E-012  0.5052884E+02  0.7816164E-02  0.1300439E+00
        -11   -1    0    0    0    0  0.00000000000E+00  0.00000000000E+00  0.45593999997E+02  0.45594000000E+02  0.51100000000E-03 0. -1.
         11   -1    0    0    0    0 -0.00000000000E+00 -0.00000000000E+00 -0.45593999997E+02  0.45594000000E+02  0.51100000000E-03 0.  1.
    9900012    2    1    2    0    0 -0.82362489493E+01 -0.22801781631E+01  0.39750879593E+02  0.50528838208E+02  0.29999934217E+02 0.  0.
        -12    1    1    2    0    0  0.82362489493E+01  0.22801781631E+01 -0.39750879593E+02  0.40659161792E+02  0.00000000000E+00 0.  1.
         11    1    3    3    0    0  0.28197638426E+01 -0.36141642706E+01  0.32898085262E+02  0.33215918859E+02  0.51100000000E-03 0. -1.
        -11    1    3    3    0    0 -0.73314966404E+01 -0.13625846830E+01  0.94453465771E+01  0.12034203431E+02  0.51100000000E-03 0.  1.
        -12    1    3    3    0    0 -0.37245161515E+01  0.26965707905E+01 -0.25925522460E+01  0.52787159176E+01  0.00000000000E+00 0.  1.
</event>
<event>
 7    1  0.6832525E-012  0.5052887E+02  0.7816164E-02  0.1300439E+00
        -11   -1    0    0    0    0  0.00000000000E+00  0.00000000000E+00  0.45593999997E+02  0.45594000000E+02  0.51100000000E-03 0. -1.
         11   -1    0    0    0    0 -0.00000000000E+00 -0.00000000000E+00 -0.45593999997E+02  0.45594000000E+02  0.51100000000E-03 0.  1.
    9900012    2    1    2    0    0 -0.98259617784E+01 -0.87097870295E+01 -0.38480583415E+02  0.50528865541E+02  0.30000017298E+02 0.  0.
         12    1    1    2    0    0  0.98259617784E+01  0.87097870295E+01  0.38480583415E+02  0.40659134459E+02  0.00000000000E+00 0. -1.
         11    1    3    3    0    0  0.19920601738E+01 -0.71079133343E+01  0.14468089920E+01  0.75222331940E+01  0.51100000000E-03 0. -1.
        -11    1    3    3    0    0 -0.61781496220E+01 -0.56969918476E+01 -0.27532520476E+02  0.28786540829E+02  0.51100000000E-03 0.  1.
        -12    1    3    3    0    0 -0.56398723303E+01  0.40951181524E+01 -0.12394871931E+02  0.14220091518E+02  0.00000000000E+00 0.  1.
</event>
<event>
 7    1  0.5843820E-012  0.5052885E+02  0.7816164E-02  0.1300439E+00
        -11   -1    0    0    0    0  0.00000000000E+00  0.00000000000E+00  0.45593999997E+02  0.45594000000E+02  0.51100000000E-03 0. -1.
         11   -1    0    0    0    0 -0.00000000000E+00 -0.00000000000E+00 -0.45593999997E+02  0.45594000000E+02  0.51100000000E-03 0.  1.
    9900012    2    1    2    0    0  0.26340806847E+02  0.53565663343E+01  0.30506318257E+02  0.50528851437E+02  0.29999974428E+02 0.  0.
        -12    1    1    2    0    0 -0.26340806847E+02 -0.53565663343E+01 -0.30506318257E+02  0.40659148563E+02  0.00000000000E+00 0.  1.
         11    1    3    3    0    0  0.16825014995E+02 -0.44579640235E+01  0.16415189249E+02  0.23925154360E+02  0.51100000000E-03 0. -1.
        -11    1    3    3    0    0 -0.53648029000E+01  0.23857271717E+01  0.45623245124E+01  0.74355638328E+01  0.51100000000E-03 0.  1.
         12    1    3    3    0    0  0.14880594752E+02  0.74288031860E+01  0.95288044961E+01  0.19168133244E+02  0.00000000000E+00 0. -1.
</event>
<event>
 7    1  0.5843820E-012  0.5052886E+02  0.7816164E-02  0.1300439E+00
        -11   -1    0    0    0    0  0.00000000000E+00  0.00000000000E+00  0.45593999997E+02  0.45594000000E+02  0.51100000000E-03 0. -1.
         11   -1    0    0    0    0 -0.00000000000E+00 -0.00000000000E+00 -0.45593999997E+02  0.45594000000E+02  0.51100000000E-03 0.  1.
    9900012    2    1    2    0    0  0.71746417986E+01  0.29855244465E+01  0.39909604700E+02  0.50528863407E+02  0.30000010812E+02 0.  0.
        -12    1    1    2    0    0 -0.71746417986E+01 -0.29855244465E+01 -0.39909604700E+02  0.40659136593E+02  0.00000000000E+00 0.  1.
         11    1    3    3    0    0  0.13915697670E+01 -0.78951489019E+00  0.12377751871E+02  0.12480726815E+02  0.51100000000E-03 0. -1.
        -11    1    3    3    0    0 -0.94072188646E+01  0.24869849752E+01  0.16766345838E+02  0.19385335026E+02  0.51100000000E-03 0.  1.
        -12    1    3    3    0    0  0.15190290896E+02  0.12880543615E+01  0.10765506991E+02  0.18662801567E+02  0.00000000000E+00 0.  1.
</event>
<event>
 7    1  0.5843820E-012  0.5052887E+02  0.7816164E-02  0.1300439E+00
        -11   -1    0    0    0    0  0.00000000000E+00  0.00000000000E+00  0.45593999997E+02  0.45594000000E+02  0.51100000000E-03 0. -1.
         11   -1    0    0    0    0 -0.00000000000E+00 -0.00000000000E+00 -0.45593999997E+02  0.45594000000E+02  0.51100000000E-03 0.  1.
    9900012    2    1    2    0    0 -0.27021011257E+02  0.11473453416E+02 -0.28131652891E+02  0.50528867237E+02  0.30000022454E+02 0.  0.
         12    1    1    2    0    0  0.27021011257E+02 -0.11473453416E+02  0.28131652891E+02  0.40659132763E+02  0.00000000000E+00 0. -1.
         11    1    3    3    0    0 -0.22937115597E+02  0.64307606152E+01 -0.36283219692E+01  0.24096279268E+02  0.51100000000E-03 0.  1.
        -11    1    3    3    0    0 -0.54583802536E+01  0.38033549201E+01 -0.11400129956E+02  0.13199332821E+02  0.51100000000E-03 0. -1.
        -12    1    3    3    0    0  0.13744845928E+01  0.12393378803E+01 -0.13103200965E+02  0.13233255148E+02  0.00000000000E+00 0.  1.
</event>
<event>
 7    1  0.5843820E-012  0.5052887E+02  0.7816164E-02  0.1300439E+00
        -11   -1    0    0    0    0  0.00000000000E+00  0.00000000000E+00  0.45593999997E+02  0.45594000000E+02  0.51100000000E-03 0. -1.
         11   -1    0    0    0    0 -0.00000000000E+00 -0.00000000000E+00 -0.45593999997E+02  0.45594000000E+02  0.51100000000E-03 0.  1.
    9900012    2    1    2    0    0 -0.27500248044E+02 -0.19831909030E+02  0.22440962442E+02  0.50528867526E+02  0.30000023331E+02 0.  0.
        -12    1    1    2    0    0  0.27500248044E+02  0.19831909030E+02 -0.22440962442E+02  0.40659132474E+02  0.00000000000E+00 0.  1.
         11    1    3    3    0    0 -0.20579702218E+01 -0.71660867998E+01 -0.23165607085E+01  0.78073359883E+01  0.51100000000E-03 0. -1.
        -11    1    3    3    0    0 -0.72264980720E+01 -0.70847546982E+01 -0.15520034920E+01  0.10238395315E+02  0.51100000000E-03 0.  1.
         12    1    3    3    0    0 -0.18215779750E+02 -0.55810675323E+01  0.26309526643E+02  0.32483136223E+02  0.00000000000E+00 0. -1.
</event>
<event>
 7    1  0.5843820E-012  0.5052890E+02  0.7816164E-02  0.1300439E+00
        -11   -1    0    0    0    0  0.00000000000E+00  0.00000000000E+00  0.45593999997E+02  0.45594000000E+02  0.51100000000E-03 0. -1.
         11   -1    0    0    0    0 -0.00000000000E+00 -0.00000000000E+00 -0.45593999997E+02  0.45594000000E+02  0.51100000000E-03 0.  1.
    9900012    2    1    2    0    0 -0.13390942237E+02  0.26830334094E+02 -0.27458669462E+02  0.50528896589E+02  0.30000111672E+02 0.  0.
         12    1    1    2    0    0  0.13390942237E+02 -0.26830334094E+02  0.27458669462E+02  0.40659103411E+02  0.00000000000E+00 0. -1.
         11    1    3    3    0    0 -0.94587753647E+01  0.32709719162E+00 -0.98714492101E+01  0.13675559723E+02  0.51100000000E-03 0. -1.
        -11    1    3    3    0    0 -0.62432137356E+00  0.17702350485E+01 -0.10843695768E+02  0.11004964673E+02  0.51100000000E-03 0.  1.
        -12    1    3    3    0    0 -0.33078454990E+01  0.24733001853E+02 -0.67435244842E+01  0.25848372192E+02  0.00000000000E+00 0.  1.
</event>
<event>
 7    1  0.5843820E-012  0.5052886E+02  0.7816164E-02  0.1300439E+00
        -11   -1    0    0    0    0  0.00000000000E+00  0.00000000000E+00  0.45593999997E+02  0.45594000000E+02  0.51100000000E-03 0. -1.
         11   -1    0    0    0    0 -0.00000000000E+00 -0.00000000000E+00 -0.45593999997E+02  0.45594000000E+02  0.51100000000E-03 0.  1.
    9900012    2    1    2    0    0 -0.14467069518E+02 -0.34876789405E+02  0.15082409796E+02  0.50528860500E+02  0.30000001975E+02 0.  0.
        -12    1    1    2    0    0  0.14467069518E+02  0.34876789405E+02 -0.15082409796E+02  0.40659139500E+02  0.00000000000E+00 0.  1.
         11    1    3    3    0    0 -0.12775386248E+02 -0.18785091681E+02  0.12642812945E+02  0.25998670787E+02  0.51100000000E-03 0. -1.
        -11    1    3    3    0    0 -0.16930624433E+01  0.36741852648E+01  0.25161690716E+01  0.47641583575E+01  0.51100000000E-03 0.  1.
         12    1    3    3    0    0  0.13791737703E-02 -0.19765882989E+02 -0.76572220202E-01  0.19766031356E+02  0.00000000000E+00 0. -1.
</event>
<event>
 7    1  0.5843820E-012  0.5052885E+02  0.7816164E-02  0.1300439E+00
        -11   -1    0    0    0    0  0.00000000000E+00  0.00000000000E+00  0.45593999997E+02  0.45594000000E+02  0.51100000000E-03 0.  1.
         11   -1    0    0    0    0 -0.00000000000E+00 -0.00000000000E+00 -0.45593999997E+02  0.45594000000E+02  0.51100000000E-03 0. -1.
    9900012    2    1    2    0    0 -0.32307910648E+01  0.28270928109E+02  0.29042779384E+02  0.50528850705E+02  0.29999972203E+02 0.  0.
        -12    1    1    2    0    0  0.32307910648E+01 -0.28270928109E+02 -0.29042779384E+02  0.40659149295E+02  0.00000000000E+00 0.  1.
         11    1    3    3    0    0 -0.30514977182E+00  0.21980343386E+01  0.20004256385E+01  0.29876703856E+01  0.51100000000E-03 0. -1.
        -11    1    3    3    0    0  0.98216381422E+01  0.22485588498E+02  0.23161048994E+02  0.33741672405E+02  0.51100000000E-03 0.  1.
         12    1    3    3    0    0 -0.12747279435E+02  0.35873052723E+01  0.38813047510E+01  0.13799507915E+02  0.00000000000E+00 0. -1.
</event>
<event>
 7    1  0.5843820E-012  0.5052887E+02  0.7816164E-02  0.1300439E+00
        -11   -1    0    0    0    0  0.00000000000E+00  0.00000000000E+00  0.45593999997E+02  0.45594000000E+02  0.51100000000E-03 0. -1.
         11   -1    0    0    0    0 -0.00000000000E+00 -0.00000000000E+00 -0.45593999997E+02  0.45594000000E+02  0.51100000000E-03 0.  1.
    9900012    2    1    2    0    0 -0.12095405981E+02 -0.51176345700E+01  0.38479555373E+02  0.50528865588E+02  0.30000017441E+02 0.  0.
        -12    1    1    2    0    0  0.12095405981E+02  0.51176345700E+01 -0.38479555373E+02  0.40659134412E+02  0.00000000000E+00 0.  1.
         11    1    3    3    0    0 -0.37991921874E+01 -0.11860213570E+02  0.10138103523E+02  0.16058632274E+02  0.51100000000E-03 0.  1.
        -11    1    3    3    0    0 -0.73357137632E+01 -0.16389822142E+01  0.23652904249E+02  0.24818518062E+02  0.51100000000E-03 0. -1.
        -12    1    3    3    0    0 -0.96050003042E+00  0.83815612145E+01  0.46885476004E+01  0.96517152518E+01  0.00000000000E+00 0.  1.
</event>
<event>
 7    1  0.5843820E-012  0.5052890E+02  0.7816164E-02  0.1300439E+00
        -11   -1    0    0    0    0  0.00000000000E+00  0.00000000000E+00  0.45593999997E+02  0.45594000000E+02  0.51100000000E-03 0. -1.
         11   -1    0    0    0    0 -0.00000000000E+00 -0.00000000000E+00 -0.45593999997E+02  0.45594000000E+02  0.51100000000E-03 0.  1.
    9900012    2    1    2    0    0  0.34281089553E+01  0.36386657892E+02 -0.17816322854E+02  0.50528903065E+02  0.30000131356E+02 0.  0.
         12    1    1    2    0    0 -0.34281089553E+01 -0.36386657892E+02  0.17816322854E+02  0.40659096935E+02  0.00000000000E+00 0. -1.
         11    1    3    3    0    0 -0.18702464425E+00  0.47124464110E+00  0.11520704933E+01  0.12586963144E+01  0.51100000000E-03 0. -1.
        -11    1    3    3    0    0 -0.86492657581E+01  0.28825117518E+01  0.27635038095E+00  0.91211316155E+01  0.51100000000E-03 0.  1.
         12    1    3    3    0    0  0.12264399358E+02  0.33032901499E+02 -0.19244743728E+02  0.40149075135E+02  0.00000000000E+00 0. -1.
</event>
<event>
 7    1  0.5843820E-012  0.5052886E+02  0.7816164E-02  0.1300439E+00
        -11   -1    0    0    0    0  0.00000000000E+00  0.00000000000E+00  0.45593999997E+02  0.45594000000E+02  0.51100000000E-03 0. -1.
         11   -1    0    0    0    0 -0.00000000000E+00 -0.00000000000E+00 -0.45593999997E+02  0.45594000000E+02  0.51100000000E-03 0.  1.
    9900012    2    1    2    0    0  0.12384631378E+02  0.63364033526E+01 -0.38205193705E+02  0.50528856774E+02  0.29999990650E+02 0.  0.
         12    1    1    2    0    0 -0.12384631378E+02 -0.63364033526E+01  0.38205193705E+02  0.40659143226E+02  0.00000000000E+00 0. -1.
         11    1    3    3    0    0  0.40654695591E+01  0.23118037754E+00 -0.40890363981E+01  0.57707630370E+01  0.51100000000E-03 0. -1.
        -11    1    3    3    0    0  0.12862229231E+02  0.11286454528E+02 -0.10317287626E+02  0.19981677127E+02  0.51100000000E-03 0.  1.
         12    1    3    3    0    0 -0.45430674115E+01 -0.51812315532E+01 -0.23798869681E+02  0.24776416610E+02  0.00000000000E+00 0. -1.
</event>
<event>
 7    1  0.5843820E-012  0.5052886E+02  0.7816164E-02  0.1300439E+00
        -11   -1    0    0    0    0  0.00000000000E+00  0.00000000000E+00  0.45593999997E+02  0.45594000000E+02  0.51100000000E-03 0. -1.
         11   -1    0    0    0    0 -0.00000000000E+00 -0.00000000000E+00 -0.45593999997E+02  0.45594000000E+02  0.51100000000E-03 0.  1.
    9900012    2    1    2    0    0 -0.71796877570E+01 -0.15234438740E+02 -0.37007151918E+02  0.50528864088E+02  0.30000012882E+02 0.  0.
         12    1    1    2    0    0  0.71796877570E+01  0.15234438740E+02  0.37007151918E+02  0.40659135912E+02  0.00000000000E+00 0. -1.
         11    1    3    3    0    0  0.14734743823E+01 -0.40606329288E+01 -0.43267041957E+01  0.61139378469E+01  0.51100000000E-03 0. -1.
        -11    1    3    3    0    0 -0.11751337270E+02 -0.18604996534E+02 -0.24653962362E+02  0.33046296072E+02  0.51100000000E-03 0.  1.
        -12    1    3    3    0    0  0.30981751305E+01  0.74311907224E+01 -0.80264853599E+01  0.11368630169E+02  0.00000000000E+00 0.  1.
</event>
<event>
 7    1  0.5843820E-012  0.5052886E+02  0.7816164E-02  0.1300439E+00
        -11   -1    0    0    0    0  0.00000000000E+00  0.00000000000E+00  0.45593999997E+02  0.45594000000E+02  0.51100000000E-03 0. -1.
         11   -1    0    0    0    0 -0.00000000000E+00 -0.00000000000E+00 -0.45593999997E+02  0.45594000000E+02  0.51100000000E-03 0.  1.
    9900012    2    1    2    0    0  0.11885847763E+02  0.26810230232E+02 -0.28162097524E+02  0.50528861309E+02  0.30000004435E+02 0.  0.
         12    1    1    2    0    0 -0.11885847763E+02 -0.26810230232E+02  0.28162097524E+02  0.40659138691E+02  0.00000000000E+00 0. -1.
         11    1    3    3    0    0  0.12336717413E+02 -0.10174368393E+01 -0.75036479366E+01  0.14475306797E+02  0.51100000000E-03 0. -1.
        -11    1    3    3    0    0  0.37766708813E+01  0.61939476401E+01 -0.72317423785E+01  0.10243355329E+02  0.51100000000E-03 0.  1.
        -12    1    3    3    0    0 -0.42275405316E+01  0.21633719431E+02 -0.13426707209E+02  0.25810199183E+02  0.00000000000E+00 0.  1.
</event>
<event>
 7    1  0.5843820E-012  0.5052886E+02  0.7816164E-02  0.1300439E+00
        -11   -1    0    0    0    0  0.00000000000E+00  0.00000000000E+00  0.45593999997E+02  0.45594000000E+02  0.51100000000E-03 0. -1.
         11   -1    0    0    0    0 -0.00000000000E+00 -0.00000000000E+00 -0.45593999997E+02  0.45594000000E+02  0.51100000000E-03 0.  1.
    9900012    2    1    2    0    0  0.54829084988E+01 -0.18578833332E+02 -0.35748152871E+02  0.50528858749E+02  0.29999996652E+02 0.  0.
         12    1    1    2    0    0 -0.54829084988E+01  0.18578833332E+02  0.35748152871E+02  0.40659141251E+02  0.00000000000E+00 0. -1.
         11    1    3    3    0    0  0.62020969204E+01  0.48950194971E+01 -0.11707542058E+02  0.14124226117E+02  0.51100000000E-03 0. -1.
        -11    1    3    3    0    0 -0.23953436087E+01 -0.13638897107E+02 -0.22340390368E+02  0.26284029891E+02  0.51100000000E-03 0.  1.
        -12    1    3    3    0    0  0.16761551871E+01 -0.98349557221E+01 -0.17002204458E+01  0.10120602741E+02  0.00000000000E+00 0.  1.
</event>
<event>
 7    1  0.7900057E-012  0.5052886E+02  0.7816164E-02  0.1300439E+00
        -11   -1    0    0    0    0  0.00000000000E+00  0.00000000000E+00  0.45593999997E+02  0.45594000000E+02  0.51100000000E-03 0. -1.
         11   -1    0    0    0    0 -0.00000000000E+00 -0.00000000000E+00 -0.45593999997E+02  0.45594000000E+02  0.51100000000E-03 0.  1.
    9900012    2    1    2    0    0 -0.12666694971E+02 -0.30479954066E+02 -0.23742220149E+02  0.50528858605E+02  0.29999996216E+02 0.  0.
         12    1    1    2    0    0  0.12666694971E+02  0.30479954066E+02  0.23742220149E+02  0.40659141395E+02  0.00000000000E+00 0. -1.
         11    1    3    3    0    0  0.39277256693E+01  0.23190597855E+01 -0.14619135432E+01  0.47898077927E+01  0.51100000000E-03 0. -1.
        -11    1    3    3    0    0 -0.14177501784E+02 -0.11355820533E+02 -0.79047227953E+01  0.19810120129E+02  0.51100000000E-03 0.  1.
        -12    1    3    3    0    0 -0.24169188570E+01 -0.21443193319E+02 -0.14375583810E+02  0.25928930683E+02  0.00000000000E+00 0.  1.
</event>
<event>
 7    1  0.5843820E-012  0.5052883E+02  0.7816164E-02  0.1300439E+00
        -11   -1    0    0    0    0  0.00000000000E+00  0.00000000000E+00  0.45593999997E+02  0.45594000000E+02  0.51100000000E-03 0. -1.
         11   -1    0    0    0    0 -0.00000000000E+00 -0.00000000000E+00 -0.45593999997E+02  0.45594000000E+02  0.51100000000E-03 0.  1.
    9900012    2    1    2    0    0 -0.87046893681E+01 -0.10083151307E+02  0.38415189897E+02  0.50528826717E+02  0.29999899288E+02 0.  0.
        -12    1    1    2    0    0  0.87046893681E+01  0.10083151307E+02 -0.38415189897E+02  0.40659173283E+02  0.00000000000E+00 0.  1.
         11    1    3    3    0    0 -0.12161622412E+02 -0.10777366866E+02  0.15568855551E+02  0.22504354239E+02  0.51100000000E-03 0. -1.
        -11    1    3    3    0    0 -0.19207884441E+01 -0.67419077776E+01  0.88921232350E+01  0.11323100486E+02  0.51100000000E-03 0.  1.
         12    1    3    3    0    0  0.53777214878E+01  0.74361233375E+01  0.13954211111E+02  0.16701371992E+02  0.00000000000E+00 0. -1.
</event>
<event>
 7    1  0.5843820E-012  0.5052886E+02  0.7816164E-02  0.1300439E+00
        -11   -1    0    0    0    0  0.00000000000E+00  0.00000000000E+00  0.45593999997E+02  0.45594000000E+02  0.51100000000E-03 0. -1.
         11   -1    0    0    0    0 -0.00000000000E+00 -0.00000000000E+00 -0.45593999997E+02  0.45594000000E+02  0.51100000000E-03 0.  1.
    9900012    2    1    2    0    0  0.65920563585E+01 -0.10834918066E+02 -0.38630490297E+02  0.50528862809E+02  0.30000008993E+02 0.  0.
         12    1    1    2    0    0 -0.65920563585E+01  0.10834918066E+02  0.38630490297E+02  0.40659137191E+02  0.00000000000E+00 0. -1.
         11    1    3    3    0    0  0.38062742523E+01 -0.12824455641E+02 -0.11749311841E+02  0.17804513899E+02  0.51100000000E-03 0. -1.
        -11    1    3    3    0    0  0.17947867361E+01  0.32170752921E+01  0.17298954863E+01  0.40698122214E+01  0.51100000000E-03 0.  1.
        -12    1    3    3    0    0  0.99099537009E+00 -0.12275377170E+01 -0.28611073942E+02  0.28654536688E+02  0.00000000000E+00 0.  1.
</event>
<event>
 7    1  0.5843820E-012  0.5052886E+02  0.7816164E-02  0.1300439E+00
        -11   -1    0    0    0    0  0.00000000000E+00  0.00000000000E+00  0.45593999997E+02  0.45594000000E+02  0.51100000000E-03 0. -1.
         11   -1    0    0    0    0 -0.00000000000E+00 -0.00000000000E+00 -0.45593999997E+02  0.45594000000E+02  0.51100000000E-03 0.  1.
    9900012    2    1    2    0    0 -0.11772565174E+02  0.51185398553E+01 -0.38579432165E+02  0.50528864161E+02  0.30000013103E+02 0.  0.
         12    1    1    2    0    0  0.11772565174E+02 -0.51185398553E+01  0.38579432165E+02  0.40659135839E+02  0.00000000000E+00 0. -1.
         11    1    3    3    0    0  0.24158427146E-01  0.97509802733E+01 -0.18524387123E+02  0.20934065981E+02  0.51100000000E-03 0. -1.
        -11    1    3    3    0    0  0.41542775065E+01 -0.52134011344E-02 -0.81901373758E+01  0.91834851378E+01  0.51100000000E-03 0.  1.
        -12    1    3    3    0    0 -0.15951001108E+02 -0.46272270168E+01 -0.11864907666E+02  0.20411313042E+02  0.00000000000E+00 0.  1.
</event>
<event>
 7    1  0.5843820E-012  0.5052886E+02  0.7816164E-02  0.1300439E+00
        -11   -1    0    0    0    0  0.00000000000E+00  0.00000000000E+00  0.45593999997E+02  0.45594000000E+02  0.51100000000E-03 0. -1.
         11   -1    0    0    0    0 -0.00000000000E+00 -0.00000000000E+00 -0.45593999997E+02  0.45594000000E+02  0.51100000000E-03 0.  1.
    9900012    2    1    2    0    0  0.90795443952E+01  0.50887994343E+01  0.39304344985E+02  0.50528861534E+02  0.30000005119E+02 0.  0.
        -12    1    1    2    0    0 -0.90795443952E+01 -0.50887994343E+01 -0.39304344985E+02  0.40659138466E+02  0.00000000000E+00 0.  1.
         11    1    3    3    0    0  0.45199536838E+01  0.37672773051E+01  0.16430724746E+02  0.17452537797E+02  0.51100000000E-03 0. -1.
        -11    1    3    3    0    0  0.13238552410E+02 -0.33512089389E+01  0.16124116347E+02  0.21130002354E+02  0.51100000000E-03 0.  1.
        -12    1    3    3    0    0 -0.86789616986E+01  0.46727310681E+01  0.67495038917E+01  0.11946321383E+02  0.00000000000E+00 0.  1.
</event>
<event>
 7    1  0.5843820E-012  0.5052885E+02  0.7816164E-02  0.1300439E+00
        -11   -1    0    0    0    0  0.00000000000E+00  0.00000000000E+00  0.45593999997E+02  0.45594000000E+02  0.51100000000E-03 0. -1.
         11   -1    0    0    0    0 -0.00000000000E+00 -0.00000000000E+00 -0.45593999997E+02  0.45594000000E+02  0.51100000000E-03 0.  1.
    9900012    2    1    2    0    0  0.18725197288E+01 -0.15587410268E+02 -0.37505897987E+02  0.50528854991E+02  0.29999985232E+02 0.  0.
         12    1    1    2    0    0 -0.18725197288E+01  0.15587410268E+02  0.37505897987E+02  0.40659145009E+02  0.00000000000E+00 0. -1.
         11    1    3    3    0    0 -0.21674210267E+01  0.24383258479E+01 -0.18869140744E+01  0.37687652929E+01  0.51100000000E-03 0. -1.
        -11    1    3    3    0    0 -0.90161128432E+01 -0.55874773387E+01 -0.21073393538E+02  0.23592331577E+02  0.51100000000E-03 0.  1.
         12    1    3    3    0    0  0.13056053599E+02 -0.12438258778E+02 -0.14545590375E+02  0.23167758121E+02  0.00000000000E+00 0. -1.
</event>
<event>
 7    1  0.5843820E-012  0.5052886E+02  0.7816164E-02  0.1300439E+00
        -11   -1    0    0    0    0  0.00000000000E+00  0.00000000000E+00  0.45593999997E+02  0.45594000000E+02  0.51100000000E-03 0. -1.
         11   -1    0    0    0    0 -0.00000000000E+00 -0.00000000000E+00 -0.45593999997E+02  0.45594000000E+02  0.51100000000E-03 0.  1.
    9900012    2    1    2    0    0  0.19837784603E+02  0.19098555507E+02 -0.29914429183E+02  0.50528860883E+02  0.30000003141E+02 0.  0.
         12    1    1    2    0    0 -0.19837784603E+02 -0.19098555507E+02  0.29914429183E+02  0.40659139117E+02  0.00000000000E+00 0. -1.
         11    1    3    3    0    0  0.11275299357E+02  0.78008760930E+01 -0.52582745879E+01  0.14684532519E+02  0.51100000000E-03 0. -1.
        -11    1    3    3    0    0  0.11527191210E+02  0.90500776719E+01 -0.44753687611E+01  0.15323477702E+02  0.51100000000E-03 0.  1.
         12    1    3    3    0    0 -0.29647059640E+01  0.22476017415E+01 -0.20180785834E+02  0.20520850663E+02  0.00000000000E+00 0. -1.
</event>
<event>
 7    1  0.5843820E-012  0.5052887E+02  0.7816164E-02  0.1300439E+00
        -11   -1    0    0    0    0  0.00000000000E+00  0.00000000000E+00  0.45593999997E+02  0.45594000000E+02  0.51100000000E-03 0.  1.
         11   -1    0    0    0    0 -0.00000000000E+00 -0.00000000000E+00 -0.45593999997E+02  0.45594000000E+02  0.51100000000E-03 0. -1.
    9900012    2    1    2    0    0 -0.28769420134E+02 -0.28730917616E+02 -0.14110751122E+00  0.50528867284E+02  0.30000022597E+02 0.  0.
        -12    1    1    2    0    0  0.28769420134E+02  0.28730917616E+02  0.14110751122E+00  0.40659132716E+02  0.00000000000E+00 0.  1.
         11    1    3    3    0    0 -0.12012926023E+01 -0.90674875574E+01 -0.59102194274E+01  0.10890047220E+02  0.51100000000E-03 0. -1.
        -11    1    3    3    0    0 -0.26287225683E+02 -0.16341436400E+02  0.11392931544E+02  0.32982717704E+02  0.51100000000E-03 0.  1.
         12    1    3    3    0    0 -0.12809018485E+01 -0.33219936586E+01 -0.56238196279E+01  0.66561023595E+01  0.00000000000E+00 0. -1.
</event>
<event>
 7    1  0.5843820E-012  0.5052882E+02  0.7816164E-02  0.1300439E+00
        -11   -1    0    0    0    0  0.00000000000E+00  0.00000000000E+00  0.45593999997E+02  0.45594000000E+02  0.51100000000E-03 0. -1.
         11   -1    0    0    0    0 -0.00000000000E+00 -0.00000000000E+00 -0.45593999997E+02  0.45594000000E+02  0.51100000000E-03 0.  1.
    9900012    2    1    2    0    0  0.20413832294E+02 -0.31394326688E+01  0.35022686364E+02  0.50528817193E+02  0.29999870340E+02 0.  0.
        -12    1    1    2    0    0 -0.20413832294E+02  0.31394326688E+01 -0.35022686364E+02  0.40659182807E+02  0.00000000000E+00 0.  1.
         11    1    3    3    0    0  0.17711716033E+02 -0.48828502683E+01  0.20061396483E+02  0.27203064913E+02  0.51100000000E-03 0. -1.
        -11    1    3    3    0    0  0.70166827298E+01  0.76617729458E+01  0.10384346612E+02  0.14689154367E+02  0.51100000000E-03 0.  1.
        -12    1    3    3    0    0 -0.43145664690E+01 -0.59183553463E+01  0.45769432689E+01  0.86365979128E+01  0.00000000000E+00 0.  1.
</event>
<event>
 7    1  0.5843820E-012  0.5052887E+02  0.7816164E-02  0.1300439E+00
        -11   -1    0    0    0    0  0.00000000000E+00  0.00000000000E+00  0.45593999997E+02  0.45594000000E+02  0.51100000000E-03 0. -1.
         11   -1    0    0    0    0 -0.00000000000E+00 -0.00000000000E+00 -0.45593999997E+02  0.45594000000E+02  0.51100000000E-03 0.  1.
    9900012    2    1    2    0    0  0.27517958324E+02  0.71829402712E+00  0.29923418111E+02  0.50528869069E+02  0.30000028022E+02 0.  0.
        -12    1    1    2    0    0 -0.27517958324E+02 -0.71829402712E+00 -0.29923418111E+02  0.40659130931E+02  0.00000000000E+00 0.  1.
         11    1    3    3    0    0  0.17355450314E+02 -0.55708946240E+00  0.13807960300E+02  0.22185170096E+02  0.51100000000E-03 0. -1.
        -11    1    3    3    0    0 -0.36469015154E+01 -0.16543927461E+01 -0.26937227648E+01  0.48262872496E+01  0.51100000000E-03 0.  1.
         12    1    3    3    0    0  0.13809409525E+02  0.29297762356E+01  0.18809180576E+02  0.23517411723E+02  0.00000000000E+00 0. -1.
</event>
<event>
 7    1  0.5843820E-012  0.5052886E+02  0.7816164E-02  0.1300439E+00
        -11   -1    0    0    0    0  0.00000000000E+00  0.00000000000E+00  0.45593999997E+02  0.45594000000E+02  0.51100000000E-03 0. -1.
         11   -1    0    0    0    0 -0.00000000000E+00 -0.00000000000E+00 -0.45593999997E+02  0.45594000000E+02  0.51100000000E-03 0.  1.
    9900012    2    1    2    0    0  0.63176693033E+01  0.20408631601E+02  0.34593941989E+02  0.50528855744E+02  0.29999987520E+02 0.  0.
        -12    1    1    2    0    0 -0.63176693033E+01 -0.20408631601E+02 -0.34593941989E+02  0.40659144256E+02  0.00000000000E+00 0.  1.
         11    1    3    3    0    0  0.10796956403E+02  0.68226984497E+01  0.10805484590E+02  0.16729673613E+02  0.51100000000E-03 0. -1.
        -11    1    3    3    0    0  0.35173536883E+01  0.45860359955E+01 -0.13423359366E+01  0.59334112573E+01  0.51100000000E-03 0.  1.
         12    1    3    3    0    0 -0.79966407881E+01  0.89998971562E+01  0.25130793336E+02  0.27865770874E+02  0.00000000000E+00 0. -1.
</event>
<event>
 7    1  0.5843820E-012  0.5052885E+02  0.7816164E-02  0.1300439E+00
        -11   -1    0    0    0    0  0.00000000000E+00  0.00000000000E+00  0.45593999997E+02  0.45594000000E+02  0.51100000000E-03 0.  1.
         11   -1    0    0    0    0 -0.00000000000E+00 -0.00000000000E+00 -0.45593999997E+02  0.45594000000E+02  0.51100000000E-03 0. -1.
    9900012    2    1    2    0    0  0.10206546117E+02 -0.39355913968E+02  0.32355697033E+00  0.50528852973E+02  0.29999979096E+02 0.  0.
        -12    1    1    2    0    0 -0.10206546117E+02  0.39355913968E+02 -0.32355697033E+00  0.40659147027E+02  0.00000000000E+00 0.  1.
         11    1    3    3    0    0  0.56465067873E+01 -0.18383763994E+02 -0.90415416430E+00  0.19252618328E+02  0.51100000000E-03 0. -1.
        -11    1    3    3    0    0  0.11361782388E+01 -0.18147936024E+02 -0.88807851975E+01  0.20236275075E+02  0.51100000000E-03 0.  1.
        -12    1    3    3    0    0  0.34238610905E+01 -0.28242139501E+01  0.10108496332E+02  0.11039959570E+02  0.00000000000E+00 0.  1.
</event>
<event>
 7    1  0.5843820E-012  0.5052884E+02  0.7816164E-02  0.1300439E+00
        -11   -1    0    0    0    0  0.00000000000E+00  0.00000000000E+00  0.45593999997E+02  0.45594000000E+02  0.51100000000E-03 0. -1.
         11   -1    0    0    0    0 -0.00000000000E+00 -0.00000000000E+00 -0.45593999997E+02  0.45594000000E+02  0.51100000000E-03 0.  1.
    9900012    2    1    2    0    0  0.72230021867E+01  0.25197861844E+02  0.31081555225E+02  0.50528842639E+02  0.29999947686E+02 0.  0.
        -12    1    1    2    0    0 -0.72230021867E+01 -0.25197861844E+02 -0.31081555225E+02  0.40659157361E+02  0.00000000000E+00 0.  1.
         11    1    3    3    0    0  0.11196953862E+02  0.63786600397E+01  0.17462305592E+02  0.21702331592E+02  0.51100000000E-03 0. -1.
        -11    1    3    3    0    0  0.30507503467E+01 -0.17086592700E+01  0.67240984179E+00  0.35607203534E+01  0.51100000000E-03 0.  1.
         12    1    3    3    0    0 -0.70247020222E+01  0.20527861074E+02  0.12946839791E+02  0.25265790693E+02  0.00000000000E+00 0. -1.
</event>
<event>
 7    1  0.5843820E-012  0.5052889E+02  0.7816164E-02  0.1300439E+00
        -11   -1    0    0    0    0  0.00000000000E+00  0.00000000000E+00  0.45593999997E+02  0.45594000000E+02  0.51100000000E-03 0. -1.
         11   -1    0    0    0    0 -0.00000000000E+00 -0.00000000000E+00 -0.45593999997E+02  0.45594000000E+02  0.51100000000E-03 0.  1.
    9900012    2    1    2    0    0 -0.36083778426E+02  0.12550118997E+02 -0.13914698170E+02  0.50528888137E+02  0.30000085981E+02 0.  0.
         12    1    1    2    0    0  0.36083778426E+02 -0.12550118997E+02  0.13914698170E+02  0.40659111863E+02  0.00000000000E+00 0. -1.
         11    1    3    3    0    0 -0.13729593848E+02  0.12916022064E+02 -0.42548113581E+01  0.19324305761E+02  0.51100000000E-03 0. -1.
        -11    1    3    3    0    0 -0.24370978120E+02  0.19315211709E+01 -0.12114187788E+02  0.27284224280E+02  0.51100000000E-03 0.  1.
         12    1    3    3    0    0  0.20167935418E+01 -0.22974242379E+01  0.24543009760E+01  0.39203580959E+01  0.00000000000E+00 0. -1.
</event>
<event>
 7    1  0.5843820E-012  0.5052885E+02  0.7816164E-02  0.1300439E+00
        -11   -1    0    0    0    0  0.00000000000E+00  0.00000000000E+00  0.45593999997E+02  0.45594000000E+02  0.51100000000E-03 0. -1.
         11   -1    0    0    0    0 -0.00000000000E+00 -0.00000000000E+00 -0.45593999997E+02  0.45594000000E+02  0.51100000000E-03 0.  1.
    9900012    2    1    2    0    0 -0.33324916470E+02 -0.21085119002E+02  0.99012159531E+01  0.50528851234E+02  0.29999973810E+02 0.  0.
         12    1    1    2    0    0  0.33324916470E+02  0.21085119002E+02 -0.99012159531E+01  0.40659148766E+02  0.00000000000E+00 0. -1.
         11    1    3    3    0    0  0.25031055101E+01 -0.31467454409E+01  0.66337984167E+01  0.77572434382E+01  0.51100000000E-03 0. -1.
        -11    1    3    3    0    0 -0.22611670958E+02 -0.15484690393E+02  0.79530147832E+01  0.28536183075E+02  0.51100000000E-03 0.  1.
        -12    1    3    3    0    0 -0.13216351022E+02 -0.24536831684E+01 -0.46855972467E+01  0.14235424721E+02  0.00000000000E+00 0.  1.
</event>
<event>
 7    1  0.5843820E-012  0.5052889E+02  0.7816164E-02  0.1300439E+00
        -11   -1    0    0    0    0  0.00000000000E+00  0.00000000000E+00  0.45593999997E+02  0.45594000000E+02  0.51100000000E-03 0. -1.
         11   -1    0    0    0    0 -0.00000000000E+00 -0.00000000000E+00 -0.45593999997E+02  0.45594000000E+02  0.51100000000E-03 0.  1.
    9900012    2    1    2    0    0  0.12834307805E+02  0.22479021649E+02 -0.31355019029E+02  0.50528891679E+02  0.30000096747E+02 0.  0.
         12    1    1    2    0    0 -0.12834307805E+02 -0.22479021649E+02  0.31355019029E+02  0.40659108321E+02  0.00000000000E+00 0. -1.
         11    1    3    3    0    0 -0.28611960116E+01  0.10457271489E+02 -0.17391890866E+02  0.20494361121E+02  0.51100000000E-03 0.  1.
        -11    1    3    3    0    0  0.12860112169E+01 -0.50482864822E+00  0.37462143518E+01  0.39928434786E+01  0.51100000000E-03 0. -1.
         12    1    3    3    0    0  0.14409492600E+02  0.12526578809E+02 -0.17709342515E+02  0.26041687080E+02  0.00000000000E+00 0. -1.
</event>
<event>
 7    1  0.5843820E-012  0.5052886E+02  0.7816164E-02  0.1300439E+00
        -11   -1    0    0    0    0  0.00000000000E+00  0.00000000000E+00  0.45593999997E+02  0.45594000000E+02  0.51100000000E-03 0. -1.
         11   -1    0    0    0    0 -0.00000000000E+00 -0.00000000000E+00 -0.45593999997E+02  0.45594000000E+02  0.51100000000E-03 0.  1.
    9900012    2    1    2    0    0 -0.23313522158E+02 -0.22632003088E+02  0.24442534287E+02  0.50528863738E+02  0.30000011818E+02 0.  0.
        -12    1    1    2    0    0  0.23313522158E+02  0.22632003088E+02 -0.24442534287E+02  0.40659136262E+02  0.00000000000E+00 0.  1.
         11    1    3    3    0    0 -0.15581426315E+01 -0.12898960758E+02  0.11115013461E+02  0.17098377748E+02  0.51100000000E-03 0. -1.
        -11    1    3    3    0    0  0.12659579651E+01 -0.73830588725E+01  0.26595666802E+01  0.79489309389E+01  0.51100000000E-03 0.  1.
        -12    1    3    3    0    0 -0.23021337492E+02 -0.23499834571E+01  0.10667954146E+02  0.25481555051E+02  0.00000000000E+00 0.  1.
</event>
<event>
 7    1  0.5843820E-012  0.5052883E+02  0.7816164E-02  0.1300439E+00
        -11   -1    0    0    0    0  0.00000000000E+00  0.00000000000E+00  0.45593999997E+02  0.45594000000E+02  0.51100000000E-03 0. -1.
         11   -1    0    0    0    0 -0.00000000000E+00 -0.00000000000E+00 -0.45593999997E+02  0.45594000000E+02  0.51100000000E-03 0.  1.
    9900012    2    1    2    0    0 -0.10062826753E+02 -0.32462866207E+02 -0.22317475627E+02  0.50528832732E+02  0.29999917571E+02 0.  0.
         12    1    1    2    0    0  0.10062826753E+02  0.32462866207E+02  0.22317475627E+02  0.40659167268E+02  0.00000000000E+00 0. -1.
         11    1    3    3    0    0  0.25377599865E+01  0.34266482692E+00  0.28279553337E+01  0.38150984998E+01  0.51100000000E-03 0. -1.
        -11    1    3    3    0    0 -0.95597753648E-01  0.11146338513E+01  0.14512400691E+01  0.18323879372E+01  0.51100000000E-03 0.  1.
        -12    1    3    3    0    0 -0.12504988986E+02 -0.33920164885E+02 -0.26596671029E+02  0.44881346295E+02  0.00000000000E+00 0.  1.
</event>
<event>
 7    1  0.5843820E-012  0.5052884E+02  0.7816164E-02  0.1300439E+00
        -11   -1    0    0    0    0  0.00000000000E+00  0.00000000000E+00  0.45593999997E+02  0.45594000000E+02  0.51100000000E-03 0. -1.
         11   -1    0    0    0    0 -0.00000000000E+00 -0.00000000000E+00 -0.45593999997E+02  0.45594000000E+02  0.51100000000E-03 0.  1.
    9900012    2    1    2    0    0  0.63868952878E+01 -0.36411166088E+02 -0.16929323488E+02  0.50528838165E+02  0.29999934088E+02 0.  0.
         12    1    1    2    0    0 -0.63868952878E+01  0.36411166088E+02  0.16929323488E+02  0.40659161835E+02  0.00000000000E+00 0. -1.
         11    1    3    3    0    0  0.39410033993E+01 -0.25490408184E+02 -0.74717694822E+01  0.26853673057E+02  0.51100000000E-03 0. -1.
        -11    1    3    3    0    0 -0.76462972137E+00 -0.15499157036E+02 -0.43858099341E+01  0.16125875371E+02  0.51100000000E-03 0.  1.
         12    1    3    3    0    0  0.32105216099E+01  0.45783991317E+01 -0.50717440720E+01  0.75492897380E+01  0.00000000000E+00 0. -1.
</event>
<event>
 7    1  0.5843820E-012  0.5052886E+02  0.7816164E-02  0.1300439E+00
        -11   -1    0    0    0    0  0.00000000000E+00  0.00000000000E+00  0.45593999997E+02  0.45594000000E+02  0.51100000000E-03 0. -1.
         11   -1    0    0    0    0 -0.00000000000E+00 -0.00000000000E+00 -0.45593999997E+02  0.45594000000E+02  0.51100000000E-03 0.  1.
    9900012    2    1    2    0    0  0.30593988169E+02 -0.77055761128E+01  0.25647560738E+02  0.50528863424E+02  0.30000010863E+02 0.  0.
        -12    1    1    2    0    0 -0.30593988169E+02  0.77055761128E+01 -0.25647560738E+02  0.40659136576E+02  0.00000000000E+00 0.  1.
         11    1    3    3    0    0  0.83672418101E+01 -0.46016596784E+01  0.27859606546E+00  0.95531996385E+01  0.51100000000E-03 0. -1.
        -11    1    3    3    0    0  0.71181086053E+01 -0.11728867127E+02  0.60992276697E+01  0.15014472106E+02  0.51100000000E-03 0.  1.
        -12    1    3    3    0    0  0.15108637754E+02  0.86249506929E+01  0.19269737002E+02  0.25961191679E+02  0.00000000000E+00 0.  1.
</event>
<event>
 7    1  0.5843820E-012  0.5052885E+02  0.7816164E-02  0.1300439E+00
        -11   -1    0    0    0    0  0.00000000000E+00  0.00000000000E+00  0.45593999997E+02  0.45594000000E+02  0.51100000000E-03 0. -1.
         11   -1    0    0    0    0 -0.00000000000E+00 -0.00000000000E+00 -0.45593999997E+02  0.45594000000E+02  0.51100000000E-03 0.  1.
    9900012    2    1    2    0    0  0.16401477487E+02  0.21879299431E+02  0.30090760811E+02  0.50528854737E+02  0.29999984458E+02 0.  0.
        -12    1    1    2    0    0 -0.16401477487E+02 -0.21879299431E+02 -0.30090760811E+02  0.40659145263E+02  0.00000000000E+00 0.  1.
         11    1    3    3    0    0  0.12699262334E+01  0.67600292939E+01  0.38804331369E+01  0.78973710995E+01  0.51100000000E-03 0. -1.
        -11    1    3    3    0    0 -0.28717044268E+01  0.35751855555E+00 -0.37196328068E+01  0.47127671607E+01  0.51100000000E-03 0.  1.
        -12    1    3    3    0    0  0.18003255681E+02  0.14761751581E+02  0.29929960481E+02  0.37918716477E+02  0.00000000000E+00 0.  1.
</event>
<event>
 7    1  0.5843820E-012  0.5052886E+02  0.7816164E-02  0.1300439E+00
        -11   -1    0    0    0    0  0.00000000000E+00  0.00000000000E+00  0.45593999997E+02  0.45594000000E+02  0.51100000000E-03 0. -1.
         11   -1    0    0    0    0 -0.00000000000E+00 -0.00000000000E+00 -0.45593999997E+02  0.45594000000E+02  0.51100000000E-03 0.  1.
    9900012    2    1    2    0    0 -0.17090886403E+02  0.10161512004E+02  0.35465634964E+02  0.50528856039E+02  0.29999988416E+02 0.  0.
        -12    1    1    2    0    0  0.17090886403E+02 -0.10161512004E+02 -0.35465634964E+02  0.40659143961E+02  0.00000000000E+00 0.  1.
         11    1    3    3    0    0 -0.14965745968E+01 -0.15664667760E+01  0.16567297839E+02  0.16708348561E+02  0.51100000000E-03 0. -1.
        -11    1    3    3    0    0  0.14416410034E+01 -0.43362038391E+01  0.22765475868E+01  0.51052582396E+01  0.51100000000E-03 0.  1.
         12    1    3    3    0    0 -0.17035952810E+02  0.16064182620E+02  0.16621789538E+02  0.28715249238E+02  0.00000000000E+00 0. -1.
</event>
<event>
 7    1  0.5843820E-012  0.5052886E+02  0.7816164E-02  0.1300439E+00
        -11   -1    0    0    0    0  0.00000000000E+00  0.00000000000E+00  0.45593999997E+02  0.45594000000E+02  0.51100000000E-03 0. -1.
         11   -1    0    0    0    0 -0.00000000000E+00 -0.00000000000E+00 -0.45593999997E+02  0.45594000000E+02  0.51100000000E-03 0.  1.
    9900012    2    1    2    0    0 -0.77298771629E+01 -0.28583465061E+02 -0.27863960500E+02  0.50528858708E+02  0.29999996530E+02 0.  0.
         12    1    1    2    0    0  0.77298771629E+01  0.28583465061E+02  0.27863960500E+02  0.40659141292E+02  0.00000000000E+00 0. -1.
         11    1    3    3    0    0  0.76596899325E+01 -0.11464309736E+02 -0.13478278507E+02  0.19281214676E+02  0.51100000000E-03 0.  1.
        -11    1    3    3    0    0 -0.18254233902E+01  0.27218123567E+01 -0.80541903146E-01  0.32782495814E+01  0.51100000000E-03 0. -1.
        -12    1    3    3    0    0 -0.13564143705E+02 -0.19840967681E+02 -0.14305140089E+02  0.27969394451E+02  0.00000000000E+00 0.  1.
</event>
<event>
 7    1  0.5843820E-012  0.5052886E+02  0.7816164E-02  0.1300439E+00
        -11   -1    0    0    0    0  0.00000000000E+00  0.00000000000E+00  0.45593999997E+02  0.45594000000E+02  0.51100000000E-03 0. -1.
         11   -1    0    0    0    0 -0.00000000000E+00 -0.00000000000E+00 -0.45593999997E+02  0.45594000000E+02  0.51100000000E-03 0.  1.
    9900012    2    1    2    0    0  0.19567817255E+02  0.21887706920E+02  0.28128176965E+02  0.50528861720E+02  0.30000005684E+02 0.  0.
        -12    1    1    2    0    0 -0.19567817255E+02 -0.21887706920E+02 -0.28128176965E+02  0.40659138280E+02  0.00000000000E+00 0.  1.
         11    1    3    3    0    0  0.13059872766E+02  0.84138073574E+00  0.11993017195E+02  0.17751074895E+02  0.51100000000E-03 0. -1.
        -11    1    3    3    0    0  0.48508373783E+01  0.17673985753E+02  0.20177629033E+02  0.27258707037E+02  0.51100000000E-03 0.  1.
         12    1    3    3    0    0  0.16571071104E+01  0.33723404308E+01 -0.40424692638E+01  0.55190797879E+01  0.00000000000E+00 0. -1.
</event>
<event>
 7    1  0.5843820E-012  0.5052888E+02  0.7816164E-02  0.1300439E+00
        -11   -1    0    0    0    0  0.00000000000E+00  0.00000000000E+00  0.45593999997E+02  0.45594000000E+02  0.51100000000E-03 0. -1.
         11   -1    0    0    0    0 -0.00000000000E+00 -0.00000000000E+00 -0.45593999997E+02  0.45594000000E+02  0.51100000000E-03 0.  1.
    9900012    2    1    2    0    0 -0.30162796066E+02  0.18712967212E+02  0.19829142592E+02  0.50528876739E+02  0.30000051337E+02 0.  0.
        -12    1    1    2    0    0  0.30162796066E+02 -0.18712967212E+02 -0.19829142592E+02  0.40659123261E+02  0.00000000000E+00 0.  1.
         11    1    3    3    0    0 -0.19502840389E+02 -0.11130241539E+01  0.55596109720E+01  0.20310314631E+02  0.51100000000E-03 0. -1.
        -11    1    3    3    0    0 -0.65509848783E+01  0.22899656846E+01 -0.45514050316E+00  0.69546027098E+01  0.51100000000E-03 0.  1.
        -12    1    3    3    0    0 -0.41089707982E+01  0.17536025682E+02  0.14724672123E+02  0.23263959398E+02  0.00000000000E+00 0.  1.
</event>
<event>
 7    1  0.5843820E-012  0.5052886E+02  0.7816164E-02  0.1300439E+00
        -11   -1    0    0    0    0  0.00000000000E+00  0.00000000000E+00  0.45593999997E+02  0.45594000000E+02  0.51100000000E-03 0. -1.
         11   -1    0    0    0    0 -0.00000000000E+00 -0.00000000000E+00 -0.45593999997E+02  0.45594000000E+02  0.51100000000E-03 0.  1.
    9900012    2    1    2    0    0 -0.21857562241E+02 -0.27853046345E+02 -0.19990513216E+02  0.50528857898E+02  0.29999994067E+02 0.  0.
         12    1    1    2    0    0  0.21857562241E+02  0.27853046345E+02  0.19990513216E+02  0.40659142102E+02  0.00000000000E+00 0. -1.
         11    1    3    3    0    0 -0.11360755534E+02  0.15961672329E+00 -0.88080529671E+01  0.14376162253E+02  0.51100000000E-03 0. -1.
        -11    1    3    3    0    0 -0.66211861950E+01 -0.59049117023E+01 -0.10433278487E+02  0.13695305367E+02  0.51100000000E-03 0.  1.
        -12    1    3    3    0    0 -0.38756205127E+01 -0.22107751366E+02 -0.74918176213E+00  0.22457390278E+02  0.00000000000E+00 0.  1.
</event>
<event>
 7    1  0.5843820E-012  0.5052884E+02  0.7816164E-02  0.1300439E+00
        -11   -1    0    0    0    0  0.00000000000E+00  0.00000000000E+00  0.45593999997E+02  0.45594000000E+02  0.51100000000E-03 0. -1.
         11   -1    0    0    0    0 -0.00000000000E+00 -0.00000000000E+00 -0.45593999997E+02  0.45594000000E+02  0.51100000000E-03 0.  1.
    9900012    2    1    2    0    0 -0.12587053439E+02  0.10472492457E+02 -0.37216403212E+02  0.50528835221E+02  0.29999925136E+02 0.  0.
         12    1    1    2    0    0  0.12587053439E+02 -0.10472492457E+02  0.37216403212E+02  0.40659164779E+02  0.00000000000E+00 0. -1.
         11    1    3    3    0    0 -0.54061973963E+00 -0.37227938224E-01  0.21945376163E+01  0.22604537670E+01  0.51100000000E-03 0. -1.
        -11    1    3    3    0    0 -0.12742090586E+02  0.15509489220E+02 -0.20481634712E+02  0.28677560724E+02  0.51100000000E-03 0.  1.
         12    1    3    3    0    0  0.69565688594E+00 -0.49997688251E+01 -0.18929306116E+02  0.19590820729E+02  0.00000000000E+00 0. -1.
</event>
<event>
 7    1  0.5843820E-012  0.5052885E+02  0.7816164E-02  0.1300439E+00
        -11   -1    0    0    0    0  0.00000000000E+00  0.00000000000E+00  0.45593999997E+02  0.45594000000E+02  0.51100000000E-03 0. -1.
         11   -1    0    0    0    0 -0.00000000000E+00 -0.00000000000E+00 -0.45593999997E+02  0.45594000000E+02  0.51100000000E-03 0.  1.
    9900012    2    1    2    0    0 -0.41833580378E+01  0.39430176739E+02 -0.89959374432E+01  0.50528853273E+02  0.29999980008E+02 0.  0.
         12    1    1    2    0    0  0.41833580378E+01 -0.39430176739E+02  0.89959374432E+01  0.40659146727E+02  0.00000000000E+00 0. -1.
         11    1    3    3    0    0 -0.24544743109E+01  0.48799288724E+01 -0.22863701679E+01  0.59216246714E+01  0.51100000000E-03 0. -1.
        -11    1    3    3    0    0 -0.13114198120E+02  0.20851912855E+02 -0.98336004031E+01  0.26523275801E+02  0.51100000000E-03 0.  1.
         12    1    3    3    0    0  0.11385314393E+02  0.13698335011E+02  0.31240331278E+01  0.18083952800E+02  0.00000000000E+00 0. -1.
</event>
<event>
 7    1  0.5843820E-012  0.5052886E+02  0.7816164E-02  0.1300439E+00
        -11   -1    0    0    0    0  0.00000000000E+00  0.00000000000E+00  0.45593999997E+02  0.45594000000E+02  0.51100000000E-03 0. -1.
         11   -1    0    0    0    0 -0.00000000000E+00 -0.00000000000E+00 -0.45593999997E+02  0.45594000000E+02  0.51100000000E-03 0.  1.
    9900012    2    1    2    0    0  0.26313081188E+02 -0.71006312579E+00  0.30988441983E+02  0.50528856283E+02  0.29999989157E+02 0.  0.
        -12    1    1    2    0    0 -0.26313081188E+02  0.71006312579E+00 -0.30988441983E+02  0.40659143717E+02  0.00000000000E+00 0.  1.
         11    1    3    3    0    0  0.24247769875E+02  0.82114317296E+01  0.23426522236E+02  0.34701352990E+02  0.51100000000E-03 0. -1.
        -11    1    3    3    0    0 -0.33016439460E+01 -0.32714005525E+00  0.37365404998E+01  0.49969599287E+01  0.51100000000E-03 0.  1.
        -12    1    3    3    0    0  0.53669552587E+01 -0.85943548002E+01  0.38253792474E+01  0.10830543364E+02  0.00000000000E+00 0.  1.
</event>
<event>
 7    1  0.5843820E-012  0.5052887E+02  0.7816164E-02  0.1300439E+00
        -11   -1    0    0    0    0  0.00000000000E+00  0.00000000000E+00  0.45593999997E+02  0.45594000000E+02  0.51100000000E-03 0. -1.
         11   -1    0    0    0    0 -0.00000000000E+00 -0.00000000000E+00 -0.45593999997E+02  0.45594000000E+02  0.51100000000E-03 0.  1.
    9900012    2    1    2    0    0  0.28006789684E+02  0.21357590074E+01  0.29397675436E+02  0.50528867496E+02  0.30000023240E+02 0.  0.
        -12    1    1    2    0    0 -0.28006789684E+02 -0.21357590074E+01 -0.29397675436E+02  0.40659132504E+02  0.00000000000E+00 0.  1.
         11    1    3    3    0    0 -0.34982098250E+01  0.37919655841E+01  0.91383675905E+01  0.10494104890E+02  0.51100000000E-03 0. -1.
        -11    1    3    3    0    0  0.35993849457E+01 -0.71616918499E+00  0.93734772584E+01  0.10066307489E+02  0.51100000000E-03 0.  1.
        -12    1    3    3    0    0  0.27905614564E+02 -0.94003739168E+00  0.10885830587E+02  0.29968455116E+02  0.00000000000E+00 0.  1.
</event>
<event>
 7    1  0.5843820E-012  0.5052886E+02  0.7816164E-02  0.1300439E+00
        -11   -1    0    0    0    0  0.00000000000E+00  0.00000000000E+00  0.45593999997E+02  0.45594000000E+02  0.51100000000E-03 0. -1.
         11   -1    0    0    0    0 -0.00000000000E+00 -0.00000000000E+00 -0.45593999997E+02  0.45594000000E+02  0.51100000000E-03 0.  1.
    9900012    2    1    2    0    0 -0.34513423618E+02  0.75138554466E+01 -0.20137803859E+02  0.50528861079E+02  0.30000003736E+02 0.  0.
         12    1    1    2    0    0  0.34513423618E+02 -0.75138554466E+01  0.20137803859E+02  0.40659138921E+02  0.00000000000E+00 0. -1.
         11    1    3    3    0    0 -0.11086302718E+02  0.13989044774E+01 -0.36605195283E+01  0.11758505227E+02  0.51100000000E-03 0. -1.
        -11    1    3    3    0    0 -0.19839326244E+02  0.13525419411E+02 -0.48062130870E+01  0.24487456392E+02  0.51100000000E-03 0.  1.
         12    1    3    3    0    0 -0.35877946570E+01 -0.74104684420E+01 -0.11671071243E+02  0.14282899461E+02  0.00000000000E+00 0. -1.
</event>
<event>
 7    1  0.5843820E-012  0.5052886E+02  0.7816164E-02  0.1300439E+00
        -11   -1    0    0    0    0  0.00000000000E+00  0.00000000000E+00  0.45593999997E+02  0.45594000000E+02  0.51100000000E-03 0. -1.
         11   -1    0    0    0    0 -0.00000000000E+00 -0.00000000000E+00 -0.45593999997E+02  0.45594000000E+02  0.51100000000E-03 0.  1.
    9900012    2    1    2    0    0 -0.16299744196E+02  0.95245291019E+01  0.36010654314E+02  0.50528861549E+02  0.30000005164E+02 0.  0.
        -12    1    1    2    0    0  0.16299744196E+02 -0.95245291019E+01 -0.36010654314E+02  0.40659138451E+02  0.00000000000E+00 0.  1.
         11    1    3    3    0    0 -0.29231589480E+01 -0.88499375070E+00  0.15099251988E+02  0.15405047323E+02  0.51100000000E-03 0. -1.
        -11    1    3    3    0    0  0.16123966161E+01 -0.56412201253E+01  0.69721534512E+01  0.91123054908E+01  0.51100000000E-03 0.  1.
         12    1    3    3    0    0 -0.14988981864E+02  0.16050742978E+02  0.13939248875E+02  0.26011508735E+02  0.00000000000E+00 0. -1.
</event>
<event>
 7    1  0.5843820E-012  0.5052888E+02  0.7816164E-02  0.1300439E+00
        -11   -1    0    0    0    0  0.00000000000E+00  0.00000000000E+00  0.45593999997E+02  0.45594000000E+02  0.51100000000E-03 0. -1.
         11   -1    0    0    0    0 -0.00000000000E+00 -0.00000000000E+00 -0.45593999997E+02  0.45594000000E+02  0.51100000000E-03 0.  1.
    9900012    2    1    2    0    0 -0.11010815441E+02  0.20203348032E+02 -0.33522389207E+02  0.50528881631E+02  0.30000066206E+02 0.  0.
         12    1    1    2    0    0  0.11010815441E+02 -0.20203348032E+02  0.33522389207E+02  0.40659118369E+02  0.00000000000E+00 0. -1.
         11    1    3    3    0    0  0.41728751748E+01 -0.72925125196E+00 -0.14827527734E+01  0.44881232894E+01  0.51100000000E-03 0. -1.
        -11    1    3    3    0    0  0.38540342084E+01  0.79008850710E+01 -0.14900496221E+02  0.17300357004E+02  0.51100000000E-03 0.  1.
        -12    1    3    3    0    0 -0.19037724824E+02  0.13031714213E+02 -0.17139140212E+02  0.28740401338E+02  0.00000000000E+00 0.  1.
</event>
<event>
 7    1  0.5843820E-012  0.5052886E+02  0.7816164E-02  0.1300439E+00
        -11   -1    0    0    0    0  0.00000000000E+00  0.00000000000E+00  0.45593999997E+02  0.45594000000E+02  0.51100000000E-03 0. -1.
         11   -1    0    0    0    0 -0.00000000000E+00 -0.00000000000E+00 -0.45593999997E+02  0.45594000000E+02  0.51100000000E-03 0.  1.
    9900012    2    1    2    0    0 -0.30641189794E+01  0.29369976650E+02  0.27949618312E+02  0.50528861823E+02  0.30000005997E+02 0.  0.
        -12    1    1    2    0    0  0.30641189794E+01 -0.29369976650E+02 -0.27949618312E+02  0.40659138177E+02  0.00000000000E+00 0.  1.
         11    1    3    3    0    0 -0.81395514115E+01  0.50948376662E+01  0.95949397348E+01  0.13574702089E+02  0.51100000000E-03 0. -1.
        -11    1    3    3    0    0 -0.22815509172E+01  0.15423805639E+02  0.19965678993E+02  0.25332342823E+02  0.51100000000E-03 0.  1.
        -12    1    3    3    0    0  0.73569833493E+01  0.88513333447E+01 -0.16110004160E+01  0.11621816911E+02  0.00000000000E+00 0.  1.
</event>
<event>
 7    1  0.5843820E-012  0.5052886E+02  0.7816164E-02  0.1300439E+00
        -11   -1    0    0    0    0  0.00000000000E+00  0.00000000000E+00  0.45593999997E+02  0.45594000000E+02  0.51100000000E-03 0. -1.
         11   -1    0    0    0    0 -0.00000000000E+00 -0.00000000000E+00 -0.45593999997E+02  0.45594000000E+02  0.51100000000E-03 0.  1.
    9900012    2    1    2    0    0 -0.46110456333E+01 -0.19298795624E+02 -0.35488874076E+02  0.50528862804E+02  0.30000008978E+02 0.  0.
         12    1    1    2    0    0  0.46110456333E+01  0.19298795624E+02  0.35488874076E+02  0.40659137196E+02  0.00000000000E+00 0. -1.
         11    1    3    3    0    0 -0.97374132725E+01 -0.35005540819E+01 -0.25370648781E+01  0.10654003688E+02  0.51100000000E-03 0. -1.
        -11    1    3    3    0    0  0.41933067403E+01 -0.14444111409E+02 -0.13072150192E+02  0.19927300036E+02  0.51100000000E-03 0.  1.
         12    1    3    3    0    0  0.93306089892E+00 -0.13541301329E+01 -0.19879659006E+02  0.19947559080E+02  0.00000000000E+00 0. -1.
</event>
<event>
 7    1  0.5843820E-012  0.5052889E+02  0.7816164E-02  0.1300439E+00
        -11   -1    0    0    0    0  0.00000000000E+00  0.00000000000E+00  0.45593999997E+02  0.45594000000E+02  0.51100000000E-03 0. -1.
         11   -1    0    0    0    0 -0.00000000000E+00 -0.00000000000E+00 -0.45593999997E+02  0.45594000000E+02  0.51100000000E-03 0.  1.
    9900012    2    1    2    0    0 -0.12852408872E+02  0.47802004656E+01  0.38276994117E+02  0.50528892669E+02  0.30000099756E+02 0.  0.
        -12    1    1    2    0    0  0.12852408872E+02 -0.47802004656E+01 -0.38276994117E+02  0.40659107331E+02  0.00000000000E+00 0.  1.
         11    1    3    3    0    0 -0.17620224405E+01 -0.15874153747E+01  0.40324488427E+01  0.46781678660E+01  0.51100000000E-03 0. -1.
        -11    1    3    3    0    0  0.84404937217E+01  0.70009286700E+00  0.39061720778E+01  0.93268561076E+01  0.51100000000E-03 0.  1.
        -12    1    3    3    0    0 -0.19530880153E+02  0.56675229733E+01  0.30338373197E+02  0.36523868695E+02  0.00000000000E+00 0.  1.
</event>
<event>
 7    1  0.5843820E-012  0.5052886E+02  0.7816164E-02  0.1300439E+00
        -11   -1    0    0    0    0  0.00000000000E+00  0.00000000000E+00  0.45593999997E+02  0.45594000000E+02  0.51100000000E-03 0. -1.
         11   -1    0    0    0    0 -0.00000000000E+00 -0.00000000000E+00 -0.45593999997E+02  0.45594000000E+02  0.51100000000E-03 0.  1.
    9900012    2    1    2    0    0  0.25223656264E+02 -0.96543891196E+00  0.31874770669E+02  0.50528856959E+02  0.29999991213E+02 0.  0.
        -12    1    1    2    0    0 -0.25223656264E+02  0.96543891196E+00 -0.31874770669E+02  0.40659143041E+02  0.00000000000E+00 0.  1.
         11    1    3    3    0    0 -0.48096471105E+01 -0.85663370021E+00  0.20697238603E+01  0.53056840976E+01  0.51100000000E-03 0. -1.
        -11    1    3    3    0    0 -0.12183422494E+01 -0.11512444118E+01  0.51118342479E+01  0.53796441492E+01  0.51100000000E-03 0.  1.
         12    1    3    3    0    0  0.31251645624E+02  0.10424392001E+01  0.24693212561E+02  0.39843528712E+02  0.00000000000E+00 0. -1.
</event>
<event>
 7    1  0.5843820E-012  0.5052886E+02  0.7816164E-02  0.1300439E+00
        -11   -1    0    0    0    0  0.00000000000E+00  0.00000000000E+00  0.45593999997E+02  0.45594000000E+02  0.51100000000E-03 0.  1.
         11   -1    0    0    0    0 -0.00000000000E+00 -0.00000000000E+00 -0.45593999997E+02  0.45594000000E+02  0.51100000000E-03 0. -1.
    9900012    2    1    2    0    0 -0.19664901150E+02 -0.34978970599E+02 -0.65520244322E+01  0.50528859016E+02  0.29999997464E+02 0.  0.
         12    1    1    2    0    0  0.19664901150E+02  0.34978970599E+02  0.65520244322E+01  0.40659140984E+02  0.00000000000E+00 0. -1.
         11    1    3    3    0    0 -0.73735280419E+01 -0.77502619714E+01 -0.39840020815E+01  0.11415241971E+02  0.51100000000E-03 0. -1.
        -11    1    3    3    0    0 -0.17618324071E+02 -0.16568401306E+02 -0.87114341390E+01  0.25706153931E+02  0.51100000000E-03 0.  1.
         12    1    3    3    0    0  0.53269509622E+01 -0.10660307322E+02  0.61434117883E+01  0.13407463114E+02  0.00000000000E+00 0. -1.
</event>
<event>
 7    1  0.5843820E-012  0.5052886E+02  0.7816164E-02  0.1300439E+00
        -11   -1    0    0    0    0  0.00000000000E+00  0.00000000000E+00  0.45593999997E+02  0.45594000000E+02  0.51100000000E-03 0. -1.
         11   -1    0    0    0    0 -0.00000000000E+00 -0.00000000000E+00 -0.45593999997E+02  0.45594000000E+02  0.51100000000E-03 0.  1.
    9900012    2    1    2    0    0 -0.39486820944E+02  0.89711639817E+00 -0.96515130656E+01  0.50528861414E+02  0.30000004755E+02 0.  0.
         12    1    1    2    0    0  0.39486820944E+02 -0.89711639817E+00  0.96515130656E+01  0.40659138586E+02  0.00000000000E+00 0. -1.
         11    1    3    3    0    0 -0.23410990908E+02  0.67840508628E+01 -0.34965855699E+01  0.24623646203E+02  0.51100000000E-03 0.  1.
        -11    1    3    3    0    0 -0.15123507985E+01  0.43260674970E+01 -0.66904476528E+01  0.81095101568E+01  0.51100000000E-03 0. -1.
        -12    1    3    3    0    0 -0.14563479237E+02 -0.10213001962E+02  0.53552015719E+00  0.17795705055E+02  0.00000000000E+00 0.  1.
</event>
<event>
 7    1  0.7478979E-012  0.5052890E+02  0.7816164E-02  0.1300439E+00
        -11   -1    0    0    0    0  0.00000000000E+00  0.00000000000E+00  0.45593999997E+02  0.45594000000E+02  0.51100000000E-03 0. -1.
         11   -1    0    0    0    0 -0.00000000000E+00 -0.00000000000E+00 -0.45593999997E+02  0.45594000000E+02  0.51100000000E-03 0.  1.
    9900012    2    1    2    0    0  0.46957459425E+01 -0.26534313370E+01 -0.40299770727E+02  0.50528902021E+02  0.30000128182E+02 0.  0.
         12    1    1    2    0    0 -0.46957459425E+01  0.26534313370E+01  0.40299770727E+02  0.40659097979E+02  0.00000000000E+00 0. -1.
         11    1    3    3    0    0 -0.12899295628E+01 -0.43726200753E+01  0.59992258809E+00  0.45982205224E+01  0.51100000000E-03 0.  1.
        -11    1    3    3    0    0  0.94020131380E+00  0.85274091085E+00  0.21936028416E+01  0.25343715709E+01  0.51100000000E-03 0. -1.
        -12    1    3    3    0    0  0.50454741915E+01  0.86644782743E+00 -0.43093296157E+02  0.43396309927E+02  0.00000000000E+00 0.  1.
</event>
<event>
 7    1  0.5843820E-012  0.5052885E+02  0.7816164E-02  0.1300439E+00
        -11   -1    0    0    0    0  0.00000000000E+00  0.00000000000E+00  0.45593999997E+02  0.45594000000E+02  0.51100000000E-03 0. -1.
         11   -1    0    0    0    0 -0.00000000000E+00 -0.00000000000E+00 -0.45593999997E+02  0.45594000000E+02  0.51100000000E-03 0.  1.
    9900012    2    1    2    0    0  0.16606666983E+02 -0.90554784597E+01  0.35991429751E+02  0.50528854732E+02  0.29999984442E+02 0.  0.
        -12    1    1    2    0    0 -0.16606666983E+02  0.90554784597E+01 -0.35991429751E+02  0.40659145268E+02  0.00000000000E+00 0.  1.
         11    1    3    3    0    0  0.75520534936E+01  0.11636701610E+01  0.18604634169E+02  0.20112683885E+02  0.51100000000E-03 0. -1.
        -11    1    3    3    0    0 -0.17453021556E+01  0.47485466501E+01  0.85916536090E+01  0.99705208941E+01  0.51100000000E-03 0.  1.
         12    1    3    3    0    0  0.10799915645E+02 -0.14967695271E+02  0.87951419728E+01  0.20445649953E+02  0.00000000000E+00 0. -1.
</event>
<event>
 7    1  0.5843820E-012  0.5052886E+02  0.7816164E-02  0.1300439E+00
        -11   -1    0    0    0    0  0.00000000000E+00  0.00000000000E+00  0.45593999997E+02  0.45594000000E+02  0.51100000000E-03 0. -1.
         11   -1    0    0    0    0 -0.00000000000E+00 -0.00000000000E+00 -0.45593999997E+02  0.45594000000E+02  0.51100000000E-03 0.  1.
    9900012    2    1    2    0    0 -0.33721170199E+02  0.15422598243E+01 -0.22664284229E+02  0.50528860012E+02  0.30000000492E+02 0.  0.
         12    1    1    2    0    0  0.33721170199E+02 -0.15422598243E+01  0.22664284229E+02  0.40659139988E+02  0.00000000000E+00 0. -1.
         11    1    3    3    0    0 -0.78152336767E+01 -0.79893542224E+01 -0.37471582691E+01  0.11787656835E+02  0.51100000000E-03 0. -1.
        -11    1    3    3    0    0 -0.28594245150E+02  0.73109899329E+01 -0.13879999465E+02  0.32614963052E+02  0.51100000000E-03 0.  1.
         12    1    3    3    0    0  0.26883086277E+01  0.22206241138E+01 -0.50371264951E+01  0.61262401243E+01  0.00000000000E+00 0. -1.
</event>
<event>
 7    1  0.5843820E-012  0.5052887E+02  0.7816164E-02  0.1300439E+00
        -11   -1    0    0    0    0  0.00000000000E+00  0.00000000000E+00  0.45593999997E+02  0.45594000000E+02  0.51100000000E-03 0. -1.
         11   -1    0    0    0    0 -0.00000000000E+00 -0.00000000000E+00 -0.45593999997E+02  0.45594000000E+02  0.51100000000E-03 0.  1.
    9900012    2    1    2    0    0 -0.12181159357E+02 -0.13321769674E+02 -0.36432332831E+02  0.50528867372E+02  0.30000022865E+02 0.  0.
         12    1    1    2    0    0  0.12181159357E+02  0.13321769674E+02  0.36432332831E+02  0.40659132628E+02  0.00000000000E+00 0. -1.
         11    1    3    3    0    0 -0.79102977995E+01 -0.10763299247E+02 -0.74330567152E+01  0.15286325731E+02  0.51100000000E-03 0. -1.
        -11    1    3    3    0    0 -0.10044458410E+02 -0.74039181721E+01 -0.17504454757E+02  0.21496862227E+02  0.51100000000E-03 0.  1.
         12    1    3    3    0    0  0.57735968516E+01  0.48454477459E+01 -0.11494821359E+02  0.13745679414E+02  0.00000000000E+00 0. -1.
</event>
<event>
 7    1  0.5843820E-012  0.5052886E+02  0.7816164E-02  0.1300439E+00
        -11   -1    0    0    0    0  0.00000000000E+00  0.00000000000E+00  0.45593999997E+02  0.45594000000E+02  0.51100000000E-03 0. -1.
         11   -1    0    0    0    0 -0.00000000000E+00 -0.00000000000E+00 -0.45593999997E+02  0.45594000000E+02  0.51100000000E-03 0.  1.
    9900012    2    1    2    0    0  0.13578132461E+01 -0.26943488572E+02  0.30419895700E+02  0.50528864647E+02  0.30000014581E+02 0.  0.
        -12    1    1    2    0    0 -0.13578132461E+01  0.26943488572E+02 -0.30419895700E+02  0.40659135353E+02  0.00000000000E+00 0.  1.
         11    1    3    3    0    0  0.47208390627E+01 -0.20772561649E+02  0.91442811149E+01  0.23181965324E+02  0.51100000000E-03 0. -1.
        -11    1    3    3    0    0  0.40187826007E+01 -0.26410791367E+01  0.28442835355E+00  0.48173449479E+01  0.51100000000E-03 0.  1.
         12    1    3    3    0    0 -0.73818084173E+01 -0.35298477864E+01  0.20991186232E+02  0.22529554375E+02  0.00000000000E+00 0. -1.
</event>
<event>
 7    1  0.5843820E-012  0.5052886E+02  0.7816164E-02  0.1300439E+00
        -11   -1    0    0    0    0  0.00000000000E+00  0.00000000000E+00  0.45593999997E+02  0.45594000000E+02  0.51100000000E-03 0. -1.
         11   -1    0    0    0    0 -0.00000000000E+00 -0.00000000000E+00 -0.45593999997E+02  0.45594000000E+02  0.51100000000E-03 0.  1.
    9900012    2    1    2    0    0  0.11477861874E+02 -0.90498746325E+01 -0.37941065706E+02  0.50528855752E+02  0.29999987544E+02 0.  0.
         12    1    1    2    0    0 -0.11477861874E+02  0.90498746325E+01  0.37941065706E+02  0.40659144248E+02  0.00000000000E+00 0. -1.
         11    1    3    3    0    0 -0.78262980373E+01  0.46580417961E+01 -0.11403721520E+02  0.14594285152E+02  0.51100000000E-03 0. -1.
        -11    1    3    3    0    0  0.12670857254E+02 -0.58797151334E+01 -0.15246465178E+02  0.20677919970E+02  0.51100000000E-03 0.  1.
        -12    1    3    3    0    0  0.66333026573E+01 -0.78282012953E+01 -0.11290879008E+02  0.15256650630E+02  0.00000000000E+00 0.  1.
</event>
<event>
 7    1  0.5843820E-012  0.5052885E+02  0.7816164E-02  0.1300439E+00
        -11   -1    0    0    0    0  0.00000000000E+00  0.00000000000E+00  0.45593999997E+02  0.45594000000E+02  0.51100000000E-03 0. -1.
         11   -1    0    0    0    0 -0.00000000000E+00 -0.00000000000E+00 -0.45593999997E+02  0.45594000000E+02  0.51100000000E-03 0.  1.
    9900012    2    1    2    0    0 -0.13025212129E+02 -0.88815653299E+01  0.37478373339E+02  0.50528845780E+02  0.29999957233E+02 0.  0.
        -12    1    1    2    0    0  0.13025212129E+02  0.88815653299E+01 -0.37478373339E+02  0.40659154220E+02  0.00000000000E+00 0.  1.
         11    1    3    3    0    0 -0.13261523672E+01  0.30250605869E+00  0.12728066482E+01  0.18628545411E+01  0.51100000000E-03 0. -1.
        -11    1    3    3    0    0  0.74175358990E+00  0.73658220769E+01  0.53541071164E+00  0.74224118821E+01  0.51100000000E-03 0.  1.
         12    1    3    3    0    0 -0.12440813352E+02 -0.16549893466E+02  0.35670155979E+02  0.41243579357E+02  0.00000000000E+00 0. -1.
</event>
<event>
 7    1  0.5843820E-012  0.5052885E+02  0.7816164E-02  0.1300439E+00
        -11   -1    0    0    0    0  0.00000000000E+00  0.00000000000E+00  0.45593999997E+02  0.45594000000E+02  0.51100000000E-03 0. -1.
         11   -1    0    0    0    0 -0.00000000000E+00 -0.00000000000E+00 -0.45593999997E+02  0.45594000000E+02  0.51100000000E-03 0.  1.
    9900012    2    1    2    0    0  0.84445994752E+01 -0.95715331973E+01  0.38603635339E+02  0.50528853804E+02  0.29999981622E+02 0.  0.
        -12    1    1    2    0    0 -0.84445994752E+01  0.95715331973E+01 -0.38603635339E+02  0.40659146196E+02  0.00000000000E+00 0.  1.
         11    1    3    3    0    0 -0.20067972375E+01 -0.10128333642E+02  0.15159823867E+02  0.18342045618E+02  0.51100000000E-03 0. -1.
        -11    1    3    3    0    0  0.95124999214E+01 -0.74687226184E+01  0.72809829966E+01  0.14116734253E+02  0.51100000000E-03 0.  1.
        -12    1    3    3    0    0  0.93889679125E+00  0.80255230635E+01  0.16162828475E+02  0.18070073933E+02  0.00000000000E+00 0.  1.
</event>
<event>
 7    1  0.5843820E-012  0.5052885E+02  0.7816164E-02  0.1300439E+00
        -11   -1    0    0    0    0  0.00000000000E+00  0.00000000000E+00  0.45593999997E+02  0.45594000000E+02  0.51100000000E-03 0. -1.
         11   -1    0    0    0    0 -0.00000000000E+00 -0.00000000000E+00 -0.45593999997E+02  0.45594000000E+02  0.51100000000E-03 0.  1.
    9900012    2    1    2    0    0  0.10157595225E+02  0.25071437790E+02 -0.30354786293E+02  0.50528846240E+02  0.29999958631E+02 0.  0.
         12    1    1    2    0    0 -0.10157595225E+02 -0.25071437790E+02  0.30354786293E+02  0.40659153760E+02  0.00000000000E+00 0. -1.
         11    1    3    3    0    0  0.42791179368E+01  0.99092912953E+01 -0.21674234383E+02  0.24213164615E+02  0.51100000000E-03 0. -1.
        -11    1    3    3    0    0  0.69292052904E+01  0.15045507955E+02 -0.13507903829E+02  0.21373924808E+02  0.51100000000E-03 0.  1.
         12    1    3    3    0    0 -0.10507280026E+01  0.11663853902E+00  0.48273519193E+01  0.49417568169E+01  0.00000000000E+00 0. -1.
</event>
<event>
 7    1  0.5843820E-012  0.5052885E+02  0.7816164E-02  0.1300439E+00
        -11   -1    0    0    0    0  0.00000000000E+00  0.00000000000E+00  0.45593999997E+02  0.45594000000E+02  0.51100000000E-03 0. -1.
         11   -1    0    0    0    0 -0.00000000000E+00 -0.00000000000E+00 -0.45593999997E+02  0.45594000000E+02  0.51100000000E-03 0.  1.
    9900012    2    1    2    0    0  0.24969800041E+02  0.58864367849E+01  0.31544018979E+02  0.50528853606E+02  0.29999981021E+02 0.  0.
        -12    1    1    2    0    0 -0.24969800041E+02 -0.58864367849E+01 -0.31544018979E+02  0.40659146394E+02  0.00000000000E+00 0.  1.
         11    1    3    3    0    0  0.16401517988E+02  0.14226387480E+02  0.11285024561E+02  0.24469402785E+02  0.51100000000E-03 0. -1.
        -11    1    3    3    0    0 -0.24219266071E+01  0.25901228800E+00  0.31088896075E+01  0.39494316943E+01  0.51100000000E-03 0.  1.
         12    1    3    3    0    0  0.10990208660E+02 -0.85989629831E+01  0.17150104811E+02  0.22110019127E+02  0.00000000000E+00 0. -1.
</event>
<event>
 7    1  0.5843820E-012  0.5052888E+02  0.7816164E-02  0.1300439E+00
        -11   -1    0    0    0    0  0.00000000000E+00  0.00000000000E+00  0.45593999997E+02  0.45594000000E+02  0.51100000000E-03 0. -1.
         11   -1    0    0    0    0 -0.00000000000E+00 -0.00000000000E+00 -0.45593999997E+02  0.45594000000E+02  0.51100000000E-03 0.  1.
    9900012    2    1    2    0    0 -0.15602423731E+02  0.34043235168E+02  0.15836242697E+02  0.50528879624E+02  0.30000060105E+02 0.  0.
        -12    1    1    2    0    0  0.15602423731E+02 -0.34043235168E+02 -0.15836242697E+02  0.40659120376E+02  0.00000000000E+00 0.  1.
         11    1    3    3    0    0 -0.59525820332E+01  0.98412446025E+01  0.14610974352E+01  0.11593883481E+02  0.51100000000E-03 0. -1.
        -11    1    3    3    0    0 -0.92159475346E+01  0.23124269680E+02  0.38435237135E+00  0.24896049168E+02  0.51100000000E-03 0.  1.
        -12    1    3    3    0    0 -0.43389416275E+00  0.10777208862E+01  0.13990792891E+02  0.14038946975E+02  0.00000000000E+00 0.  1.
</event>
<event>
 7    1  0.5843820E-012  0.5052888E+02  0.7816164E-02  0.1300439E+00
        -11   -1    0    0    0    0  0.00000000000E+00  0.00000000000E+00  0.45593999997E+02  0.45594000000E+02  0.51100000000E-03 0. -1.
         11   -1    0    0    0    0 -0.00000000000E+00 -0.00000000000E+00 -0.45593999997E+02  0.45594000000E+02  0.51100000000E-03 0.  1.
    9900012    2    1    2    0    0  0.61249052078E+01 -0.92199344438E+01  0.39123425814E+02  0.50528879223E+02  0.30000058886E+02 0.  0.
        -12    1    1    2    0    0 -0.61249052078E+01  0.92199344438E+01 -0.39123425814E+02  0.40659120777E+02  0.00000000000E+00 0.  1.
         11    1    3    3    0    0 -0.44021804539E+01 -0.39907836902E+00  0.27114545202E+01  0.51855994995E+01  0.51100000000E-03 0. -1.
        -11    1    3    3    0    0  0.28074542246E+00  0.57567409027E+01  0.12109275259E+01  0.58894167408E+01  0.51100000000E-03 0.  1.
         12    1    3    3    0    0  0.10246340239E+02 -0.14577596977E+02  0.35201043768E+02  0.39453862983E+02  0.00000000000E+00 0. -1.
</event>
<event>
 7    1  0.5843820E-012  0.5052887E+02  0.7816164E-02  0.1300439E+00
        -11   -1    0    0    0    0  0.00000000000E+00  0.00000000000E+00  0.45593999997E+02  0.45594000000E+02  0.51100000000E-03 0. -1.
         11   -1    0    0    0    0 -0.00000000000E+00 -0.00000000000E+00 -0.45593999997E+02  0.45594000000E+02  0.51100000000E-03 0.  1.
    9900012    2    1    2    0    0 -0.20178493677E+01  0.34840674267E+01  0.40459294092E+02  0.50528869164E+02  0.30000028312E+02 0.  0.
        -12    1    1    2    0    0  0.20178493677E+01 -0.34840674267E+01 -0.40459294092E+02  0.40659130836E+02  0.00000000000E+00 0.  1.
         11    1    3    3    0    0  0.39330204654E+01 -0.24502127676E+01  0.13939754411E+02  0.14689756495E+02  0.51100000000E-03 0. -1.
        -11    1    3    3    0    0  0.65149488312E+01 -0.40743015049E+01  0.11963232130E+02  0.14218418136E+02  0.51100000000E-03 0.  1.
        -12    1    3    3    0    0 -0.12465818664E+02  0.10008581699E+02  0.14556307551E+02  0.21620694534E+02  0.00000000000E+00 0.  1.
</event>
<event>
 7    1  0.5843820E-012  0.5052884E+02  0.7816164E-02  0.1300439E+00
        -11   -1    0    0    0    0  0.00000000000E+00  0.00000000000E+00  0.45593999997E+02  0.45594000000E+02  0.51100000000E-03 0. -1.
         11   -1    0    0    0    0 -0.00000000000E+00 -0.00000000000E+00 -0.45593999997E+02  0.45594000000E+02  0.51100000000E-03 0.  1.
    9900012    2    1    2    0    0  0.32157591420E+02 -0.29320317736E+01  0.24707485118E+02  0.50528839690E+02  0.29999938722E+02 0.  0.
        -12    1    1    2    0    0 -0.32157591420E+02  0.29320317736E+01 -0.24707485118E+02  0.40659160310E+02  0.00000000000E+00 0.  1.
         11    1    3    3    0    0  0.78049889934E+01  0.45966062509E+01  0.18609941766E+02  0.20697260085E+02  0.51100000000E-03 0. -1.
        -11    1    3    3    0    0  0.17965275909E+02 -0.52091230993E+01  0.10770502288E+02  0.21584481040E+02  0.51100000000E-03 0.  1.
        -12    1    3    3    0    0  0.63873265171E+01 -0.23195149252E+01 -0.46729589362E+01  0.82470985652E+01  0.00000000000E+00 0.  1.
</event>
<event>
 7    1  0.5843820E-012  0.5052886E+02  0.7816164E-02  0.1300439E+00
        -11   -1    0    0    0    0  0.00000000000E+00  0.00000000000E+00  0.45593999997E+02  0.45594000000E+02  0.51100000000E-03 0. -1.
         11   -1    0    0    0    0 -0.00000000000E+00 -0.00000000000E+00 -0.45593999997E+02  0.45594000000E+02  0.51100000000E-03 0.  1.
    9900012    2    1    2    0    0 -0.81869918686E+01  0.11878024790E+02  0.38013831385E+02  0.50528859757E+02  0.29999999717E+02 0.  0.
        -12    1    1    2    0    0  0.81869918686E+01 -0.11878024790E+02 -0.38013831385E+02  0.40659140243E+02  0.00000000000E+00 0.  1.
         11    1    3    3    0    0 -0.18739535898E+01  0.64629357480E+01 -0.70095981894E+00  0.67655439891E+01  0.51100000000E-03 0. -1.
        -11    1    3    3    0    0 -0.34271520084E+01  0.31775717605E+01 -0.19972151213E+00  0.46778437474E+01  0.51100000000E-03 0.  1.
         12    1    3    3    0    0 -0.28858862705E+01  0.22375172815E+01  0.38914512716E+02  0.39085472020E+02  0.00000000000E+00 0. -1.
</event>
<event>
 7    1  0.5843820E-012  0.5052887E+02  0.7816164E-02  0.1300439E+00
        -11   -1    0    0    0    0  0.00000000000E+00  0.00000000000E+00  0.45593999997E+02  0.45594000000E+02  0.51100000000E-03 0. -1.
         11   -1    0    0    0    0 -0.00000000000E+00 -0.00000000000E+00 -0.45593999997E+02  0.45594000000E+02  0.51100000000E-03 0.  1.
    9900012    2    1    2    0    0  0.28303459556E+02 -0.42105648623E+01 -0.28885120663E+02  0.50528869721E+02  0.30000030005E+02 0.  0.
         12    1    1    2    0    0 -0.28303459556E+02  0.42105648623E+01  0.28885120663E+02  0.40659130279E+02  0.00000000000E+00 0. -1.
         11    1    3    3    0    0  0.43641247844E+01 -0.71291199457E+01 -0.78935007461E+01  0.11496838288E+02  0.51100000000E-03 0. -1.
        -11    1    3    3    0    0  0.20825800985E+02 -0.58408534214E+01 -0.20375778506E+02  0.29715347976E+02  0.51100000000E-03 0.  1.
         12    1    3    3    0    0  0.31135337871E+01  0.87594085047E+01 -0.61584141022E+00  0.93166834570E+01  0.00000000000E+00 0. -1.
</event>
<event>
 7    1  0.5843820E-012  0.5052887E+02  0.7816164E-02  0.1300439E+00
        -11   -1    0    0    0    0  0.00000000000E+00  0.00000000000E+00  0.45593999997E+02  0.45594000000E+02  0.51100000000E-03 0. -1.
         11   -1    0    0    0    0 -0.00000000000E+00 -0.00000000000E+00 -0.45593999997E+02  0.45594000000E+02  0.51100000000E-03 0.  1.
    9900012    2    1    2    0    0 -0.54630170278E+01 -0.10896548827E+02 -0.38788990458E+02  0.50528866805E+02  0.30000021142E+02 0.  0.
         12    1    1    2    0    0  0.54630170278E+01  0.10896548827E+02  0.38788990458E+02  0.40659133195E+02  0.00000000000E+00 0. -1.
         11    1    3    3    0    0  0.25036863479E+01 -0.27758330562E+01  0.17089091279E+00  0.37420446883E+01  0.51100000000E-03 0. -1.
        -11    1    3    3    0    0 -0.72940962535E+01 -0.75232967283E+01 -0.31167839948E+01  0.10932436899E+02  0.51100000000E-03 0.  1.
        -12    1    3    3    0    0 -0.67260712214E+00 -0.59741904241E+00 -0.35843097376E+02  0.35854385218E+02  0.00000000000E+00 0.  1.
</event>
<event>
 7    1  0.5843820E-012  0.5052890E+02  0.7816164E-02  0.1300439E+00
        -11   -1    0    0    0    0  0.00000000000E+00  0.00000000000E+00  0.45593999997E+02  0.45594000000E+02  0.51100000000E-03 0. -1.
         11   -1    0    0    0    0 -0.00000000000E+00 -0.00000000000E+00 -0.45593999997E+02  0.45594000000E+02  0.51100000000E-03 0.  1.
    9900012    2    1    2    0    0  0.29935616093E+02  0.75934666490E+01  0.26445428612E+02  0.50528898422E+02  0.30000117244E+02 0.  0.
        -12    1    1    2    0    0 -0.29935616093E+02 -0.75934666490E+01 -0.26445428612E+02  0.40659101578E+02  0.00000000000E+00 0.  1.
         11    1    3    3    0    0  0.15601662223E+01  0.16295631150E+01 -0.47848794274E+01  0.52900534953E+01  0.51100000000E-03 0. -1.
        -11    1    3    3    0    0 -0.76636387398E+00  0.30023184859E+01  0.51948563494E+01  0.60487819129E+01  0.51100000000E-03 0.  1.
         12    1    3    3    0    0  0.29141813745E+02  0.29615850482E+01  0.26035451690E+02  0.39190063014E+02  0.00000000000E+00 0. -1.
</event>
<event>
 7    1  0.5843820E-012  0.5052886E+02  0.7816164E-02  0.1300439E+00
        -11   -1    0    0    0    0  0.00000000000E+00  0.00000000000E+00  0.45593999997E+02  0.45594000000E+02  0.51100000000E-03 0. -1.
         11   -1    0    0    0    0 -0.00000000000E+00 -0.00000000000E+00 -0.45593999997E+02  0.45594000000E+02  0.51100000000E-03 0.  1.
    9900012    2    1    2    0    0  0.15472634639E+02 -0.37365757028E+02  0.41908320531E+01  0.50528864566E+02  0.30000014334E+02 0.  0.
        -12    1    1    2    0    0 -0.15472634639E+02  0.37365757028E+02 -0.41908320531E+01  0.40659135434E+02  0.00000000000E+00 0.  1.
         11    1    3    3    0    0  0.12093447837E+02 -0.25601534300E+02 -0.50670949027E+01  0.28763961655E+02  0.51100000000E-03 0.  1.
        -11    1    3    3    0    0  0.84796712546E+01 -0.30923112434E+01  0.70794384490E+01  0.11471079392E+02  0.51100000000E-03 0. -1.
         12    1    3    3    0    0 -0.51004844525E+01 -0.86719114845E+01  0.21784885068E+01  0.10293823518E+02  0.00000000000E+00 0. -1.
</event>
<event>
 7    1  0.5843820E-012  0.5052886E+02  0.7816164E-02  0.1300439E+00
        -11   -1    0    0    0    0  0.00000000000E+00  0.00000000000E+00  0.45593999997E+02  0.45594000000E+02  0.51100000000E-03 0. -1.
         11   -1    0    0    0    0 -0.00000000000E+00 -0.00000000000E+00 -0.45593999997E+02  0.45594000000E+02  0.51100000000E-03 0.  1.
    9900012    2    1    2    0    0  0.16754567223E+02 -0.18207800168E+02 -0.32263393187E+02  0.50528855275E+02  0.29999986095E+02 0.  0.
         12    1    1    2    0    0 -0.16754567223E+02  0.18207800168E+02  0.32263393187E+02  0.40659144725E+02  0.00000000000E+00 0. -1.
         11    1    3    3    0    0 -0.18962179234E+01 -0.35223010311E+01 -0.16701310771E+02  0.17173701660E+02  0.51100000000E-03 0. -1.
        -11    1    3    3    0    0  0.64305924235E+01 -0.77190166262E+01 -0.16434036178E+02  0.19261705063E+02  0.51100000000E-03 0.  1.
         12    1    3    3    0    0  0.12220192723E+02 -0.69664825105E+01  0.87195376093E+00  0.14093448553E+02  0.00000000000E+00 0. -1.
</event>
<event>
 7    1  0.5843820E-012  0.5052886E+02  0.7816164E-02  0.1300439E+00
        -11   -1    0    0    0    0  0.00000000000E+00  0.00000000000E+00  0.45593999997E+02  0.45594000000E+02  0.51100000000E-03 0. -1.
         11   -1    0    0    0    0 -0.00000000000E+00 -0.00000000000E+00 -0.45593999997E+02  0.45594000000E+02  0.51100000000E-03 0.  1.
    9900012    2    1    2    0    0  0.13766205710E+02 -0.13360231482E+02  0.35849150671E+02  0.50528858238E+02  0.29999995102E+02 0.  0.
        -12    1    1    2    0    0 -0.13766205710E+02  0.13360231482E+02 -0.35849150671E+02  0.40659141762E+02  0.00000000000E+00 0.  1.
         11    1    3    3    0    0  0.15700702055E+02 -0.79341449447E+01  0.10774466278E+02  0.20628907505E+02  0.51100000000E-03 0. -1.
        -11    1    3    3    0    0  0.28858254860E+01 -0.11852961413E+01 -0.81632137125E+00  0.32247940276E+01  0.51100000000E-03 0.  1.
         12    1    3    3    0    0 -0.48203218310E+01 -0.42407903963E+01  0.25891005765E+02  0.26675156705E+02  0.00000000000E+00 0. -1.
</event>
<event>
 7    1  0.5843820E-012  0.5052886E+02  0.7816164E-02  0.1300439E+00
        -11   -1    0    0    0    0  0.00000000000E+00  0.00000000000E+00  0.45593999997E+02  0.45594000000E+02  0.51100000000E-03 0. -1.
         11   -1    0    0    0    0 -0.00000000000E+00 -0.00000000000E+00 -0.45593999997E+02  0.45594000000E+02  0.51100000000E-03 0.  1.
    9900012    2    1    2    0    0  0.25747396868E+02  0.10537265009E+02  0.29651367415E+02  0.50528856023E+02  0.29999988368E+02 0.  0.
        -12    1    1    2    0    0 -0.25747396868E+02 -0.10537265009E+02 -0.29651367415E+02  0.40659143977E+02  0.00000000000E+00 0.  1.
         11    1    3    3    0    0  0.14508013530E+02  0.29397767814E+01  0.90500236315E+01  0.17350149051E+02  0.51100000000E-03 0. -1.
        -11    1    3    3    0    0  0.25842802764E+01 -0.53570892874E+01 -0.15036673545E+01  0.61349756279E+01  0.51100000000E-03 0.  1.
         12    1    3    3    0    0  0.86551030622E+01  0.12954577515E+02  0.22105011138E+02  0.27043731344E+02  0.00000000000E+00 0. -1.
</event>
<event>
 7    1  0.5843820E-012  0.5052886E+02  0.7816164E-02  0.1300439E+00
        -11   -1    0    0    0    0  0.00000000000E+00  0.00000000000E+00  0.45593999997E+02  0.45594000000E+02  0.51100000000E-03 0. -1.
         11   -1    0    0    0    0 -0.00000000000E+00 -0.00000000000E+00 -0.45593999997E+02  0.45594000000E+02  0.51100000000E-03 0.  1.
    9900012    2    1    2    0    0  0.90520421464E+01 -0.19746264128E+02  0.34370206877E+02  0.50528861607E+02  0.30000005342E+02 0.  0.
        -12    1    1    2    0    0 -0.90520421464E+01  0.19746264128E+02 -0.34370206877E+02  0.40659138393E+02  0.00000000000E+00 0.  1.
         11    1    3    3    0    0  0.21017874595E+01  0.17000786933E+01  0.69855384792E+01  0.74903622205E+01  0.51100000000E-03 0. -1.
        -11    1    3    3    0    0  0.10888309085E+02 -0.32295961323E+00  0.13941092725E+02  0.17692191619E+02  0.51100000000E-03 0.  1.
         12    1    3    3    0    0 -0.39380543981E+01 -0.21123383208E+02  0.13443575673E+02  0.25346307768E+02  0.00000000000E+00 0. -1.
</event>
<event>
 7    1  0.5843820E-012  0.5052885E+02  0.7816164E-02  0.1300439E+00
        -11   -1    0    0    0    0  0.00000000000E+00  0.00000000000E+00  0.45593999997E+02  0.45594000000E+02  0.51100000000E-03 0. -1.
         11   -1    0    0    0    0 -0.00000000000E+00 -0.00000000000E+00 -0.45593999997E+02  0.45594000000E+02  0.51100000000E-03 0.  1.
    9900012    2    1    2    0    0 -0.17344297936E+02  0.32514845350E+02  0.17179258842E+02  0.50528846377E+02  0.29999959046E+02 0.  0.
        -12    1    1    2    0    0  0.17344297936E+02 -0.32514845350E+02 -0.17179258842E+02  0.40659153623E+02  0.00000000000E+00 0.  1.
         11    1    3    3    0    0  0.89864645888E-01  0.43758259012E+01 -0.11327031387E+01  0.45209451041E+01  0.51100000000E-03 0.  1.
        -11    1    3    3    0    0 -0.37992119529E+01 -0.50404824320E+01  0.22070691041E+01  0.66866754745E+01  0.51100000000E-03 0. -1.
         12    1    3    3    0    0 -0.13634950629E+02  0.33179501881E+02  0.16104892877E+02  0.39321225798E+02  0.00000000000E+00 0. -1.
</event>
<event>
 7    1  0.5843820E-012  0.5052885E+02  0.7816164E-02  0.1300439E+00
        -11   -1    0    0    0    0  0.00000000000E+00  0.00000000000E+00  0.45593999997E+02  0.45594000000E+02  0.51100000000E-03 0. -1.
         11   -1    0    0    0    0 -0.00000000000E+00 -0.00000000000E+00 -0.45593999997E+02  0.45594000000E+02  0.51100000000E-03 0.  1.
    9900012    2    1    2    0    0 -0.84354373312E+01  0.10775817494E+02  0.38286959552E+02  0.50528854444E+02  0.29999983568E+02 0.  0.
        -12    1    1    2    0    0  0.84354373312E+01 -0.10775817494E+02 -0.38286959552E+02  0.40659145556E+02  0.00000000000E+00 0.  1.
         11    1    3    3    0    0 -0.10041628739E+02 -0.74488148894E+00  0.12686582985E+02  0.16196868347E+02  0.51100000000E-03 0. -1.
        -11    1    3    3    0    0  0.55045800009E+01 -0.40429699836E+01  0.78313183711E+01  0.10391128667E+02  0.51100000000E-03 0.  1.
        -12    1    3    3    0    0 -0.38983885929E+01  0.15563668967E+02  0.17769058196E+02  0.23940857430E+02  0.00000000000E+00 0.  1.
</event>
<event>
 7    1  0.5843820E-012  0.5052886E+02  0.7816164E-02  0.1300439E+00
        -11   -1    0    0    0    0  0.00000000000E+00  0.00000000000E+00  0.45593999997E+02  0.45594000000E+02  0.51100000000E-03 0.  1.
         11   -1    0    0    0    0 -0.00000000000E+00 -0.00000000000E+00 -0.45593999997E+02  0.45594000000E+02  0.51100000000E-03 0. -1.
    9900012    2    1    2    0    0 -0.33603723476E+02 -0.21385704422E+02  0.81613071917E+01  0.50528861788E+02  0.30000005891E+02 0.  0.
         12    1    1    2    0    0  0.33603723476E+02  0.21385704422E+02 -0.81613071917E+01  0.40659138212E+02  0.00000000000E+00 0. -1.
         11    1    3    3    0    0 -0.52092782751E+01 -0.15329420096E+02 -0.37655961760E+01  0.16622497268E+02  0.51100000000E-03 0. -1.
        -11    1    3    3    0    0 -0.88694095329E+01  0.72035134734E+00 -0.18221600577E+01  0.90832592753E+01  0.51100000000E-03 0.  1.
        -12    1    3    3    0    0 -0.19525035668E+02 -0.67766356737E+01  0.13749063425E+02  0.24823105244E+02  0.00000000000E+00 0.  1.
</event>
<event>
 7    1  0.5843820E-012  0.5052886E+02  0.7816164E-02  0.1300439E+00
        -11   -1    0    0    0    0  0.00000000000E+00  0.00000000000E+00  0.45593999997E+02  0.45594000000E+02  0.51100000000E-03 0. -1.
         11   -1    0    0    0    0 -0.00000000000E+00 -0.00000000000E+00 -0.45593999997E+02  0.45594000000E+02  0.51100000000E-03 0.  1.
    9900012    2    1    2    0    0  0.10344842033E+02 -0.51229404961E+01  0.38985965757E+02  0.50528858321E+02  0.29999995354E+02 0.  0.
        -12    1    1    2    0    0 -0.10344842033E+02  0.51229404961E+01 -0.38985965757E+02  0.40659141679E+02  0.00000000000E+00 0.  1.
         11    1    3    3    0    0  0.44494674341E+01 -0.59824475418E+01  0.29068714182E+02  0.30009624847E+02  0.51100000000E-03 0. -1.
        -11    1    3    3    0    0  0.84257880257E+01 -0.17868587304E+01  0.13093241054E+02  0.15672259873E+02  0.51100000000E-03 0.  1.
        -12    1    3    3    0    0 -0.25304134263E+01  0.26463657761E+01 -0.31759894779E+01  0.48469736014E+01  0.00000000000E+00 0.  1.
</event>
<event>
 7    1  0.5843820E-012  0.5052886E+02  0.7816164E-02  0.1300439E+00
        -11   -1    0    0    0    0  0.00000000000E+00  0.00000000000E+00  0.45593999997E+02  0.45594000000E+02  0.51100000000E-03 0. -1.
         11   -1    0    0    0    0 -0.00000000000E+00 -0.00000000000E+00 -0.45593999997E+02  0.45594000000E+02  0.51100000000E-03 0.  1.
    9900012    2    1    2    0    0 -0.42326432198E+01 -0.23002917614E+02 -0.33258322561E+02  0.50528861950E+02  0.30000006384E+02 0.  0.
         12    1    1    2    0    0  0.42326432198E+01  0.23002917614E+02  0.33258322561E+02  0.40659138050E+02  0.00000000000E+00 0. -1.
         11    1    3    3    0    0  0.16283084409E+00  0.38340441539E+01 -0.35842742382E+01  0.52510409000E+01  0.51100000000E-03 0. -1.
        -11    1    3    3    0    0  0.66860601244E+01 -0.22076383849E+01 -0.44938664134E+01  0.83529577293E+01  0.51100000000E-03 0.  1.
        -12    1    3    3    0    0 -0.11081534188E+02 -0.24629323383E+02 -0.25180181910E+02  0.36924863321E+02  0.00000000000E+00 0.  1.
</event>
<event>
 7    1  0.5843820E-012  0.5052887E+02  0.7816164E-02  0.1300439E+00
        -11   -1    0    0    0    0  0.00000000000E+00  0.00000000000E+00  0.45593999997E+02  0.45594000000E+02  0.51100000000E-03 0. -1.
         11   -1    0    0    0    0 -0.00000000000E+00 -0.00000000000E+00 -0.45593999997E+02  0.45594000000E+02  0.51100000000E-03 0.  1.
    9900012    2    1    2    0    0 -0.23522655579E+02 -0.26671684953E+02 -0.19709654698E+02  0.50528873201E+02  0.30000040582E+02 0.  0.
         12    1    1    2    0    0  0.23522655579E+02  0.26671684953E+02  0.19709654698E+02  0.40659126799E+02  0.00000000000E+00 0. -1.
         11    1    3    3    0    0 -0.71716175934E+01 -0.12519572975E+02 -0.42499933115E+01  0.15041085393E+02  0.51100000000E-03 0. -1.
        -11    1    3    3    0    0 -0.63940069477E+01 -0.17984101374E+02 -0.15852578636E+02  0.24811599641E+02  0.51100000000E-03 0.  1.
        -12    1    3    3    0    0 -0.99570310381E+01  0.38319893956E+01  0.39291724915E+00  0.10676188167E+02  0.00000000000E+00 0.  1.
</event>
<event>
 7    1  0.5843820E-012  0.5052887E+02  0.7816164E-02  0.1300439E+00
        -11   -1    0    0    0    0  0.00000000000E+00  0.00000000000E+00  0.45593999997E+02  0.45594000000E+02  0.51100000000E-03 0. -1.
         11   -1    0    0    0    0 -0.00000000000E+00 -0.00000000000E+00 -0.45593999997E+02  0.45594000000E+02  0.51100000000E-03 0.  1.
    9900012    2    1    2    0    0  0.42066588922E+01 -0.20622004509E+02  0.34787957232E+02  0.50528867970E+02  0.30000024682E+02 0.  0.
        -12    1    1    2    0    0 -0.42066588922E+01  0.20622004509E+02 -0.34787957232E+02  0.40659132030E+02  0.00000000000E+00 0.  1.
         11    1    3    3    0    0  0.11071150405E+01 -0.33485728229E+01  0.17158665139E+02  0.17517375183E+02  0.51100000000E-03 0. -1.
        -11    1    3    3    0    0  0.67397225341E+01 -0.12859284501E+02  0.21615199300E+02  0.26038469593E+02  0.51100000000E-03 0.  1.
        -12    1    3    3    0    0 -0.36401786823E+01 -0.44141471853E+01 -0.39859072067E+01  0.69730231946E+01  0.00000000000E+00 0.  1.
</event>
<event>
 7    1  0.5843820E-012  0.5052886E+02  0.7816164E-02  0.1300439E+00
        -11   -1    0    0    0    0  0.00000000000E+00  0.00000000000E+00  0.45593999997E+02  0.45594000000E+02  0.51100000000E-03 0. -1.
         11   -1    0    0    0    0 -0.00000000000E+00 -0.00000000000E+00 -0.45593999997E+02  0.45594000000E+02  0.51100000000E-03 0.  1.
    9900012    2    1    2    0    0 -0.20728348212E+02  0.44533458214E+01  0.34693927188E+02  0.50528864590E+02  0.30000014406E+02 0.  0.
        -12    1    1    2    0    0  0.20728348212E+02 -0.44533458214E+01 -0.34693927188E+02  0.40659135410E+02  0.00000000000E+00 0.  1.
         11    1    3    3    0    0 -0.11945231515E+02  0.96448709218E+00  0.13223538178E+02  0.17846029068E+02  0.51100000000E-03 0. -1.
        -11    1    3    3    0    0 -0.11058518042E+02 -0.33681611886E+01  0.17640617455E+01  0.11693897776E+02  0.51100000000E-03 0.  1.
        -12    1    3    3    0    0  0.22754013455E+01  0.68570199179E+01  0.19706327265E+02  0.20988937746E+02  0.00000000000E+00 0.  1.
</event>
<event>
 7    1  0.5843820E-012  0.5052886E+02  0.7816164E-02  0.1300439E+00
        -11   -1    0    0    0    0  0.00000000000E+00  0.00000000000E+00  0.45593999997E+02  0.45594000000E+02  0.51100000000E-03 0. -1.
         11   -1    0    0    0    0 -0.00000000000E+00 -0.00000000000E+00 -0.45593999997E+02  0.45594000000E+02  0.51100000000E-03 0.  1.
    9900012    2    1    2    0    0 -0.78477780005E+01  0.27161769609E+02 -0.29220135868E+02  0.50528859724E+02  0.29999999619E+02 0.  0.
         12    1    1    2    0    0  0.78477780005E+01 -0.27161769609E+02  0.29220135868E+02  0.40659140276E+02  0.00000000000E+00 0. -1.
         11    1    3    3    0    0 -0.36289582863E+01  0.58012402035E+00 -0.25978920122E+01  0.45005472213E+01  0.51100000000E-03 0. -1.
        -11    1    3    3    0    0 -0.96870693102E+01  0.85475483243E+01 -0.23652688955E+02  0.26950873627E+02  0.51100000000E-03 0.  1.
        -12    1    3    3    0    0  0.54682495960E+01  0.18034097264E+02 -0.29695549000E+01  0.19077438876E+02  0.00000000000E+00 0.  1.
</event>
<event>
 7    1  0.5843820E-012  0.5052886E+02  0.7816164E-02  0.1300439E+00
        -11   -1    0    0    0    0  0.00000000000E+00  0.00000000000E+00  0.45593999997E+02  0.45594000000E+02  0.51100000000E-03 0. -1.
         11   -1    0    0    0    0 -0.00000000000E+00 -0.00000000000E+00 -0.45593999997E+02  0.45594000000E+02  0.51100000000E-03 0.  1.
    9900012    2    1    2    0    0  0.29275592865E+02  0.10990541267E+02  0.25986783764E+02  0.50528864921E+02  0.30000015415E+02 0.  0.
        -12    1    1    2    0    0 -0.29275592865E+02 -0.10990541267E+02 -0.25986783764E+02  0.40659135079E+02  0.00000000000E+00 0.  1.
         11    1    3    3    0    0  0.92195648618E+01  0.34079604297E+01 -0.28291794795E+01  0.10228334533E+02  0.51100000000E-03 0. -1.
        -11    1    3    3    0    0  0.56701741214E+01 -0.59588313670E+01  0.64089705166E+01  0.10427533226E+02  0.51100000000E-03 0.  1.
         12    1    3    3    0    0  0.14385853882E+02  0.13541412205E+02  0.22406992727E+02  0.29872997163E+02  0.00000000000E+00 0. -1.
</event>
<event>
 7    1  0.5843820E-012  0.5052886E+02  0.7816164E-02  0.1300439E+00
        -11   -1    0    0    0    0  0.00000000000E+00  0.00000000000E+00  0.45593999997E+02  0.45594000000E+02  0.51100000000E-03 0.  1.
         11   -1    0    0    0    0 -0.00000000000E+00 -0.00000000000E+00 -0.45593999997E+02  0.45594000000E+02  0.51100000000E-03 0. -1.
    9900012    2    1    2    0    0  0.27184579368E+02  0.19077364785E+02  0.23456731479E+02  0.50528862599E+02  0.30000008356E+02 0.  0.
        -12    1    1    2    0    0 -0.27184579368E+02 -0.19077364785E+02 -0.23456731479E+02  0.40659137401E+02  0.00000000000E+00 0.  1.
         11    1    3    3    0    0  0.11820862972E+02  0.10336847341E+02  0.18602282508E+02  0.24343954673E+02  0.51100000000E-03 0.  1.
        -11    1    3    3    0    0  0.15161982557E+02  0.29323826856E+01  0.10020498002E+02  0.18409100026E+02  0.51100000000E-03 0. -1.
         12    1    3    3    0    0  0.20173383810E+00  0.58081347580E+01 -0.51660490312E+01  0.77758079002E+01  0.00000000000E+00 0. -1.
</event>
<event>
 7    1  0.5843820E-012  0.5052885E+02  0.7816164E-02  0.1300439E+00
        -11   -1    0    0    0    0  0.00000000000E+00  0.00000000000E+00  0.45593999997E+02  0.45594000000E+02  0.51100000000E-03 0. -1.
         11   -1    0    0    0    0 -0.00000000000E+00 -0.00000000000E+00 -0.45593999997E+02  0.45594000000E+02  0.51100000000E-03 0.  1.
    9900012    2    1    2    0    0  0.38846657481E+02 -0.11397472368E+02  0.37684097218E+01  0.50528854833E+02  0.29999984751E+02 0.  0.
        -12    1    1    2    0    0 -0.38846657481E+02  0.11397472368E+02 -0.37684097218E+01  0.40659145167E+02  0.00000000000E+00 0.  1.
         11    1    3    3    0    0  0.21827802660E+02 -0.49299126327E+01  0.60058338895E+01  0.23169528448E+02  0.51100000000E-03 0. -1.
        -11    1    3    3    0    0  0.17890420444E+02 -0.11733293661E+02  0.41584657868E+00  0.21398837642E+02  0.51100000000E-03 0.  1.
        -12    1    3    3    0    0 -0.87156562284E+00  0.52657339251E+01 -0.26532707464E+01  0.59604887432E+01  0.00000000000E+00 0.  1.
</event>
<event>
 7    1  0.5843820E-012  0.5052890E+02  0.7816164E-02  0.1300439E+00
        -11   -1    0    0    0    0  0.00000000000E+00  0.00000000000E+00  0.45593999997E+02  0.45594000000E+02  0.51100000000E-03 0. -1.
         11   -1    0    0    0    0 -0.00000000000E+00 -0.00000000000E+00 -0.45593999997E+02  0.45594000000E+02  0.51100000000E-03 0.  1.
    9900012    2    1    2    0    0 -0.17950210757E+02 -0.17955972769E+02 -0.31757443717E+02  0.50528901931E+02  0.30000127910E+02 0.  0.
         12    1    1    2    0    0  0.17950210757E+02  0.17955972769E+02  0.31757443717E+02  0.40659098069E+02  0.00000000000E+00 0. -1.
         11    1    3    3    0    0  0.50631193863E+01 -0.67150559045E+01 -0.40602520269E+01  0.93387793904E+01  0.51100000000E-03 0. -1.
        -11    1    3    3    0    0  0.24934002159E+01  0.24483991095E+00 -0.20130559933E+01  0.32139362022E+01  0.51100000000E-03 0.  1.
        -12    1    3    3    0    0 -0.25506730359E+02 -0.11485756775E+02 -0.25684135697E+02  0.37976186339E+02  0.00000000000E+00 0.  1.
</event>
<event>
 7    1  0.5843820E-012  0.5052886E+02  0.7816164E-02  0.1300439E+00
        -11   -1    0    0    0    0  0.00000000000E+00  0.00000000000E+00  0.45593999997E+02  0.45594000000E+02  0.51100000000E-03 0. -1.
         11   -1    0    0    0    0 -0.00000000000E+00 -0.00000000000E+00 -0.45593999997E+02  0.45594000000E+02  0.51100000000E-03 0.  1.
    9900012    2    1    2    0    0  0.71372790633E+01 -0.14366184990E+02 -0.37360911700E+02  0.50528859002E+02  0.29999997423E+02 0.  0.
         12    1    1    2    0    0 -0.71372790633E+01  0.14366184990E+02  0.37360911700E+02  0.40659140998E+02  0.00000000000E+00 0. -1.
         11    1    3    3    0    0  0.50257559300E+01 -0.59492645370E+00  0.85489143043E+00  0.51325432071E+01  0.51100000000E-03 0. -1.
        -11    1    3    3    0    0  0.58360533548E+01 -0.17559961441E+01 -0.10821321962E+01  0.61898345349E+01  0.51100000000E-03 0.  1.
        -12    1    3    3    0    0 -0.37245302216E+01 -0.12015262392E+02 -0.37133670935E+02  0.39206481260E+02  0.00000000000E+00 0.  1.
</event>
<event>
 7    1  0.5843820E-012  0.5052885E+02  0.7816164E-02  0.1300439E+00
        -11   -1    0    0    0    0  0.00000000000E+00  0.00000000000E+00  0.45593999997E+02  0.45594000000E+02  0.51100000000E-03 0. -1.
         11   -1    0    0    0    0 -0.00000000000E+00 -0.00000000000E+00 -0.45593999997E+02  0.45594000000E+02  0.51100000000E-03 0.  1.
    9900012    2    1    2    0    0 -0.92205097926E+00  0.34374447820E+02  0.21695944728E+02  0.50528845329E+02  0.29999955861E+02 0.  0.
        -12    1    1    2    0    0  0.92205097926E+00 -0.34374447820E+02 -0.21695944728E+02  0.40659154671E+02  0.00000000000E+00 0.  1.
         11    1    3    3    0    0  0.26479107629E+01  0.11536810717E+02  0.33371153519E+00  0.11841486249E+02  0.51100000000E-03 0.  1.
        -11    1    3    3    0    0 -0.12708498258E+02  0.93689619199E+01  0.84259815503E+01  0.17896383455E+02  0.51100000000E-03 0. -1.
         12    1    3    3    0    0  0.91385365160E+01  0.13468675183E+02  0.12936251643E+02  0.20790975624E+02  0.00000000000E+00 0. -1.
</event>
<event>
 7    1  0.5843820E-012  0.5052886E+02  0.7816164E-02  0.1300439E+00
        -11   -1    0    0    0    0  0.00000000000E+00  0.00000000000E+00  0.45593999997E+02  0.45594000000E+02  0.51100000000E-03 0. -1.
         11   -1    0    0    0    0 -0.00000000000E+00 -0.00000000000E+00 -0.45593999997E+02  0.45594000000E+02  0.51100000000E-03 0.  1.
    9900012    2    1    2    0    0  0.20070375509E+02 -0.15901845493E+02 -0.31582857761E+02  0.50528861206E+02  0.30000004122E+02 0.  0.
         12    1    1    2    0    0 -0.20070375509E+02  0.15901845493E+02  0.31582857761E+02  0.40659138794E+02  0.00000000000E+00 0. -1.
         11    1    3    3    0    0  0.87616834493E+01 -0.93676900383E+01 -0.30407627522E+01  0.13182069333E+02  0.51100000000E-03 0. -1.
        -11    1    3    3    0    0  0.14378253674E+01 -0.78380687378E+01 -0.96467588895E+00  0.80270332725E+01  0.51100000000E-03 0.  1.
        -12    1    3    3    0    0  0.98708666922E+01  0.13039132836E+01 -0.27577419120E+02  0.29319758601E+02  0.00000000000E+00 0.  1.
</event>
<event>
 7    1  0.5843820E-012  0.5052886E+02  0.7816164E-02  0.1300439E+00
        -11   -1    0    0    0    0  0.00000000000E+00  0.00000000000E+00  0.45593999997E+02  0.45594000000E+02  0.51100000000E-03 0. -1.
         11   -1    0    0    0    0 -0.00000000000E+00 -0.00000000000E+00 -0.45593999997E+02  0.45594000000E+02  0.51100000000E-03 0.  1.
    9900012    2    1    2    0    0  0.27158306258E+02  0.15996004758E+02  0.25685012001E+02  0.50528860701E+02  0.30000002586E+02 0.  0.
        -12    1    1    2    0    0 -0.27158306258E+02 -0.15996004758E+02 -0.25685012001E+02  0.40659139299E+02  0.00000000000E+00 0.  1.
         11    1    3    3    0    0  0.23787786103E+01 -0.37325054708E+01 -0.34116433158E+01  0.55883356326E+01  0.51100000000E-03 0.  1.
        -11    1    3    3    0    0  0.15041769992E+01  0.79945888292E+01  0.79655323881E+01  0.11385328519E+02  0.51100000000E-03 0. -1.
         12    1    3    3    0    0  0.23275350649E+02  0.11733921400E+02  0.21131122929E+02  0.33555196550E+02  0.00000000000E+00 0. -1.
</event>
<event>
 7    1  0.5843820E-012  0.5052886E+02  0.7816164E-02  0.1300439E+00
        -11   -1    0    0    0    0  0.00000000000E+00  0.00000000000E+00  0.45593999997E+02  0.45594000000E+02  0.51100000000E-03 0. -1.
         11   -1    0    0    0    0 -0.00000000000E+00 -0.00000000000E+00 -0.45593999997E+02  0.45594000000E+02  0.51100000000E-03 0.  1.
    9900012    2    1    2    0    0  0.17550769900E+02  0.33239634171E+01  0.36525156477E+02  0.50528864341E+02  0.30000013649E+02 0.  0.
        -12    1    1    2    0    0 -0.17550769900E+02 -0.33239634171E+01 -0.36525156477E+02  0.40659135659E+02  0.00000000000E+00 0.  1.
         11    1    3    3    0    0  0.21292696262E+01  0.94949196574E+00  0.95724509954E+01  0.98522658539E+01  0.51100000000E-03 0. -1.
        -11    1    3    3    0    0  0.13159560631E+02  0.12985536705E+02  0.22038184144E+02  0.28765947927E+02  0.51100000000E-03 0.  1.
        -12    1    3    3    0    0  0.22619396428E+01 -0.10611065254E+02  0.49145213378E+01  0.11910650559E+02  0.00000000000E+00 0.  1.
</event>
<event>
 7    1  0.5843820E-012  0.5052887E+02  0.7816164E-02  0.1300439E+00
        -11   -1    0    0    0    0  0.00000000000E+00  0.00000000000E+00  0.45593999997E+02  0.45594000000E+02  0.51100000000E-03 0. -1.
         11   -1    0    0    0    0 -0.00000000000E+00 -0.00000000000E+00 -0.45593999997E+02  0.45594000000E+02  0.51100000000E-03 0.  1.
    9900012    2    1    2    0    0 -0.36133763364E+01 -0.13635971343E+02  0.38133564163E+02  0.50528869183E+02  0.30000028368E+02 0.  0.
        -12    1    1    2    0    0  0.36133763364E+01  0.13635971343E+02 -0.38133564163E+02  0.40659130817E+02  0.00000000000E+00 0.  1.
         11    1    3    3    0    0  0.40091790799E+01 -0.42729697573E+01  0.96431814227E+01  0.11283737663E+02  0.51100000000E-03 0. -1.
        -11    1    3    3    0    0  0.15387611518E+01 -0.15660852367E+02  0.14726317858E+02  0.21552134944E+02  0.51100000000E-03 0.  1.
        -12    1    3    3    0    0 -0.91613165681E+01  0.62978507810E+01  0.13764064883E+02  0.17692996575E+02  0.00000000000E+00 0.  1.
</event>
<event>
 7    1  0.5843820E-012  0.5052886E+02  0.7816164E-02  0.1300439E+00
        -11   -1    0    0    0    0  0.00000000000E+00  0.00000000000E+00  0.45593999997E+02  0.45594000000E+02  0.51100000000E-03 0. -1.
         11   -1    0    0    0    0 -0.00000000000E+00 -0.00000000000E+00 -0.45593999997E+02  0.45594000000E+02  0.51100000000E-03 0.  1.
    9900012    2    1    2    0    0 -0.25467682071E+02 -0.93827998043E+01  0.30274182854E+02  0.50528856997E+02  0.29999991328E+02 0.  0.
        -12    1    1    2    0    0  0.25467682071E+02  0.93827998043E+01 -0.30274182854E+02  0.40659143003E+02  0.00000000000E+00 0.  1.
         11    1    3    3    0    0 -0.12089212786E+02 -0.58486568965E+01  0.46982301042E+01  0.14227762286E+02  0.51100000000E-03 0. -1.
        -11    1    3    3    0    0 -0.12717613571E+02 -0.27454473453E+01  0.25573843854E+01  0.13259539631E+02  0.51100000000E-03 0.  1.
         12    1    3    3    0    0 -0.66085571430E+00 -0.78869556243E+00  0.23018568365E+02  0.23041555080E+02  0.00000000000E+00 0. -1.
</event>
<event>
 7    1  0.5843820E-012  0.5052882E+02  0.7816164E-02  0.1300439E+00
        -11   -1    0    0    0    0  0.00000000000E+00  0.00000000000E+00  0.45593999997E+02  0.45594000000E+02  0.51100000000E-03 0. -1.
         11   -1    0    0    0    0 -0.00000000000E+00 -0.00000000000E+00 -0.45593999997E+02  0.45594000000E+02  0.51100000000E-03 0.  1.
    9900012    2    1    2    0    0  0.26135508599E+02  0.17358015933E+02  0.25861240220E+02  0.50528815643E+02  0.29999865629E+02 0.  0.
        -12    1    1    2    0    0 -0.26135508599E+02 -0.17358015933E+02 -0.25861240220E+02  0.40659184357E+02  0.00000000000E+00 0.  1.
         11    1    3    3    0    0  0.43626490122E+01 -0.32563159292E+01  0.44045266242E+00  0.54617120616E+01  0.51100000000E-03 0. -1.
        -11    1    3    3    0    0  0.65309306518E+01  0.18475491139E+02  0.64329327087E+01  0.20624729125E+02  0.51100000000E-03 0.  1.
         12    1    3    3    0    0  0.15241928935E+02  0.21388407235E+01  0.18987854849E+02  0.24442374456E+02  0.00000000000E+00 0. -1.
</event>
<event>
 7    1  0.5843820E-012  0.5052885E+02  0.7816164E-02  0.1300439E+00
        -11   -1    0    0    0    0  0.00000000000E+00  0.00000000000E+00  0.45593999997E+02  0.45594000000E+02  0.51100000000E-03 0. -1.
         11   -1    0    0    0    0 -0.00000000000E+00 -0.00000000000E+00 -0.45593999997E+02  0.45594000000E+02  0.51100000000E-03 0.  1.
    9900012    2    1    2    0    0 -0.23650568969E+02 -0.26810297644E+02  0.19365553210E+02  0.50528854369E+02  0.29999983340E+02 0.  0.
        -12    1    1    2    0    0  0.23650568969E+02  0.26810297644E+02 -0.19365553210E+02  0.40659145631E+02  0.00000000000E+00 0.  1.
         11    1    3    3    0    0 -0.13367589575E+02 -0.16091807330E+02  0.92096174459E+01  0.22857291352E+02  0.51100000000E-03 0. -1.
        -11    1    3    3    0    0 -0.94889045848E+01 -0.15266219840E+02  0.17224973625E+01  0.18057236107E+02  0.51100000000E-03 0.  1.
        -12    1    3    3    0    0 -0.79407480966E+00  0.45477295260E+01  0.84334384018E+01  0.96143269095E+01  0.00000000000E+00 0.  1.
</event>
<event>
 7    1  0.5843820E-012  0.5052885E+02  0.7816164E-02  0.1300439E+00
        -11   -1    0    0    0    0  0.00000000000E+00  0.00000000000E+00  0.45593999997E+02  0.45594000000E+02  0.51100000000E-03 0. -1.
         11   -1    0    0    0    0 -0.00000000000E+00 -0.00000000000E+00 -0.45593999997E+02  0.45594000000E+02  0.51100000000E-03 0.  1.
    9900012    2    1    2    0    0 -0.30197597608E+02  0.23945893051E+02  0.12956287725E+02  0.50528854818E+02  0.29999984704E+02 0.  0.
        -12    1    1    2    0    0  0.30197597608E+02 -0.23945893051E+02 -0.12956287725E+02  0.40659145182E+02  0.00000000000E+00 0.  1.
         11    1    3    3    0    0 -0.20546874717E+02  0.18599009968E+02  0.61046365238E+01  0.28378932675E+02  0.51100000000E-03 0. -1.
        -11    1    3    3    0    0 -0.27867782588E+01  0.70005795247E+01 -0.45039563222E+01  0.87783751093E+01  0.51100000000E-03 0.  1.
         12    1    3    3    0    0 -0.68639446322E+01 -0.16536964416E+01  0.11355607524E+02  0.13371547033E+02  0.00000000000E+00 0. -1.
</event>
<event>
 7    1  0.5843820E-012  0.5052886E+02  0.7816164E-02  0.1300439E+00
        -11   -1    0    0    0    0  0.00000000000E+00  0.00000000000E+00  0.45593999997E+02  0.45594000000E+02  0.51100000000E-03 0. -1.
         11   -1    0    0    0    0 -0.00000000000E+00 -0.00000000000E+00 -0.45593999997E+02  0.45594000000E+02  0.51100000000E-03 0.  1.
    9900012    2    1    2    0    0  0.18286434003E+02  0.55427936095E+00  0.36310665835E+02  0.50528863910E+02  0.30000012341E+02 0.  0.
        -12    1    1    2    0    0 -0.18286434003E+02 -0.55427936095E+00 -0.36310665835E+02  0.40659136090E+02  0.00000000000E+00 0.  1.
         11    1    3    3    0    0  0.19176860145E+01 -0.22075162557E+00 -0.10627453225E+01  0.22035604852E+01  0.51100000000E-03 0. -1.
        -11    1    3    3    0    0  0.65589135547E+01  0.11616304651E+02  0.81076987123E+01  0.15610658520E+02  0.51100000000E-03 0.  1.
         12    1    3    3    0    0  0.98098344339E+01 -0.10841273665E+02  0.29265712446E+02  0.32714644905E+02  0.00000000000E+00 0. -1.
</event>
<event>
 7    1  0.5843820E-012  0.5052886E+02  0.7816164E-02  0.1300439E+00
        -11   -1    0    0    0    0  0.00000000000E+00  0.00000000000E+00  0.45593999997E+02  0.45594000000E+02  0.51100000000E-03 0. -1.
         11   -1    0    0    0    0 -0.00000000000E+00 -0.00000000000E+00 -0.45593999997E+02  0.45594000000E+02  0.51100000000E-03 0.  1.
    9900012    2    1    2    0    0 -0.11148438571E+02 -0.21245640495E+02 -0.32825303588E+02  0.50528862303E+02  0.30000007457E+02 0.  0.
         12    1    1    2    0    0  0.11148438571E+02  0.21245640495E+02  0.32825303588E+02  0.40659137697E+02  0.00000000000E+00 0. -1.
         11    1    3    3    0    0 -0.16368443193E+02 -0.54999962953E+01 -0.16754059905E+02  0.24059809129E+02  0.51100000000E-03 0. -1.
        -11    1    3    3    0    0 -0.29441618276E+01 -0.68204097997E+01 -0.15835913777E+01  0.75956461618E+01  0.51100000000E-03 0.  1.
        -12    1    3    3    0    0  0.81641664493E+01 -0.89252343997E+01 -0.14487652306E+02  0.18873407012E+02  0.00000000000E+00 0.  1.
</event>
<event>
 7    1  0.5843820E-012  0.5052885E+02  0.7816164E-02  0.1300439E+00
        -11   -1    0    0    0    0  0.00000000000E+00  0.00000000000E+00  0.45593999997E+02  0.45594000000E+02  0.51100000000E-03 0. -1.
         11   -1    0    0    0    0 -0.00000000000E+00 -0.00000000000E+00 -0.45593999997E+02  0.45594000000E+02  0.51100000000E-03 0.  1.
    9900012    2    1    2    0    0  0.26125052684E+02  0.87250717923E+01 -0.29908544893E+02  0.50528852037E+02  0.29999976251E+02 0.  0.
         12    1    1    2    0    0 -0.26125052684E+02 -0.87250717923E+01  0.29908544893E+02  0.40659147963E+02  0.00000000000E+00 0. -1.
         11    1    3    3    0    0  0.10027497217E+01  0.13096863576E+01 -0.81218693764E+01  0.82876744499E+01  0.51100000000E-03 0. -1.
        -11    1    3    3    0    0  0.82730158198E+01  0.10962092994E+02 -0.20889072106E+02  0.24999272135E+02  0.51100000000E-03 0.  1.
        -12    1    3    3    0    0  0.16849287142E+02 -0.35467075598E+01 -0.89760340984E+00  0.17241905451E+02  0.00000000000E+00 0.  1.
</event>
<event>
 7    1  0.5843820E-012  0.5052887E+02  0.7816164E-02  0.1300439E+00
        -11   -1    0    0    0    0  0.00000000000E+00  0.00000000000E+00  0.45593999997E+02  0.45594000000E+02  0.51100000000E-03 0. -1.
         11   -1    0    0    0    0 -0.00000000000E+00 -0.00000000000E+00 -0.45593999997E+02  0.45594000000E+02  0.51100000000E-03 0.  1.
    9900012    2    1    2    0    0  0.17559516203E+02 -0.37552266743E+01 -0.36479122777E+02  0.50528871440E+02  0.30000035229E+02 0.  0.
         12    1    1    2    0    0 -0.17559516203E+02  0.37552266743E+01  0.36479122777E+02  0.40659128560E+02  0.00000000000E+00 0. -1.
         11    1    3    3    0    0 -0.34977244530E+00  0.53209874898E+01 -0.57725714061E+01  0.78586149880E+01  0.51100000000E-03 0. -1.
        -11    1    3    3    0    0  0.11451246937E+02  0.48557828542E+01 -0.21289563511E+02  0.24656747520E+02  0.51100000000E-03 0.  1.
         12    1    3    3    0    0  0.64580417116E+01 -0.13931997018E+02 -0.94169878607E+01  0.18013508932E+02  0.00000000000E+00 0. -1.
</event>
<event>
 7    1  0.5843820E-012  0.5052885E+02  0.7816164E-02  0.1300439E+00
        -11   -1    0    0    0    0  0.00000000000E+00  0.00000000000E+00  0.45593999997E+02  0.45594000000E+02  0.51100000000E-03 0.  1.
         11   -1    0    0    0    0 -0.00000000000E+00 -0.00000000000E+00 -0.45593999997E+02  0.45594000000E+02  0.51100000000E-03 0. -1.
    9900012    2    1    2    0    0  0.14452254831E+02  0.15438370888E+02 -0.34726870157E+02  0.50528850030E+02  0.29999970152E+02 0.  0.
         12    1    1    2    0    0 -0.14452254831E+02 -0.15438370888E+02  0.34726870157E+02  0.40659149970E+02  0.00000000000E+00 0. -1.
         11    1    3    3    0    0  0.13497874276E+02  0.71503356170E+01 -0.19805513122E+02  0.25011562521E+02  0.51100000000E-03 0. -1.
        -11    1    3    3    0    0  0.77015185516E+01  0.30362290530E+01 -0.14809671970E+02  0.16966392044E+02  0.51100000000E-03 0.  1.
        -12    1    3    3    0    0 -0.67471379973E+01  0.52518062183E+01 -0.11168506423E+00  0.85508954655E+01  0.00000000000E+00 0.  1.
</event>
<event>
 7    1  0.5843820E-012  0.5052886E+02  0.7816164E-02  0.1300439E+00
        -11   -1    0    0    0    0  0.00000000000E+00  0.00000000000E+00  0.45593999997E+02  0.45594000000E+02  0.51100000000E-03 0. -1.
         11   -1    0    0    0    0 -0.00000000000E+00 -0.00000000000E+00 -0.45593999997E+02  0.45594000000E+02  0.51100000000E-03 0.  1.
    9900012    2    1    2    0    0  0.26211097429E+02 -0.13921892117E+02 -0.27790731037E+02  0.50528862772E+02  0.30000008881E+02 0.  0.
         12    1    1    2    0    0 -0.26211097429E+02  0.13921892117E+02  0.27790731037E+02  0.40659137228E+02  0.00000000000E+00 0. -1.
         11    1    3    3    0    0  0.22358400329E+02 -0.44287439830E+01 -0.15083908155E+02  0.27331961584E+02  0.51100000000E-03 0. -1.
        -11    1    3    3    0    0  0.92762846392E+01 -0.53930789714E+01 -0.12390158372E+02  0.16390569918E+02  0.51100000000E-03 0.  1.
        -12    1    3    3    0    0 -0.54235875393E+01 -0.41000691631E+01 -0.31666451024E+00  0.68063312695E+01  0.00000000000E+00 0.  1.
</event>
<event>
 7    1  0.5843820E-012  0.5052882E+02  0.7816164E-02  0.1300439E+00
        -11   -1    0    0    0    0  0.00000000000E+00  0.00000000000E+00  0.45593999997E+02  0.45594000000E+02  0.51100000000E-03 0. -1.
         11   -1    0    0    0    0 -0.00000000000E+00 -0.00000000000E+00 -0.45593999997E+02  0.45594000000E+02  0.51100000000E-03 0.  1.
    9900012    2    1    2    0    0  0.27895182224E+01 -0.34218410639E+02 -0.21782739827E+02  0.50528821541E+02  0.29999883555E+02 0.  0.
         12    1    1    2    0    0 -0.27895182224E+01  0.34218410639E+02  0.21782739827E+02  0.40659178459E+02  0.00000000000E+00 0. -1.
         11    1    3    3    0    0 -0.98454217765E+01 -0.15141215432E+02 -0.10658726326E+02  0.20971341919E+02  0.51100000000E-03 0. -1.
        -11    1    3    3    0    0 -0.88857418351E-01 -0.13483864555E+02 -0.56176809839E+01  0.14607561017E+02  0.51100000000E-03 0.  1.
        -12    1    3    3    0    0  0.12723797417E+02 -0.55933306525E+01 -0.55063325174E+01  0.14949918605E+02  0.00000000000E+00 0.  1.
</event>
<event>
 7    1  0.5843820E-012  0.5052886E+02  0.7816164E-02  0.1300439E+00
        -11   -1    0    0    0    0  0.00000000000E+00  0.00000000000E+00  0.45593999997E+02  0.45594000000E+02  0.51100000000E-03 0. -1.
         11   -1    0    0    0    0 -0.00000000000E+00 -0.00000000000E+00 -0.45593999997E+02  0.45594000000E+02  0.51100000000E-03 0.  1.
    9900012    2    1    2    0    0 -0.29513943713E+02  0.25305071853E+02 -0.11905716737E+02  0.50528860486E+02  0.30000001934E+02 0.  0.
         12    1    1    2    0    0  0.29513943713E+02 -0.25305071853E+02  0.11905716737E+02  0.40659139514E+02  0.00000000000E+00 0. -1.
         11    1    3    3    0    0  0.43152560531E+00  0.24140829888E+01  0.20435752765E+01  0.31922110201E+01  0.51100000000E-03 0. -1.
        -11    1    3    3    0    0  0.90326589577E+00 -0.35535082439E+01  0.13680472443E+01  0.39134209640E+01  0.51100000000E-03 0.  1.
        -12    1    3    3    0    0 -0.30848735214E+02  0.26444497108E+02 -0.15317339258E+02  0.43423228502E+02  0.00000000000E+00 0.  1.
</event>
<event>
 7    1  0.5843820E-012  0.5052886E+02  0.7816164E-02  0.1300439E+00
        -11   -1    0    0    0    0  0.00000000000E+00  0.00000000000E+00  0.45593999997E+02  0.45594000000E+02  0.51100000000E-03 0. -1.
         11   -1    0    0    0    0 -0.00000000000E+00 -0.00000000000E+00 -0.45593999997E+02  0.45594000000E+02  0.51100000000E-03 0.  1.
    9900012    2    1    2    0    0  0.24842323584E+02  0.94977613586E+01 -0.30754135467E+02  0.50528863754E+02  0.30000011868E+02 0.  0.
         12    1    1    2    0    0 -0.24842323584E+02 -0.94977613586E+01  0.30754135467E+02  0.40659136246E+02  0.00000000000E+00 0. -1.
         11    1    3    3    0    0  0.10529655406E+02  0.92190436558E+00 -0.16539774077E+01  0.10698560284E+02  0.51100000000E-03 0. -1.
        -11    1    3    3    0    0  0.19768855187E+02  0.54278398686E+01 -0.24926808617E+02  0.32274058765E+02  0.51100000000E-03 0.  1.
        -12    1    3    3    0    0 -0.54561870085E+01  0.31480171244E+01 -0.41733494427E+01  0.75562447061E+01  0.00000000000E+00 0.  1.
</event>
<event>
 7    1  0.5843820E-012  0.5052886E+02  0.7816164E-02  0.1300439E+00
        -11   -1    0    0    0    0  0.00000000000E+00  0.00000000000E+00  0.45593999997E+02  0.45594000000E+02  0.51100000000E-03 0.  1.
         11   -1    0    0    0    0 -0.00000000000E+00 -0.00000000000E+00 -0.45593999997E+02  0.45594000000E+02  0.51100000000E-03 0. -1.
    9900012    2    1    2    0    0  0.27607827949E+02  0.25777689966E+02 -0.15049399054E+02  0.50528857412E+02  0.29999992591E+02 0.  0.
         12    1    1    2    0    0 -0.27607827949E+02 -0.25777689966E+02  0.15049399054E+02  0.40659142588E+02  0.00000000000E+00 0. -1.
         11    1    3    3    0    0  0.63363800628E+01  0.30853110732E+01 -0.94376803883E+01  0.11778737967E+02  0.51100000000E-03 0. -1.
        -11    1    3    3    0    0  0.68708511977E+01 -0.11691308196E+01  0.53658428039E+01  0.87958929229E+01  0.51100000000E-03 0.  1.
        -12    1    3    3    0    0  0.14400596689E+02  0.23861509712E+02 -0.10977561470E+02  0.29954226523E+02  0.00000000000E+00 0.  1.
</event>
<event>
 7    1  0.5843820E-012  0.5052885E+02  0.7816164E-02  0.1300439E+00
        -11   -1    0    0    0    0  0.00000000000E+00  0.00000000000E+00  0.45593999997E+02  0.45594000000E+02  0.51100000000E-03 0. -1.
         11   -1    0    0    0    0 -0.00000000000E+00 -0.00000000000E+00 -0.45593999997E+02  0.45594000000E+02  0.51100000000E-03 0.  1.
    9900012    2    1    2    0    0  0.68478527503E+01  0.20006578615E+01  0.40028376432E+02  0.50528848029E+02  0.29999964070E+02 0.  0.
        -12    1    1    2    0    0 -0.68478527503E+01 -0.20006578615E+01 -0.40028376432E+02  0.40659151971E+02  0.00000000000E+00 0.  1.
         11    1    3    3    0    0  0.50186892454E+01 -0.14474845697E+01 -0.23379699586E+00  0.52284906634E+01  0.51100000000E-03 0. -1.
        -11    1    3    3    0    0  0.65682679425E+01  0.49255076654E+01  0.48365723323E+01  0.95286516209E+01  0.51100000000E-03 0.  1.
         12    1    3    3    0    0 -0.47391044376E+01 -0.14773652342E+01  0.35425601096E+02  0.35771705745E+02  0.00000000000E+00 0. -1.
</event>
<event>
 7    1  0.5843820E-012  0.5052886E+02  0.7816164E-02  0.1300439E+00
        -11   -1    0    0    0    0  0.00000000000E+00  0.00000000000E+00  0.45593999997E+02  0.45594000000E+02  0.51100000000E-03 0. -1.
         11   -1    0    0    0    0 -0.00000000000E+00 -0.00000000000E+00 -0.45593999997E+02  0.45594000000E+02  0.51100000000E-03 0.  1.
    9900012    2    1    2    0    0 -0.31525682930E+02  0.37032369396E+01 -0.25408328080E+02  0.50528858545E+02  0.29999996034E+02 0.  0.
         12    1    1    2    0    0  0.31525682930E+02 -0.37032369396E+01  0.25408328080E+02  0.40659141455E+02  0.00000000000E+00 0. -1.
         11    1    3    3    0    0 -0.30870805966E+01 -0.43081726206E+01 -0.18423245202E+01  0.56111119965E+01  0.51100000000E-03 0. -1.
        -11    1    3    3    0    0 -0.56946719392E+01 -0.84059608465E+01 -0.71320199038E+01  0.12407867440E+02  0.51100000000E-03 0.  1.
         12    1    3    3    0    0 -0.22743930394E+02  0.16417370407E+02 -0.16433983656E+02  0.32509879108E+02  0.00000000000E+00 0. -1.
</event>
<event>
 7    1  0.5843820E-012  0.5052886E+02  0.7816164E-02  0.1300439E+00
        -11   -1    0    0    0    0  0.00000000000E+00  0.00000000000E+00  0.45593999997E+02  0.45594000000E+02  0.51100000000E-03 0. -1.
         11   -1    0    0    0    0 -0.00000000000E+00 -0.00000000000E+00 -0.45593999997E+02  0.45594000000E+02  0.51100000000E-03 0.  1.
    9900012    2    1    2    0    0 -0.10496755818E+02 -0.15526762699E+02  0.36081897804E+02  0.50528860907E+02  0.30000003214E+02 0.  0.
        -12    1    1    2    0    0  0.10496755818E+02  0.15526762699E+02 -0.36081897804E+02  0.40659139093E+02  0.00000000000E+00 0.  1.
         11    1    3    3    0    0 -0.13767606429E+01 -0.75303639404E+01  0.63960284898E+01  0.99755216228E+01  0.51100000000E-03 0. -1.
        -11    1    3    3    0    0 -0.10177703945E+01 -0.69792574179E+01 -0.23956991673E+01  0.74488432285E+01  0.51100000000E-03 0.  1.
         12    1    3    3    0    0 -0.81022247809E+01 -0.10171413411E+01  0.32081568481E+02  0.33104496056E+02  0.00000000000E+00 0. -1.
</event>
<event>
 7    1  0.5843820E-012  0.5052885E+02  0.7816164E-02  0.1300439E+00
        -11   -1    0    0    0    0  0.00000000000E+00  0.00000000000E+00  0.45593999997E+02  0.45594000000E+02  0.51100000000E-03 0.  1.
         11   -1    0    0    0    0 -0.00000000000E+00 -0.00000000000E+00 -0.45593999997E+02  0.45594000000E+02  0.51100000000E-03 0. -1.
    9900012    2    1    2    0    0  0.28957849714E+02 -0.28535109491E+02  0.59752513352E+00  0.50528848878E+02  0.29999966649E+02 0.  0.
         12    1    1    2    0    0 -0.28957849714E+02  0.28535109491E+02 -0.59752513352E+00  0.40659151122E+02  0.00000000000E+00 0. -1.
         11    1    3    3    0    0  0.20858017126E+01 -0.12079304246E+02 -0.11499581313E+01  0.12311887094E+02  0.51100000000E-03 0. -1.
        -11    1    3    3    0    0  0.23692241752E+02 -0.16774117361E+02  0.89166896243E+01  0.30367757353E+02  0.51100000000E-03 0.  1.
         12    1    3    3    0    0  0.31798062486E+01  0.31831211630E+00 -0.71692063595E+01  0.78492044315E+01  0.00000000000E+00 0. -1.
</event>
<event>
 7    1  0.5843820E-012  0.5052885E+02  0.7816164E-02  0.1300439E+00
        -11   -1    0    0    0    0  0.00000000000E+00  0.00000000000E+00  0.45593999997E+02  0.45594000000E+02  0.51100000000E-03 0. -1.
         11   -1    0    0    0    0 -0.00000000000E+00 -0.00000000000E+00 -0.45593999997E+02  0.45594000000E+02  0.51100000000E-03 0.  1.
    9900012    2    1    2    0    0  0.18297853711E+02 -0.34228139303E+02 -0.12115683223E+02  0.50528846657E+02  0.29999959900E+02 0.  0.
         12    1    1    2    0    0 -0.18297853711E+02  0.34228139303E+02  0.12115683223E+02  0.40659153343E+02  0.00000000000E+00 0. -1.
         11    1    3    3    0    0 -0.21176181326E+01  0.63054931062E+00 -0.22402888786E+01  0.31465526389E+01  0.51100000000E-03 0. -1.
        -11    1    3    3    0    0  0.35924473090E+01 -0.27688150502E+02 -0.41995895903E+01  0.28234303761E+02  0.51100000000E-03 0.  1.
        -12    1    3    3    0    0  0.16823024534E+02 -0.71705381121E+01 -0.56758047539E+01  0.19147990258E+02  0.00000000000E+00 0.  1.
</event>
<event>
 7    1  0.5843820E-012  0.5052886E+02  0.7816164E-02  0.1300439E+00
        -11   -1    0    0    0    0  0.00000000000E+00  0.00000000000E+00  0.45593999997E+02  0.45594000000E+02  0.51100000000E-03 0. -1.
         11   -1    0    0    0    0 -0.00000000000E+00 -0.00000000000E+00 -0.45593999997E+02  0.45594000000E+02  0.51100000000E-03 0.  1.
    9900012    2    1    2    0    0  0.16423091113E+02  0.23821063617E+02 -0.28565798511E+02  0.50528857877E+02  0.29999994003E+02 0.  0.
         12    1    1    2    0    0 -0.16423091113E+02 -0.23821063617E+02  0.28565798511E+02  0.40659142123E+02  0.00000000000E+00 0. -1.
         11    1    3    3    0    0  0.82067908198E+01  0.17314154267E+02 -0.33793641837E+01  0.19456398847E+02  0.51100000000E-03 0. -1.
        -11    1    3    3    0    0 -0.19998469154E+00  0.24016846896E+01  0.14673786346E+01  0.28215746567E+01  0.51100000000E-03 0.  1.
        -12    1    3    3    0    0  0.84162849850E+01  0.41052246610E+01 -0.26653812962E+02  0.28250884374E+02  0.00000000000E+00 0.  1.
</event>
<event>
 7    1  0.5843820E-012  0.5052886E+02  0.7816164E-02  0.1300439E+00
        -11   -1    0    0    0    0  0.00000000000E+00  0.00000000000E+00  0.45593999997E+02  0.45594000000E+02  0.51100000000E-03 0. -1.
         11   -1    0    0    0    0 -0.00000000000E+00 -0.00000000000E+00 -0.45593999997E+02  0.45594000000E+02  0.51100000000E-03 0.  1.
    9900012    2    1    2    0    0  0.39009778667E+02  0.44908277431E+01  0.10546818264E+02  0.50528859073E+02  0.29999997637E+02 0.  0.
        -12    1    1    2    0    0 -0.39009778667E+02 -0.44908277431E+01 -0.10546818264E+02  0.40659140927E+02  0.00000000000E+00 0.  1.
         11    1    3    3    0    0  0.23010539618E+02 -0.46082043449E+01  0.10741733716E+02  0.25809016337E+02  0.51100000000E-03 0. -1.
        -11    1    3    3    0    0 -0.34569869083E+01  0.19602296647E+01 -0.40107753856E+00  0.39942611677E+01  0.51100000000E-03 0.  1.
         12    1    3    3    0    0  0.19456225957E+02  0.71388024234E+01  0.20616208711E+00  0.20725581568E+02  0.00000000000E+00 0. -1.
</event>
<event>
 7    1  0.5843820E-012  0.5052887E+02  0.7816164E-02  0.1300439E+00
        -11   -1    0    0    0    0  0.00000000000E+00  0.00000000000E+00  0.45593999997E+02  0.45594000000E+02  0.51100000000E-03 0. -1.
         11   -1    0    0    0    0 -0.00000000000E+00 -0.00000000000E+00 -0.45593999997E+02  0.45594000000E+02  0.51100000000E-03 0.  1.
    9900012    2    1    2    0    0 -0.32771683665E+02 -0.23042283517E+02  0.69451246139E+01  0.50528870203E+02  0.30000031470E+02 0.  0.
        -12    1    1    2    0    0  0.32771683665E+02  0.23042283517E+02 -0.69451246139E+01  0.40659129797E+02  0.00000000000E+00 0.  1.
         11    1    3    3    0    0 -0.86797657556E+01  0.80661710273E-01 -0.18716328235E+01  0.88796311618E+01  0.51100000000E-03 0. -1.
        -11    1    3    3    0    0 -0.88550228132E+01 -0.45268116996E+01  0.13885479681E+02  0.17079519883E+02  0.51100000000E-03 0.  1.
         12    1    3    3    0    0 -0.15236895096E+02 -0.18596133528E+02 -0.50687222438E+01  0.24569719159E+02  0.00000000000E+00 0. -1.
</event>
<event>
 7    1  0.5843820E-012  0.5052884E+02  0.7816164E-02  0.1300439E+00
        -11   -1    0    0    0    0  0.00000000000E+00  0.00000000000E+00  0.45593999997E+02  0.45594000000E+02  0.51100000000E-03 0. -1.
         11   -1    0    0    0    0 -0.00000000000E+00 -0.00000000000E+00 -0.45593999997E+02  0.45594000000E+02  0.51100000000E-03 0.  1.
    9900012    2    1    2    0    0 -0.32487505082E+02 -0.18802603355E+01  0.24376094154E+02  0.50528839512E+02  0.29999938180E+02 0.  0.
        -12    1    1    2    0    0  0.32487505082E+02  0.18802603355E+01 -0.24376094154E+02  0.40659160488E+02  0.00000000000E+00 0.  1.
         11    1    3    3    0    0 -0.73303772224E+01 -0.51332256415E+01 -0.56804997556E+00  0.89670015470E+01  0.51100000000E-03 0. -1.
        -11    1    3    3    0    0  0.30135573262E+01 -0.21211794428E+01  0.64759260042E+01  0.74510769597E+01  0.51100000000E-03 0.  1.
        -12    1    3    3    0    0 -0.28170685186E+02  0.53741447488E+01  0.18468218126E+02  0.34110761005E+02  0.00000000000E+00 0.  1.
</event>
<event>
 7    1  0.5843820E-012  0.5052886E+02  0.7816164E-02  0.1300439E+00
        -11   -1    0    0    0    0  0.00000000000E+00  0.00000000000E+00  0.45593999997E+02  0.45594000000E+02  0.51100000000E-03 0. -1.
         11   -1    0    0    0    0 -0.00000000000E+00 -0.00000000000E+00 -0.45593999997E+02  0.45594000000E+02  0.51100000000E-03 0.  1.
    9900012    2    1    2    0    0 -0.13574534813E+02 -0.11393347417E+02 -0.36593568433E+02  0.50528860666E+02  0.30000002480E+02 0.  0.
         12    1    1    2    0    0  0.13574534813E+02  0.11393347417E+02  0.36593568433E+02  0.40659139334E+02  0.00000000000E+00 0. -1.
         11    1    3    3    0    0  0.37332164750E+01 -0.40170233652E+01 -0.92176754714E-01  0.54846949578E+01  0.51100000000E-03 0. -1.
        -11    1    3    3    0    0 -0.59701935673E+01 -0.41184449075E+01 -0.62686688123E+00  0.72799561836E+01  0.51100000000E-03 0.  1.
        -12    1    3    3    0    0 -0.11337557721E+02 -0.32578791442E+01 -0.35874524797E+02  0.37764209524E+02  0.00000000000E+00 0.  1.
</event>
<event>
 7    1  0.5843820E-012  0.5052886E+02  0.7816164E-02  0.1300439E+00
        -11   -1    0    0    0    0  0.00000000000E+00  0.00000000000E+00  0.45593999997E+02  0.45594000000E+02  0.51100000000E-03 0. -1.
         11   -1    0    0    0    0 -0.00000000000E+00 -0.00000000000E+00 -0.45593999997E+02  0.45594000000E+02  0.51100000000E-03 0.  1.
    9900012    2    1    2    0    0 -0.38120766293E+02 -0.72872560659E+01  0.12118938669E+02  0.50528860828E+02  0.30000002972E+02 0.  0.
        -12    1    1    2    0    0  0.38120766293E+02  0.72872560659E+01 -0.12118938669E+02  0.40659139172E+02  0.00000000000E+00 0.  1.
         11    1    3    3    0    0 -0.10586077593E+02 -0.42590568490E+01  0.12437729674E+02  0.16879032074E+02  0.51100000000E-03 0. -1.
        -11    1    3    3    0    0 -0.15731768187E+02 -0.94309196897E+00  0.92844334955E+01  0.18291491419E+02  0.51100000000E-03 0.  1.
        -12    1    3    3    0    0 -0.11802920514E+02 -0.20851072479E+01 -0.96032245004E+01  0.15358337335E+02  0.00000000000E+00 0.  1.
</event>
<event>
 7    1  0.5843820E-012  0.5052884E+02  0.7816164E-02  0.1300439E+00
        -11   -1    0    0    0    0  0.00000000000E+00  0.00000000000E+00  0.45593999997E+02  0.45594000000E+02  0.51100000000E-03 0. -1.
         11   -1    0    0    0    0 -0.00000000000E+00 -0.00000000000E+00 -0.45593999997E+02  0.45594000000E+02  0.51100000000E-03 0.  1.
    9900012    2    1    2    0    0  0.37611122381E+02  0.10450945059E+02 -0.11373141842E+02  0.50528841933E+02  0.29999945540E+02 0.  0.
         12    1    1    2    0    0 -0.37611122381E+02 -0.10450945059E+02  0.11373141842E+02  0.40659158067E+02  0.00000000000E+00 0. -1.
         11    1    3    3    0    0  0.15904104579E+02  0.80194902640E+01 -0.56351569936E+01  0.18681749413E+02  0.51100000000E-03 0. -1.
        -11    1    3    3    0    0  0.14807199683E+02  0.12092406961E+02 -0.57900914218E+01  0.19975100188E+02  0.51100000000E-03 0.  1.
         12    1    3    3    0    0  0.68998181187E+01 -0.96609521665E+01  0.52106573308E-01  0.11871992332E+02  0.00000000000E+00 0. -1.
</event>
<event>
 7    1  0.5843820E-012  0.5052898E+02  0.7816164E-02  0.1300438E+00
        -11   -1    0    0    0    0  0.00000000000E+00  0.00000000000E+00  0.45593999997E+02  0.45594000000E+02  0.51100000000E-03 0.  1.
         11   -1    0    0    0    0 -0.00000000000E+00 -0.00000000000E+00 -0.45593999997E+02  0.45594000000E+02  0.51100000000E-03 0. -1.
    9900012    2    1    2    0    0  0.35419357313E+02  0.20272187628E+01 -0.19862407885E+02  0.50528982115E+02  0.30000371633E+02 0.  0.
         12    1    1    2    0    0 -0.35419357313E+02 -0.20272187628E+01  0.19862407885E+02  0.40659017885E+02  0.00000000000E+00 0. -1.
         11    1    3    3    0    0  0.15962339647E+02  0.11387970435E+02 -0.16886093147E+02  0.25877061264E+02  0.51100000000E-03 0. -1.
        -11    1    3    3    0    0  0.24696635440E+01 -0.59099675565E+01 -0.35207299800E+01  0.73090693247E+01  0.51100000000E-03 0.  1.
        -12    1    3    3    0    0  0.16987354123E+02 -0.34507841156E+01  0.54441524180E+00  0.17342851526E+02  0.00000000000E+00 0.  1.
</event>
<event>
 7    1  0.5843820E-012  0.5052886E+02  0.7816164E-02  0.1300439E+00
        -11   -1    0    0    0    0  0.00000000000E+00  0.00000000000E+00  0.45593999997E+02  0.45594000000E+02  0.51100000000E-03 0. -1.
         11   -1    0    0    0    0 -0.00000000000E+00 -0.00000000000E+00 -0.45593999997E+02  0.45594000000E+02  0.51100000000E-03 0.  1.
    9900012    2    1    2    0    0 -0.17710654036E+02  0.11065910542E+02 -0.34886161000E+02  0.50528857463E+02  0.29999992746E+02 0.  0.
         12    1    1    2    0    0  0.17710654036E+02 -0.11065910542E+02  0.34886161000E+02  0.40659142537E+02  0.00000000000E+00 0. -1.
         11    1    3    3    0    0 -0.29832785086E+01  0.49714774910E+01 -0.15090007801E+02  0.16165514987E+02  0.51100000000E-03 0. -1.
        -11    1    3    3    0    0 -0.75198159577E+01  0.97409881689E+01 -0.22666030881E+02  0.25791150395E+02  0.51100000000E-03 0.  1.
         12    1    3    3    0    0 -0.72075595701E+01 -0.36465551176E+01  0.28698776817E+01  0.85721920819E+01  0.00000000000E+00 0. -1.
</event>
<event>
 7    1  0.5843820E-012  0.5052886E+02  0.7816164E-02  0.1300439E+00
        -11   -1    0    0    0    0  0.00000000000E+00  0.00000000000E+00  0.45593999997E+02  0.45594000000E+02  0.51100000000E-03 0.  1.
         11   -1    0    0    0    0 -0.00000000000E+00 -0.00000000000E+00 -0.45593999997E+02  0.45594000000E+02  0.51100000000E-03 0. -1.
    9900012    2    1    2    0    0 -0.29910612145E+02 -0.27463247225E+02 -0.20715062696E+01  0.50528858282E+02  0.29999995234E+02 0.  0.
         12    1    1    2    0    0  0.29910612145E+02  0.27463247225E+02  0.20715062696E+01  0.40659141718E+02  0.00000000000E+00 0. -1.
         11    1    3    3    0    0  0.12822930163E+01 -0.14549069480E+02 -0.54773695501E+01  0.15598758783E+02  0.51100000000E-03 0. -1.
        -11    1    3    3    0    0 -0.18569164519E+01 -0.17677217196E+01  0.24304666551E+01  0.35327251818E+01  0.51100000000E-03 0.  1.
         12    1    3    3    0    0 -0.29335988709E+02 -0.11146456025E+02  0.97539662534E+00  0.31397374318E+02  0.00000000000E+00 0. -1.
</event>
<event>
 7    1  0.5843820E-012  0.5052886E+02  0.7816164E-02  0.1300439E+00
        -11   -1    0    0    0    0  0.00000000000E+00  0.00000000000E+00  0.45593999997E+02  0.45594000000E+02  0.51100000000E-03 0. -1.
         11   -1    0    0    0    0 -0.00000000000E+00 -0.00000000000E+00 -0.45593999997E+02  0.45594000000E+02  0.51100000000E-03 0.  1.
    9900012    2    1    2    0    0  0.98829765751E+01 -0.10626907859E+02 -0.37981060178E+02  0.50528864140E+02  0.30000013041E+02 0.  0.
         12    1    1    2    0    0 -0.98829765751E+01  0.10626907859E+02  0.37981060178E+02  0.40659135860E+02  0.00000000000E+00 0. -1.
         11    1    3    3    0    0  0.86046890364E+01 -0.12105372673E+02 -0.14120829707E+02  0.20493378268E+02  0.51100000000E-03 0. -1.
        -11    1    3    3    0    0  0.32510084544E+01 -0.52187904794E+01 -0.11227382023E+01  0.62502297054E+01  0.51100000000E-03 0.  1.
        -12    1    3    3    0    0 -0.19727209157E+01  0.66972552931E+01 -0.22737492269E+02  0.23785256167E+02  0.00000000000E+00 0.  1.
</event>
<event>
 7    1  0.5843820E-012  0.5052884E+02  0.7816164E-02  0.1300439E+00
        -11   -1    0    0    0    0  0.00000000000E+00  0.00000000000E+00  0.45593999997E+02  0.45594000000E+02  0.51100000000E-03 0. -1.
         11   -1    0    0    0    0 -0.00000000000E+00 -0.00000000000E+00 -0.45593999997E+02  0.45594000000E+02  0.51100000000E-03 0.  1.
    9900012    2    1    2    0    0  0.33965008062E+01 -0.39021203349E+02 -0.10907631713E+02  0.50528844104E+02  0.29999952139E+02 0.  0.
         12    1    1    2    0    0 -0.33965008062E+01  0.39021203349E+02  0.10907631713E+02  0.40659155896E+02  0.00000000000E+00 0. -1.
         11    1    3    3    0    0  0.20557027471E-01 -0.13588349221E+02 -0.10504721822E+02  0.17175355541E+02  0.51100000000E-03 0. -1.
        -11    1    3    3    0    0  0.15914308696E+01 -0.26287455810E+02 -0.63462605124E+01  0.27089444585E+02  0.51100000000E-03 0.  1.
         12    1    3    3    0    0  0.17845129091E+01  0.85460168175E+00  0.59433506210E+01  0.62640439783E+01  0.00000000000E+00 0. -1.
</event>
<event>
 7    1  0.5843820E-012  0.5052887E+02  0.7816164E-02  0.1300439E+00
        -11   -1    0    0    0    0  0.00000000000E+00  0.00000000000E+00  0.45593999997E+02  0.45594000000E+02  0.51100000000E-03 0. -1.
         11   -1    0    0    0    0 -0.00000000000E+00 -0.00000000000E+00 -0.45593999997E+02  0.45594000000E+02  0.51100000000E-03 0.  1.
    9900012    2    1    2    0    0  0.31591769339E+02  0.11092774717E+02 -0.23066762220E+02  0.50528867444E+02  0.30000023082E+02 0.  0.
         12    1    1    2    0    0 -0.31591769339E+02 -0.11092774717E+02  0.23066762220E+02  0.40659132556E+02  0.00000000000E+00 0. -1.
         11    1    3    3    0    0  0.21595936756E+02  0.13842501911E+02 -0.54978392360E+01  0.26234053824E+02  0.51100000000E-03 0. -1.
        -11    1    3    3    0    0  0.42108182050E+01  0.53136260784E+01 -0.60088870441E+01  0.90593783355E+01  0.51100000000E-03 0.  1.
        -12    1    3    3    0    0  0.57850143783E+01 -0.80633532729E+01 -0.11560035940E+02  0.15235435284E+02  0.00000000000E+00 0.  1.
</event>
<event>
 7    1  0.5843820E-012  0.5052886E+02  0.7816164E-02  0.1300439E+00
        -11   -1    0    0    0    0  0.00000000000E+00  0.00000000000E+00  0.45593999997E+02  0.45594000000E+02  0.51100000000E-03 0. -1.
         11   -1    0    0    0    0 -0.00000000000E+00 -0.00000000000E+00 -0.45593999997E+02  0.45594000000E+02  0.51100000000E-03 0.  1.
    9900012    2    1    2    0    0  0.23464510766E+02  0.20879609494E+02  0.25819070131E+02  0.50528859078E+02  0.29999997653E+02 0.  0.
        -12    1    1    2    0    0 -0.23464510766E+02 -0.20879609494E+02 -0.25819070131E+02  0.40659140922E+02  0.00000000000E+00 0.  1.
         11    1    3    3    0    0  0.43289122843E+01 -0.42472559889E+01  0.56874622530E+01  0.83141982260E+01  0.51100000000E-03 0. -1.
        -11    1    3    3    0    0 -0.40575834754E+01  0.45894949812E+01  0.32885281401E+01  0.69528314687E+01  0.51100000000E-03 0.  1.
         12    1    3    3    0    0  0.23193181957E+02  0.20537370501E+02  0.16843079738E+02  0.35261829383E+02  0.00000000000E+00 0. -1.
</event>
<event>
 7    1  0.5843820E-012  0.5052886E+02  0.7816164E-02  0.1300439E+00
        -11   -1    0    0    0    0  0.00000000000E+00  0.00000000000E+00  0.45593999997E+02  0.45594000000E+02  0.51100000000E-03 0. -1.
         11   -1    0    0    0    0 -0.00000000000E+00 -0.00000000000E+00 -0.45593999997E+02  0.45594000000E+02  0.51100000000E-03 0.  1.
    9900012    2    1    2    0    0  0.20386797330E+02 -0.89990537676E+01  0.34008247001E+02  0.50528864026E+02  0.30000012693E+02 0.  0.
        -12    1    1    2    0    0 -0.20386797330E+02  0.89990537676E+01 -0.34008247001E+02  0.40659135974E+02  0.00000000000E+00 0.  1.
         11    1    3    3    0    0  0.73215718746E+01 -0.75695438799E+01  0.25661325400E+02  0.27738187230E+02  0.51100000000E-03 0. -1.
        -11    1    3    3    0    0  0.27005795643E+01  0.58268781019E+01  0.78312096753E+01  0.10127856814E+02  0.51100000000E-03 0.  1.
         12    1    3    3    0    0  0.10364645892E+02 -0.72563879896E+01  0.51571192520E+00  0.12662819982E+02  0.00000000000E+00 0. -1.
</event>
<event>
 7    1  0.6343007E-012  0.5052893E+02  0.7816164E-02  0.1300439E+00
        -11   -1    0    0    0    0  0.00000000000E+00  0.00000000000E+00  0.45593999997E+02  0.45594000000E+02  0.51100000000E-03 0. -1.
         11   -1    0    0    0    0 -0.00000000000E+00 -0.00000000000E+00 -0.45593999997E+02  0.45594000000E+02  0.51100000000E-03 0.  1.
    9900012    2    1    2    0    0  0.34208005769E+00 -0.56138309222E+01 -0.40268198269E+02  0.50528930800E+02  0.30000215660E+02 0.  0.
         12    1    1    2    0    0 -0.34208005769E+00  0.56138309222E+01  0.40268198269E+02  0.40659069200E+02  0.00000000000E+00 0. -1.
         11    1    3    3    0    0 -0.35149377877E+01 -0.16008836108E+01 -0.24854113199E+02  0.25152426506E+02  0.51100000000E-03 0.  1.
        -11    1    3    3    0    0  0.25730176423E+01  0.26861225392E+01 -0.17773808600E+02  0.18158853116E+02  0.51100000000E-03 0. -1.
         12    1    3    3    0    0  0.12840002031E+01 -0.66990698507E+01  0.23597235304E+01  0.72176511779E+01  0.00000000000E+00 0. -1.
</event>
<event>
 7    1  0.5843820E-012  0.5052888E+02  0.7816164E-02  0.1300439E+00
        -11   -1    0    0    0    0  0.00000000000E+00  0.00000000000E+00  0.45593999997E+02  0.45594000000E+02  0.51100000000E-03 0. -1.
         11   -1    0    0    0    0 -0.00000000000E+00 -0.00000000000E+00 -0.45593999997E+02  0.45594000000E+02  0.51100000000E-03 0.  1.
    9900012    2    1    2    0    0 -0.39966801760E+02  0.53520078484E+01  0.52129643418E+01  0.50528877676E+02  0.30000054185E+02 0.  0.
        -12    1    1    2    0    0  0.39966801760E+02 -0.53520078484E+01 -0.52129643418E+01  0.40659122324E+02  0.00000000000E+00 0.  1.
         11    1    3    3    0    0 -0.16097492712E+02  0.70137230569E+01  0.13956221632E+01  0.17614464063E+02  0.51100000000E-03 0. -1.
        -11    1    3    3    0    0 -0.21974506307E+02  0.67285106133E+01 -0.10975241536E+01  0.23007745262E+02  0.51100000000E-03 0.  1.
        -12    1    3    3    0    0 -0.18948027408E+01 -0.83902258218E+01  0.49148663322E+01  0.99066683517E+01  0.00000000000E+00 0.  1.
</event>
<event>
 7    1  0.5843820E-012  0.5052887E+02  0.7816164E-02  0.1300439E+00
        -11   -1    0    0    0    0  0.00000000000E+00  0.00000000000E+00  0.45593999997E+02  0.45594000000E+02  0.51100000000E-03 0. -1.
         11   -1    0    0    0    0 -0.00000000000E+00 -0.00000000000E+00 -0.45593999997E+02  0.45594000000E+02  0.51100000000E-03 0.  1.
    9900012    2    1    2    0    0 -0.32457885747E+02 -0.21784906511E+02  0.11183405066E+02  0.50528867598E+02  0.30000023550E+02 0.  0.
        -12    1    1    2    0    0  0.32457885747E+02  0.21784906511E+02 -0.11183405066E+02  0.40659132402E+02  0.00000000000E+00 0.  1.
         11    1    3    3    0    0  0.24264393436E+01 -0.27378585968E+01 -0.32050970695E+01  0.48637562717E+01  0.51100000000E-03 0. -1.
        -11    1    3    3    0    0 -0.11739047005E+01  0.26565059933E+01 -0.40011802117E+00  0.29317522116E+01  0.51100000000E-03 0.  1.
         12    1    3    3    0    0 -0.33710420390E+02 -0.21703553908E+02  0.14788620156E+02  0.42733359114E+02  0.00000000000E+00 0. -1.
</event>
<event>
 7    1  0.5843820E-012  0.5052890E+02  0.7816164E-02  0.1300439E+00
        -11   -1    0    0    0    0  0.00000000000E+00  0.00000000000E+00  0.45593999997E+02  0.45594000000E+02  0.51100000000E-03 0. -1.
         11   -1    0    0    0    0 -0.00000000000E+00 -0.00000000000E+00 -0.45593999997E+02  0.45594000000E+02  0.51100000000E-03 0.  1.
    9900012    2    1    2    0    0 -0.63413440806E+01  0.34343399746E+02  0.20820198626E+02  0.50528899891E+02  0.30000121708E+02 0.  0.
        -12    1    1    2    0    0  0.63413440806E+01 -0.34343399746E+02 -0.20820198626E+02  0.40659100109E+02  0.00000000000E+00 0.  1.
         11    1    3    3    0    0 -0.92537321213E+01  0.63273213995E+01  0.56555317684E+00  0.11224366571E+02  0.51100000000E-03 0. -1.
        -11    1    3    3    0    0 -0.34809276352E+01 -0.11659808085E+01  0.11626024581E+01  0.38507159313E+01  0.51100000000E-03 0.  1.
         12    1    3    3    0    0  0.63933156759E+01  0.29182059155E+02  0.19092042991E+02  0.35453817389E+02  0.00000000000E+00 0. -1.
</event>
<event>
 7    1  0.5843820E-012  0.5052886E+02  0.7816164E-02  0.1300439E+00
        -11   -1    0    0    0    0  0.00000000000E+00  0.00000000000E+00  0.45593999997E+02  0.45594000000E+02  0.51100000000E-03 0. -1.
         11   -1    0    0    0    0 -0.00000000000E+00 -0.00000000000E+00 -0.45593999997E+02  0.45594000000E+02  0.51100000000E-03 0.  1.
    9900012    2    1    2    0    0 -0.24020632064E+01 -0.14950878764E+02  0.37734162306E+02  0.50528859719E+02  0.29999999601E+02 0.  0.
        -12    1    1    2    0    0  0.24020632064E+01  0.14950878764E+02 -0.37734162306E+02  0.40659140281E+02  0.00000000000E+00 0.  1.
         11    1    3    3    0    0 -0.16691759215E+01 -0.12536495485E+02  0.34766914136E+01  0.13116297143E+02  0.51100000000E-03 0. -1.
        -11    1    3    3    0    0 -0.31513215202E+01 -0.53414333726E+01  0.51579035147E+01  0.80663316771E+01  0.51100000000E-03 0.  1.
         12    1    3    3    0    0  0.24184342353E+01  0.29270500929E+01  0.29099567378E+02  0.29346230899E+02  0.00000000000E+00 0. -1.
</event>
<event>
 7    1  0.5843820E-012  0.5052885E+02  0.7816164E-02  0.1300439E+00
        -11   -1    0    0    0    0  0.00000000000E+00  0.00000000000E+00  0.45593999997E+02  0.45594000000E+02  0.51100000000E-03 0. -1.
         11   -1    0    0    0    0 -0.00000000000E+00 -0.00000000000E+00 -0.45593999997E+02  0.45594000000E+02  0.51100000000E-03 0.  1.
    9900012    2    1    2    0    0  0.10296612694E+02 -0.18990065501E+02  0.34445947899E+02  0.50528854075E+02  0.29999982446E+02 0.  0.
        -12    1    1    2    0    0 -0.10296612694E+02  0.18990065501E+02 -0.34445947899E+02  0.40659145925E+02  0.00000000000E+00 0.  1.
         11    1    3    3    0    0 -0.91367296790E+00 -0.18385720784E+02  0.23880943107E+02  0.30152428940E+02  0.51100000000E-03 0. -1.
        -11    1    3    3    0    0 -0.69292289354E+00  0.40572271504E+01  0.58229599971E+00  0.41569584047E+01  0.51100000000E-03 0.  1.
         12    1    3    3    0    0  0.11903208555E+02 -0.46615718677E+01  0.99827087925E+01  0.16219466730E+02  0.00000000000E+00 0. -1.
</event>
<event>
 7    1  0.5843820E-012  0.5052886E+02  0.7816164E-02  0.1300439E+00
        -11   -1    0    0    0    0  0.00000000000E+00  0.00000000000E+00  0.45593999997E+02  0.45594000000E+02  0.51100000000E-03 0. -1.
         11   -1    0    0    0    0 -0.00000000000E+00 -0.00000000000E+00 -0.45593999997E+02  0.45594000000E+02  0.51100000000E-03 0.  1.
    9900012    2    1    2    0    0 -0.12649678611E+02 -0.13327601168E+02 -0.36270186348E+02  0.50528859090E+02  0.29999997689E+02 0.  0.
         12    1    1    2    0    0  0.12649678611E+02  0.13327601168E+02  0.36270186348E+02  0.40659140910E+02  0.00000000000E+00 0. -1.
         11    1    3    3    0    0  0.16431230249E+01 -0.67631926446E+01 -0.44388638867E+01  0.82549464498E+01  0.51100000000E-03 0. -1.
        -11    1    3    3    0    0  0.40873666869E-01  0.76349736511E+01 -0.83207366471E+01  0.11292880586E+02  0.51100000000E-03 0.  1.
        -12    1    3    3    0    0 -0.14333675303E+02 -0.14199382175E+02 -0.23510585814E+02  0.30981032054E+02  0.00000000000E+00 0.  1.
</event>
<event>
 7    1  0.5843820E-012  0.5052886E+02  0.7816164E-02  0.1300439E+00
        -11   -1    0    0    0    0  0.00000000000E+00  0.00000000000E+00  0.45593999997E+02  0.45594000000E+02  0.51100000000E-03 0.  1.
         11   -1    0    0    0    0 -0.00000000000E+00 -0.00000000000E+00 -0.45593999997E+02  0.45594000000E+02  0.51100000000E-03 0. -1.
    9900012    2    1    2    0    0 -0.37181755789E+02 -0.12070267617E+02  0.11179961417E+02  0.50528857594E+02  0.29999993143E+02 0.  0.
        -12    1    1    2    0    0  0.37181755789E+02  0.12070267617E+02 -0.11179961417E+02  0.40659142406E+02  0.00000000000E+00 0.  1.
         11    1    3    3    0    0 -0.21100845730E+02 -0.35289981034E+01 -0.14925770085E+01  0.21445915801E+02  0.51100000000E-03 0. -1.
        -11    1    3    3    0    0 -0.15188565916E+02 -0.13965942016E+02  0.10694684145E+02  0.23240403185E+02  0.51100000000E-03 0.  1.
        -12    1    3    3    0    0 -0.89234414279E+00  0.54246725030E+01  0.19778542803E+01  0.58425386081E+01  0.00000000000E+00 0.  1.
</event>
<event>
 7    1  0.5843820E-012  0.5052885E+02  0.7816164E-02  0.1300439E+00
        -11   -1    0    0    0    0  0.00000000000E+00  0.00000000000E+00  0.45593999997E+02  0.45594000000E+02  0.51100000000E-03 0. -1.
         11   -1    0    0    0    0 -0.00000000000E+00 -0.00000000000E+00 -0.45593999997E+02  0.45594000000E+02  0.51100000000E-03 0.  1.
    9900012    2    1    2    0    0  0.41999226865E+00 -0.17773156178E+02 -0.36566449028E+02  0.50528847666E+02  0.29999962964E+02 0.  0.
         12    1    1    2    0    0 -0.41999226865E+00  0.17773156178E+02  0.36566449028E+02  0.40659152334E+02  0.00000000000E+00 0. -1.
         11    1    3    3    0    0  0.22673439345E+01 -0.72541549698E+01 -0.46362352010E+01  0.89027125048E+01  0.51100000000E-03 0. -1.
        -11    1    3    3    0    0  0.60002715544E+01 -0.15388106368E+02 -0.14858765933E+02  0.22216660452E+02  0.51100000000E-03 0.  1.
        -12    1    3    3    0    0 -0.78476232202E+01  0.48691051601E+01 -0.17071447894E+02  0.19409474709E+02  0.00000000000E+00 0.  1.
</event>
<event>
 7    1  0.5843820E-012  0.5052886E+02  0.7816164E-02  0.1300439E+00
        -11   -1    0    0    0    0  0.00000000000E+00  0.00000000000E+00  0.45593999997E+02  0.45594000000E+02  0.51100000000E-03 0. -1.
         11   -1    0    0    0    0 -0.00000000000E+00 -0.00000000000E+00 -0.45593999997E+02  0.45594000000E+02  0.51100000000E-03 0.  1.
    9900012    2    1    2    0    0 -0.39876544398E+02  0.77532093998E+01  0.17072446173E+01  0.50528859166E+02  0.29999997922E+02 0.  0.
        -12    1    1    2    0    0  0.39876544398E+02 -0.77532093998E+01 -0.17072446173E+01  0.40659140834E+02  0.00000000000E+00 0.  1.
         11    1    3    3    0    0 -0.66340653828E+01  0.57142923042E+01 -0.51957272675E+01  0.10181333024E+02  0.51100000000E-03 0. -1.
        -11    1    3    3    0    0 -0.27201786914E+01  0.78296310189E+01 -0.83778457709E+00  0.83309289556E+01  0.51100000000E-03 0.  1.
         12    1    3    3    0    0 -0.30522300324E+02 -0.57907139233E+01  0.77407564620E+01  0.32016597187E+02  0.00000000000E+00 0. -1.
</event>
<event>
 7    1  0.5843820E-012  0.5052887E+02  0.7816164E-02  0.1300439E+00
        -11   -1    0    0    0    0  0.00000000000E+00  0.00000000000E+00  0.45593999997E+02  0.45594000000E+02  0.51100000000E-03 0.  1.
         11   -1    0    0    0    0 -0.00000000000E+00 -0.00000000000E+00 -0.45593999997E+02  0.45594000000E+02  0.51100000000E-03 0. -1.
    9900012    2    1    2    0    0  0.25542422304E+02 -0.29704778650E+02  0.10880042058E+02  0.50528874001E+02  0.30000043015E+02 0.  0.
        -12    1    1    2    0    0 -0.25542422304E+02  0.29704778650E+02 -0.10880042058E+02  0.40659125999E+02  0.00000000000E+00 0.  1.
         11    1    3    3    0    0  0.90163634842E+01 -0.32845212301E+01 -0.60518185883E+00  0.96150473495E+01  0.51100000000E-03 0. -1.
        -11    1    3    3    0    0  0.21678628456E+02 -0.15197168400E+02  0.49210818258E+01  0.26928310488E+02  0.51100000000E-03 0.  1.
        -12    1    3    3    0    0 -0.51525696364E+01 -0.11223089019E+02  0.65641420908E+01  0.13985516164E+02  0.00000000000E+00 0.  1.
</event>
<event>
 7    1  0.5843820E-012  0.5052886E+02  0.7816164E-02  0.1300439E+00
        -11   -1    0    0    0    0  0.00000000000E+00  0.00000000000E+00  0.45593999997E+02  0.45594000000E+02  0.51100000000E-03 0. -1.
         11   -1    0    0    0    0 -0.00000000000E+00 -0.00000000000E+00 -0.45593999997E+02  0.45594000000E+02  0.51100000000E-03 0.  1.
    9900012    2    1    2    0    0 -0.13693937905E+02  0.25987259885E+02  0.28112343733E+02  0.50528862259E+02  0.30000007323E+02 0.  0.
        -12    1    1    2    0    0  0.13693937905E+02 -0.25987259885E+02 -0.28112343733E+02  0.40659137741E+02  0.00000000000E+00 0.  1.
         11    1    3    3    0    0  0.75373563680E+00  0.52305332336E+01  0.14513910253E+02  0.15446041124E+02  0.51100000000E-03 0. -1.
        -11    1    3    3    0    0 -0.70394461041E+01 -0.26049417202E+01  0.53742532425E+01  0.92315828000E+01  0.51100000000E-03 0.  1.
        -12    1    3    3    0    0 -0.74082274379E+01  0.23361668372E+02  0.82241802377E+01  0.25851238335E+02  0.00000000000E+00 0.  1.
</event>
<event>
 7    1  0.5843820E-012  0.5052886E+02  0.7816164E-02  0.1300439E+00
        -11   -1    0    0    0    0  0.00000000000E+00  0.00000000000E+00  0.45593999997E+02  0.45594000000E+02  0.51100000000E-03 0. -1.
         11   -1    0    0    0    0 -0.00000000000E+00 -0.00000000000E+00 -0.45593999997E+02  0.45594000000E+02  0.51100000000E-03 0.  1.
    9900012    2    1    2    0    0  0.53038913650E+01  0.20223760649E+02 -0.34871678942E+02  0.50528858953E+02  0.29999997274E+02 0.  0.
         12    1    1    2    0    0 -0.53038913650E+01 -0.20223760649E+02  0.34871678942E+02  0.40659141047E+02  0.00000000000E+00 0. -1.
         11    1    3    3    0    0 -0.63097875354E+01  0.60442129381E+01 -0.10486577786E+02  0.13649697532E+02  0.51100000000E-03 0. -1.
        -11    1    3    3    0    0  0.50815004667E+01  0.17385598194E+02 -0.98347201532E+01  0.20610734881E+02  0.51100000000E-03 0.  1.
         12    1    3    3    0    0  0.65321784337E+01 -0.32060504830E+01 -0.14550381003E+02  0.16268426541E+02  0.00000000000E+00 0. -1.
</event>
<event>
 7    1  0.5843820E-012  0.5052886E+02  0.7816164E-02  0.1300439E+00
        -11   -1    0    0    0    0  0.00000000000E+00  0.00000000000E+00  0.45593999997E+02  0.45594000000E+02  0.51100000000E-03 0. -1.
         11   -1    0    0    0    0 -0.00000000000E+00 -0.00000000000E+00 -0.45593999997E+02  0.45594000000E+02  0.51100000000E-03 0.  1.
    9900012    2    1    2    0    0  0.51229663010E+00  0.34807577916E+02 -0.21007987451E+02  0.50528862467E+02  0.30000007953E+02 0.  0.
         12    1    1    2    0    0 -0.51229663010E+00 -0.34807577916E+02  0.21007987451E+02  0.40659137533E+02  0.00000000000E+00 0. -1.
         11    1    3    3    0    0 -0.53294064118E+01  0.27339587119E+02 -0.77291638637E+01  0.28906670006E+02  0.51100000000E-03 0. -1.
        -11    1    3    3    0    0 -0.38266013915E+01  0.61946000192E+01 -0.63279744878E+01  0.96467201155E+01  0.51100000000E-03 0.  1.
         12    1    3    3    0    0  0.96683044334E+01  0.12733907782E+01 -0.69508490997E+01  0.11975472345E+02  0.00000000000E+00 0. -1.
</event>
<event>
 7    1  0.5843820E-012  0.5052887E+02  0.7816164E-02  0.1300439E+00
        -11   -1    0    0    0    0  0.00000000000E+00  0.00000000000E+00  0.45593999997E+02  0.45594000000E+02  0.51100000000E-03 0. -1.
         11   -1    0    0    0    0 -0.00000000000E+00 -0.00000000000E+00 -0.45593999997E+02  0.45594000000E+02  0.51100000000E-03 0.  1.
    9900012    2    1    2    0    0  0.18498734905E+02 -0.11530513196E+02  0.34322136992E+02  0.50528867996E+02  0.30000024761E+02 0.  0.
        -12    1    1    2    0    0 -0.18498734905E+02  0.11530513196E+02 -0.34322136992E+02  0.40659132004E+02  0.00000000000E+00 0.  1.
         11    1    3    3    0    0  0.12961614029E+01 -0.71311289612E+01  0.11453787564E+02  0.13554419370E+02  0.51100000000E-03 0. -1.
        -11    1    3    3    0    0 -0.43480140015E+01 -0.48181924745E+01  0.98424932846E+01  0.11789608933E+02  0.51100000000E-03 0.  1.
         12    1    3    3    0    0  0.21550587503E+02  0.41880823952E+00  0.13025856143E+02  0.25184839692E+02  0.00000000000E+00 0. -1.
</event>
<event>
 7    1  0.5843820E-012  0.5052886E+02  0.7816164E-02  0.1300439E+00
        -11   -1    0    0    0    0  0.00000000000E+00  0.00000000000E+00  0.45593999997E+02  0.45594000000E+02  0.51100000000E-03 0. -1.
         11   -1    0    0    0    0 -0.00000000000E+00 -0.00000000000E+00 -0.45593999997E+02  0.45594000000E+02  0.51100000000E-03 0.  1.
    9900012    2    1    2    0    0  0.30031091970E+02 -0.74837650478E+01 -0.26368403662E+02  0.50528856676E+02  0.29999990352E+02 0.  0.
         12    1    1    2    0    0 -0.30031091970E+02  0.74837650478E+01  0.26368403662E+02  0.40659143324E+02  0.00000000000E+00 0. -1.
         11    1    3    3    0    0  0.12017180213E+02 -0.82451227690E+01 -0.27885780159E-01  0.14573793179E+02  0.51100000000E-03 0. -1.
        -11    1    3    3    0    0  0.22365290429E+01 -0.57433599922E+01 -0.12668145932E+02  0.14087944058E+02  0.51100000000E-03 0.  1.
        -12    1    3    3    0    0  0.15777382714E+02  0.65047177133E+01 -0.13672371949E+02  0.21867119439E+02  0.00000000000E+00 0.  1.
</event>
<event>
 7    1  0.5843820E-012  0.5052886E+02  0.7816164E-02  0.1300439E+00
        -11   -1    0    0    0    0  0.00000000000E+00  0.00000000000E+00  0.45593999997E+02  0.45594000000E+02  0.51100000000E-03 0.  1.
         11   -1    0    0    0    0 -0.00000000000E+00 -0.00000000000E+00 -0.45593999997E+02  0.45594000000E+02  0.51100000000E-03 0. -1.
    9900012    2    1    2    0    0 -0.31774640451E+02  0.14352768456E+02 -0.20917352217E+02  0.50528863734E+02  0.30000011806E+02 0.  0.
         12    1    1    2    0    0  0.31774640451E+02 -0.14352768456E+02  0.20917352217E+02  0.40659136266E+02  0.00000000000E+00 0. -1.
         11    1    3    3    0    0 -0.14102522071E+02  0.23106937838E+01 -0.18799823695E+02  0.23614694700E+02  0.51100000000E-03 0. -1.
        -11    1    3    3    0    0 -0.10612563777E+02  0.51950143461E+01 -0.90485755726E+01  0.14882587280E+02  0.51100000000E-03 0.  1.
        -12    1    3    3    0    0 -0.70595546017E+01  0.68470603265E+01  0.69310470509E+01  0.12031581754E+02  0.00000000000E+00 0.  1.
</event>
<event>
 7    1  0.5843820E-012  0.5052886E+02  0.7816164E-02  0.1300439E+00
        -11   -1    0    0    0    0  0.00000000000E+00  0.00000000000E+00  0.45593999997E+02  0.45594000000E+02  0.51100000000E-03 0.  1.
         11   -1    0    0    0    0 -0.00000000000E+00 -0.00000000000E+00 -0.45593999997E+02  0.45594000000E+02  0.51100000000E-03 0. -1.
    9900012    2    1    2    0    0 -0.31555911025E+02 -0.19469238861E+02  0.16683480732E+02  0.50528864350E+02  0.30000013679E+02 0.  0.
         12    1    1    2    0    0  0.31555911025E+02  0.19469238861E+02 -0.16683480732E+02  0.40659135650E+02  0.00000000000E+00 0. -1.
         11    1    3    3    0    0 -0.11818793661E+02  0.13725502213E+01  0.18706375368E+01  0.12044378886E+02  0.51100000000E-03 0. -1.
        -11    1    3    3    0    0 -0.55582290018E+01  0.20542252322E+01 -0.25400550046E+01  0.64471412757E+01  0.51100000000E-03 0.  1.
        -12    1    3    3    0    0 -0.14178888363E+02 -0.22896014315E+02  0.17352898200E+02  0.32037344188E+02  0.00000000000E+00 0.  1.
</event>
<event>
 7    1  0.5843820E-012  0.5052887E+02  0.7816164E-02  0.1300439E+00
        -11   -1    0    0    0    0  0.00000000000E+00  0.00000000000E+00  0.45593999997E+02  0.45594000000E+02  0.51100000000E-03 0. -1.
         11   -1    0    0    0    0 -0.00000000000E+00 -0.00000000000E+00 -0.45593999997E+02  0.45594000000E+02  0.51100000000E-03 0.  1.
    9900012    2    1    2    0    0 -0.22048422017E+01  0.13944193700E+02  0.38129558481E+02  0.50528866991E+02  0.30000021706E+02 0.  0.
        -12    1    1    2    0    0  0.22048422017E+01 -0.13944193700E+02 -0.38129558481E+02  0.40659133009E+02  0.00000000000E+00 0.  1.
         11    1    3    3    0    0  0.17881230471E+01  0.10807733691E+01 -0.34927233479E+01  0.40699596746E+01  0.51100000000E-03 0.  1.
        -11    1    3    3    0    0  0.14008755023E+01 -0.32820353421E+01  0.60642188907E+01  0.70362603118E+01  0.51100000000E-03 0. -1.
        -12    1    3    3    0    0 -0.53938407510E+01  0.16145455673E+02  0.35558062938E+02  0.39422647005E+02  0.00000000000E+00 0.  1.
</event>
<event>
 7    1  0.5843820E-012  0.5052886E+02  0.7816164E-02  0.1300439E+00
        -11   -1    0    0    0    0  0.00000000000E+00  0.00000000000E+00  0.45593999997E+02  0.45594000000E+02  0.51100000000E-03 0. -1.
         11   -1    0    0    0    0 -0.00000000000E+00 -0.00000000000E+00 -0.45593999997E+02  0.45594000000E+02  0.51100000000E-03 0.  1.
    9900012    2    1    2    0    0 -0.33828757464E+02  0.22418032368E+02 -0.24925033163E+01  0.50528861057E+02  0.30000003669E+02 0.  0.
         12    1    1    2    0    0  0.33828757464E+02 -0.22418032368E+02  0.24925033163E+01  0.40659138943E+02  0.00000000000E+00 0. -1.
         11    1    3    3    0    0 -0.14657432406E+02  0.69090587802E+00  0.31608162247E+01  0.15010277650E+02  0.51100000000E-03 0.  1.
        -11    1    3    3    0    0 -0.95176922372E+01  0.89170317327E+01  0.72595442942E+01  0.14926516810E+02  0.51100000000E-03 0. -1.
        -12    1    3    3    0    0 -0.96536328206E+01  0.12810094757E+02 -0.12912863835E+02  0.20592066597E+02  0.00000000000E+00 0.  1.
</event>
<event>
 7    1  0.5843820E-012  0.5052886E+02  0.7816164E-02  0.1300439E+00
        -11   -1    0    0    0    0  0.00000000000E+00  0.00000000000E+00  0.45593999997E+02  0.45594000000E+02  0.51100000000E-03 0. -1.
         11   -1    0    0    0    0 -0.00000000000E+00 -0.00000000000E+00 -0.45593999997E+02  0.45594000000E+02  0.51100000000E-03 0.  1.
    9900012    2    1    2    0    0 -0.41365955385E+01  0.88316628237E+01 -0.39472220971E+02  0.50528856880E+02  0.29999990973E+02 0.  0.
         12    1    1    2    0    0  0.41365955385E+01 -0.88316628237E+01  0.39472220971E+02  0.40659143120E+02  0.00000000000E+00 0. -1.
         11    1    3    3    0    0  0.63814084822E+01 -0.84438273304E+01 -0.98374018618E+01  0.14449742899E+02  0.51100000000E-03 0. -1.
        -11    1    3    3    0    0 -0.15060956374E+01  0.14527180818E+01 -0.52028678378E+01  0.56079004889E+01  0.51100000000E-03 0.  1.
         12    1    3    3    0    0 -0.90119083834E+01  0.15822772072E+02 -0.24431951271E+02  0.30471213492E+02  0.00000000000E+00 0. -1.
</event>
<event>
 7    1  0.5843820E-012  0.5052886E+02  0.7816164E-02  0.1300439E+00
        -11   -1    0    0    0    0  0.00000000000E+00  0.00000000000E+00  0.45593999997E+02  0.45594000000E+02  0.51100000000E-03 0. -1.
         11   -1    0    0    0    0 -0.00000000000E+00 -0.00000000000E+00 -0.45593999997E+02  0.45594000000E+02  0.51100000000E-03 0.  1.
    9900012    2    1    2    0    0  0.66126302667E+01 -0.32673333224E+02 -0.23278573042E+02  0.50528861471E+02  0.30000004928E+02 0.  0.
         12    1    1    2    0    0 -0.66126302667E+01  0.32673333224E+02  0.23278573042E+02  0.40659138529E+02  0.00000000000E+00 0. -1.
         11    1    3    3    0    0 -0.74296209666E+01 -0.48355352839E+01  0.12656761015E+01  0.89545298841E+01  0.51100000000E-03 0. -1.
        -11    1    3    3    0    0  0.71158176893E+00 -0.79476315416E+01 -0.10842669762E+01  0.80527529996E+01  0.51100000000E-03 0.  1.
        -12    1    3    3    0    0  0.13330669464E+02 -0.19890166399E+02 -0.23459982167E+02  0.33521578588E+02  0.00000000000E+00 0.  1.
</event>
<event>
 7    1  0.5843820E-012  0.5052886E+02  0.7816164E-02  0.1300439E+00
        -11   -1    0    0    0    0  0.00000000000E+00  0.00000000000E+00  0.45593999997E+02  0.45594000000E+02  0.51100000000E-03 0. -1.
         11   -1    0    0    0    0 -0.00000000000E+00 -0.00000000000E+00 -0.45593999997E+02  0.45594000000E+02  0.51100000000E-03 0.  1.
    9900012    2    1    2    0    0 -0.14130988299E+01  0.85405542954E+01 -0.39726912237E+02  0.50528862382E+02  0.30000007695E+02 0.  0.
         12    1    1    2    0    0  0.14130988299E+01 -0.85405542954E+01  0.39726912237E+02  0.40659137618E+02  0.00000000000E+00 0. -1.
         11    1    3    3    0    0 -0.13240467813E+01  0.16521761246E+01 -0.12311308125E+01  0.24491772423E+01  0.51100000000E-03 0. -1.
        -11    1    3    3    0    0 -0.35469323939E+01  0.84521454876E+00 -0.40633193855E+02  0.40796465045E+02  0.51100000000E-03 0.  1.
        -12    1    3    3    0    0  0.34578803452E+01  0.60431636220E+01  0.21374124306E+01  0.72832200944E+01  0.00000000000E+00 0.  1.
</event>
<event>
 7    1  0.5843820E-012  0.5052886E+02  0.7816164E-02  0.1300439E+00
        -11   -1    0    0    0    0  0.00000000000E+00  0.00000000000E+00  0.45593999997E+02  0.45594000000E+02  0.51100000000E-03 0.  1.
         11   -1    0    0    0    0 -0.00000000000E+00 -0.00000000000E+00 -0.45593999997E+02  0.45594000000E+02  0.51100000000E-03 0. -1.
    9900012    2    1    2    0    0 -0.22351666744E+02  0.31634435112E+02  0.12362476194E+02  0.50528864388E+02  0.30000013793E+02 0.  0.
        -12    1    1    2    0    0  0.22351666744E+02 -0.31634435112E+02 -0.12362476194E+02  0.40659135612E+02  0.00000000000E+00 0.  1.
         11    1    3    3    0    0 -0.12036154558E+02  0.14205212271E+02  0.28849449265E+01  0.18840912390E+02  0.51100000000E-03 0. -1.
        -11    1    3    3    0    0 -0.97176139551E+01  0.17079057104E+02 -0.23947395662E+01  0.19795479039E+02  0.51100000000E-03 0.  1.
        -12    1    3    3    0    0 -0.59789823125E+00  0.35016573741E+00  0.11872270833E+02  0.11892472959E+02  0.00000000000E+00 0.  1.
</event>
<event>
 7    1  0.5843820E-012  0.5052873E+02  0.7816164E-02  0.1300439E+00
        -11   -1    0    0    0    0  0.00000000000E+00  0.00000000000E+00  0.45593999997E+02  0.45594000000E+02  0.51100000000E-03 0. -1.
         11   -1    0    0    0    0 -0.00000000000E+00 -0.00000000000E+00 -0.45593999997E+02  0.45594000000E+02  0.51100000000E-03 0.  1.
    9900012    2    1    2    0    0  0.12020347628E+02 -0.13142668998E+02 -0.36550753192E+02  0.50528732122E+02  0.29999611755E+02 0.  0.
         12    1    1    2    0    0 -0.12020347628E+02  0.13142668998E+02  0.36550753192E+02  0.40659267878E+02  0.00000000000E+00 0. -1.
         11    1    3    3    0    0  0.71624708798E+01  0.37193154842E+01 -0.78332991782E+01  0.11246993956E+02  0.51100000000E-03 0. -1.
        -11    1    3    3    0    0  0.22752551409E+00 -0.85332098463E+01 -0.28498906368E+02  0.29749875674E+02  0.51100000000E-03 0.  1.
         12    1    3    3    0    0  0.46303512337E+01 -0.83287746362E+01 -0.21854764542E+00  0.95318624918E+01  0.00000000000E+00 0. -1.
</event>
<event>
 7    1  0.5843820E-012  0.5052887E+02  0.7816164E-02  0.1300439E+00
        -11   -1    0    0    0    0  0.00000000000E+00  0.00000000000E+00  0.45593999997E+02  0.45594000000E+02  0.51100000000E-03 0. -1.
         11   -1    0    0    0    0 -0.00000000000E+00 -0.00000000000E+00 -0.45593999997E+02  0.45594000000E+02  0.51100000000E-03 0.  1.
    9900012    2    1    2    0    0 -0.27904130146E+02  0.16156958620E+02  0.24768477290E+02  0.50528865008E+02  0.30000015678E+02 0.  0.
        -12    1    1    2    0    0  0.27904130146E+02 -0.16156958620E+02 -0.24768477290E+02  0.40659134992E+02  0.00000000000E+00 0.  1.
         11    1    3    3    0    0 -0.14122343449E+01 -0.38139505140E+01 -0.33559388225E+01  0.52728502738E+01  0.51100000000E-03 0. -1.
        -11    1    3    3    0    0 -0.50687705734E+01  0.47096657165E+01  0.23987607227E+00  0.69232165269E+01  0.51100000000E-03 0.  1.
         12    1    3    3    0    0 -0.21423125228E+02  0.15261243418E+02  0.27884540040E+02  0.38332798207E+02  0.00000000000E+00 0. -1.
</event>
<event>
 7    1  0.5843820E-012  0.5052887E+02  0.7816164E-02  0.1300439E+00
        -11   -1    0    0    0    0  0.00000000000E+00  0.00000000000E+00  0.45593999997E+02  0.45594000000E+02  0.51100000000E-03 0. -1.
         11   -1    0    0    0    0 -0.00000000000E+00 -0.00000000000E+00 -0.45593999997E+02  0.45594000000E+02  0.51100000000E-03 0.  1.
    9900012    2    1    2    0    0 -0.26053833659E+02 -0.53479639934E+01  0.30753245990E+02  0.50528866880E+02  0.30000021367E+02 0.  0.
        -12    1    1    2    0    0  0.26053833659E+02  0.53479639934E+01 -0.30753245990E+02  0.40659133120E+02  0.00000000000E+00 0.  1.
         11    1    3    3    0    0 -0.32748990752E+01 -0.54793864223E+01 -0.81482490230E+00  0.64352606319E+01  0.51100000000E-03 0. -1.
        -11    1    3    3    0    0  0.24819485169E+01 -0.27835554975E+01  0.22973877260E+00  0.37364461475E+01  0.51100000000E-03 0.  1.
         12    1    3    3    0    0 -0.25260883100E+02  0.29149779264E+01  0.31338332120E+02  0.40357160100E+02  0.00000000000E+00 0. -1.
</event>
<event>
 7    1  0.5843820E-012  0.5052886E+02  0.7816164E-02  0.1300439E+00
        -11   -1    0    0    0    0  0.00000000000E+00  0.00000000000E+00  0.45593999997E+02  0.45594000000E+02  0.51100000000E-03 0. -1.
         11   -1    0    0    0    0 -0.00000000000E+00 -0.00000000000E+00 -0.45593999997E+02  0.45594000000E+02  0.51100000000E-03 0.  1.
    9900012    2    1    2    0    0  0.34498175185E+01 -0.22129493940E+02 -0.33934496769E+02  0.50528858175E+02  0.29999994909E+02 0.  0.
         12    1    1    2    0    0 -0.34498175185E+01  0.22129493940E+02  0.33934496769E+02  0.40659141825E+02  0.00000000000E+00 0. -1.
         11    1    3    3    0    0 -0.62074059655E+01 -0.15888202071E+02 -0.20478626925E+02  0.26652223451E+02  0.51100000000E-03 0.  1.
        -11    1    3    3    0    0 -0.26647408960E+01 -0.68873618384E+01 -0.49936747558E+01  0.89147846281E+01  0.51100000000E-03 0. -1.
         12    1    3    3    0    0  0.12321964380E+02  0.64606996885E+00 -0.84621950880E+01  0.14961850096E+02  0.00000000000E+00 0. -1.
</event>
<event>
 7    1  0.5843820E-012  0.5052885E+02  0.7816164E-02  0.1300439E+00
        -11   -1    0    0    0    0  0.00000000000E+00  0.00000000000E+00  0.45593999997E+02  0.45594000000E+02  0.51100000000E-03 0. -1.
         11   -1    0    0    0    0 -0.00000000000E+00 -0.00000000000E+00 -0.45593999997E+02  0.45594000000E+02  0.51100000000E-03 0.  1.
    9900012    2    1    2    0    0 -0.83852925983E+01 -0.91680538659E+01 -0.38714336551E+02  0.50528853449E+02  0.29999980545E+02 0.  0.
         12    1    1    2    0    0  0.83852925983E+01  0.91680538659E+01  0.38714336551E+02  0.40659146551E+02  0.00000000000E+00 0. -1.
         11    1    3    3    0    0 -0.27445916565E+01 -0.56523630126E+01 -0.25569293833E+02  0.26330035670E+02  0.51100000000E-03 0. -1.
        -11    1    3    3    0    0  0.52132138557E+00 -0.65291882852E+01 -0.15595262669E+02  0.16914913350E+02  0.51100000000E-03 0.  1.
         12    1    3    3    0    0 -0.61620223274E+01  0.30134974319E+01  0.24502199511E+01  0.72839044299E+01  0.00000000000E+00 0. -1.
</event>
<event>
 7    1  0.5843820E-012  0.5052886E+02  0.7816164E-02  0.1300439E+00
        -11   -1    0    0    0    0  0.00000000000E+00  0.00000000000E+00  0.45593999997E+02  0.45594000000E+02  0.51100000000E-03 0. -1.
         11   -1    0    0    0    0 -0.00000000000E+00 -0.00000000000E+00 -0.45593999997E+02  0.45594000000E+02  0.51100000000E-03 0.  1.
    9900012    2    1    2    0    0 -0.32067447127E+02 -0.21986070539E+02 -0.11893565557E+02  0.50528863700E+02  0.30000011702E+02 0.  0.
         12    1    1    2    0    0  0.32067447127E+02  0.21986070539E+02  0.11893565557E+02  0.40659136300E+02  0.00000000000E+00 0. -1.
         11    1    3    3    0    0 -0.70816429812E+00  0.30527991732E+01  0.40461202464E+00  0.31598719304E+01  0.51100000000E-03 0. -1.
        -11    1    3    3    0    0  0.31912273177E+01 -0.38562054703E+01  0.39401625724E-01  0.50055774064E+01  0.51100000000E-03 0.  1.
        -12    1    3    3    0    0 -0.34550510147E+02 -0.21182664242E+02 -0.12337579207E+02  0.42363414363E+02  0.00000000000E+00 0.  1.
</event>
<event>
 7    1  0.5843820E-012  0.5052887E+02  0.7816164E-02  0.1300439E+00
        -11   -1    0    0    0    0  0.00000000000E+00  0.00000000000E+00  0.45593999997E+02  0.45594000000E+02  0.51100000000E-03 0. -1.
         11   -1    0    0    0    0 -0.00000000000E+00 -0.00000000000E+00 -0.45593999997E+02  0.45594000000E+02  0.51100000000E-03 0.  1.
    9900012    2    1    2    0    0 -0.53128684533E+01  0.69893722055E+00 -0.40304462161E+02  0.50528871203E+02  0.30000034508E+02 0.  0.
         12    1    1    2    0    0  0.53128684533E+01 -0.69893722055E+00  0.40304462161E+02  0.40659128797E+02  0.00000000000E+00 0. -1.
         11    1    3    3    0    0  0.58314753334E+01  0.91738443984E+01 -0.11485074134E+02  0.15813679323E+02  0.51100000000E-03 0. -1.
        -11    1    3    3    0    0 -0.70840828006E+01  0.23280348954E+01 -0.14667478014E+02  0.16454144984E+02  0.51100000000E-03 0.  1.
         12    1    3    3    0    0 -0.40602609861E+01 -0.10802942073E+02 -0.14151910013E+02  0.18261046896E+02  0.00000000000E+00 0. -1.
</event>
<event>
 7    1  0.5843820E-012  0.5052886E+02  0.7816164E-02  0.1300439E+00
        -11   -1    0    0    0    0  0.00000000000E+00  0.00000000000E+00  0.45593999997E+02  0.45594000000E+02  0.51100000000E-03 0. -1.
         11   -1    0    0    0    0 -0.00000000000E+00 -0.00000000000E+00 -0.45593999997E+02  0.45594000000E+02  0.51100000000E-03 0.  1.
    9900012    2    1    2    0    0  0.16188797757E+02  0.41434592241E+01 -0.37066429593E+02  0.50528860438E+02  0.30000001787E+02 0.  0.
         12    1    1    2    0    0 -0.16188797757E+02 -0.41434592241E+01  0.37066429593E+02  0.40659139562E+02  0.00000000000E+00 0. -1.
         11    1    3    3    0    0 -0.48216150991E+01  0.47617524223E-01 -0.36135972294E+01  0.60256389528E+01  0.51100000000E-03 0. -1.
        -11    1    3    3    0    0 -0.14284813535E+01  0.65378507488E+01 -0.62647623111E+01  0.91668587022E+01  0.51100000000E-03 0.  1.
         12    1    3    3    0    0  0.22438894209E+02 -0.24420090489E+01 -0.27188070053E+02  0.35336362783E+02  0.00000000000E+00 0. -1.
</event>
<event>
 7    1  0.5843820E-012  0.5052890E+02  0.7816164E-02  0.1300439E+00
        -11   -1    0    0    0    0  0.00000000000E+00  0.00000000000E+00  0.45593999997E+02  0.45594000000E+02  0.51100000000E-03 0. -1.
         11   -1    0    0    0    0 -0.00000000000E+00 -0.00000000000E+00 -0.45593999997E+02  0.45594000000E+02  0.51100000000E-03 0.  1.
    9900012    2    1    2    0    0 -0.42884165540E+01  0.28201037511E+02 -0.28973660722E+02  0.50528904476E+02  0.30000135644E+02 0.  0.
         12    1    1    2    0    0  0.42884165540E+01 -0.28201037511E+02  0.28973660722E+02  0.40659095524E+02  0.00000000000E+00 0. -1.
         11    1    3    3    0    0 -0.11895417729E+01  0.72487261716E+01  0.56652022643E+00  0.73674952439E+01  0.51100000000E-03 0. -1.
        -11    1    3    3    0    0 -0.11441583892E+02  0.14647479723E+02 -0.10265993196E+02  0.21233207971E+02  0.51100000000E-03 0.  1.
        -12    1    3    3    0    0  0.83427091109E+01  0.63048316168E+01 -0.19274187752E+02  0.21928201261E+02  0.00000000000E+00 0.  1.
</event>
<event>
 7    1  0.5843820E-012  0.5052885E+02  0.7816164E-02  0.1300439E+00
        -11   -1    0    0    0    0  0.00000000000E+00  0.00000000000E+00  0.45593999997E+02  0.45594000000E+02  0.51100000000E-03 0. -1.
         11   -1    0    0    0    0 -0.00000000000E+00 -0.00000000000E+00 -0.45593999997E+02  0.45594000000E+02  0.51100000000E-03 0.  1.
    9900012    2    1    2    0    0 -0.65805146647E+01  0.47392617887E+01 -0.39842218401E+02  0.50528854132E+02  0.29999982621E+02 0.  0.
         12    1    1    2    0    0  0.65805146647E+01 -0.47392617887E+01  0.39842218401E+02  0.40659145868E+02  0.00000000000E+00 0. -1.
         11    1    3    3    0    0  0.95233244150E+00  0.11152684984E+02 -0.16437306928E+02  0.19886537625E+02  0.51100000000E-03 0. -1.
        -11    1    3    3    0    0  0.35245801287E+01  0.33066302175E+01 -0.39314650027E+01  0.62299988609E+01  0.51100000000E-03 0.  1.
         12    1    3    3    0    0 -0.11057427235E+02 -0.97200534125E+01 -0.19473446471E+02  0.24412317646E+02  0.00000000000E+00 0. -1.
</event>
<event>
 7    1  0.5843820E-012  0.5052886E+02  0.7816164E-02  0.1300439E+00
        -11   -1    0    0    0    0  0.00000000000E+00  0.00000000000E+00  0.45593999997E+02  0.45594000000E+02  0.51100000000E-03 0. -1.
         11   -1    0    0    0    0 -0.00000000000E+00 -0.00000000000E+00 -0.45593999997E+02  0.45594000000E+02  0.51100000000E-03 0.  1.
    9900012    2    1    2    0    0  0.26198822962E+01  0.20461697383E+02 -0.35037419715E+02  0.50528860519E+02  0.30000002033E+02 0.  0.
         12    1    1    2    0    0 -0.26198822962E+01 -0.20461697383E+02  0.35037419715E+02  0.40659139481E+02  0.00000000000E+00 0. -1.
         11    1    3    3    0    0  0.61333523483E+01  0.96599101814E+01 -0.11273166379E+02  0.16062881317E+02  0.51100000000E-03 0.  1.
        -11    1    3    3    0    0  0.30332981872E+01  0.14961034457E+02 -0.88237253504E+01  0.17632117832E+02  0.51100000000E-03 0. -1.
        -12    1    3    3    0    0 -0.65467682392E+01 -0.41592472554E+01 -0.14940527986E+02  0.16833861370E+02  0.00000000000E+00 0.  1.
</event>
<event>
 7    1  0.5843820E-012  0.5052886E+02  0.7816164E-02  0.1300439E+00
        -11   -1    0    0    0    0  0.00000000000E+00  0.00000000000E+00  0.45593999997E+02  0.45594000000E+02  0.51100000000E-03 0.  1.
         11   -1    0    0    0    0 -0.00000000000E+00 -0.00000000000E+00 -0.45593999997E+02  0.45594000000E+02  0.51100000000E-03 0. -1.
    9900012    2    1    2    0    0  0.31963081034E+02 -0.24998603064E+02 -0.25684725702E+01  0.50528858892E+02  0.29999997087E+02 0.  0.
         12    1    1    2    0    0 -0.31963081034E+02  0.24998603064E+02  0.25684725702E+01  0.40659141108E+02  0.00000000000E+00 0. -1.
         11    1    3    3    0    0  0.91943834212E+01 -0.86278017992E+00  0.63747882600E+01  0.11221363632E+02  0.51100000000E-03 0. -1.
        -11    1    3    3    0    0  0.14481646062E+02 -0.13816268822E+02  0.44221296482E+01  0.20497867882E+02  0.51100000000E-03 0.  1.
         12    1    3    3    0    0  0.82870515508E+01 -0.10319554062E+02 -0.13365390478E+02  0.18809627378E+02  0.00000000000E+00 0. -1.
</event>
<event>
 7    1  0.5843820E-012  0.5052886E+02  0.7816164E-02  0.1300439E+00
        -11   -1    0    0    0    0  0.00000000000E+00  0.00000000000E+00  0.45593999997E+02  0.45594000000E+02  0.51100000000E-03 0. -1.
         11   -1    0    0    0    0 -0.00000000000E+00 -0.00000000000E+00 -0.45593999997E+02  0.45594000000E+02  0.51100000000E-03 0.  1.
    9900012    2    1    2    0    0  0.32523583694E+02  0.55841343289E+01 -0.23752889488E+02  0.50528858205E+02  0.29999994998E+02 0.  0.
         12    1    1    2    0    0 -0.32523583694E+02 -0.55841343289E+01  0.23752889488E+02  0.40659141795E+02  0.00000000000E+00 0. -1.
         11    1    3    3    0    0 -0.15747302234E+01 -0.47772307821E+01 -0.22029632436E+01  0.54913346770E+01  0.51100000000E-03 0. -1.
        -11    1    3    3    0    0  0.12105690363E+01 -0.22374549243E+01 -0.60424886464E+01  0.65561689449E+01  0.51100000000E-03 0.  1.
        -12    1    3    3    0    0  0.32887744881E+02  0.12598820035E+02 -0.15507437598E+02  0.38481354583E+02  0.00000000000E+00 0.  1.
</event>
<event>
 7    1  0.5843820E-012  0.5052886E+02  0.7816164E-02  0.1300439E+00
        -11   -1    0    0    0    0  0.00000000000E+00  0.00000000000E+00  0.45593999997E+02  0.45594000000E+02  0.51100000000E-03 0. -1.
         11   -1    0    0    0    0 -0.00000000000E+00 -0.00000000000E+00 -0.45593999997E+02  0.45594000000E+02  0.51100000000E-03 0.  1.
    9900012    2    1    2    0    0 -0.14732677609E+02  0.25288196174E+02 -0.28224474479E+02  0.50528860623E+02  0.30000002350E+02 0.  0.
         12    1    1    2    0    0  0.14732677609E+02 -0.25288196174E+02  0.28224474479E+02  0.40659139377E+02  0.00000000000E+00 0. -1.
         11    1    3    3    0    0  0.43419160795E+01  0.79655195129E+01  0.17943070938E-01  0.90720482013E+01  0.51100000000E-03 0. -1.
        -11    1    3    3    0    0 -0.20177904820E+01  0.19670390584E+01  0.20263951494E+01  0.34708786567E+01  0.51100000000E-03 0.  1.
        -12    1    3    3    0    0 -0.17056803206E+02  0.15355637603E+02 -0.30268812699E+02  0.37985933765E+02  0.00000000000E+00 0.  1.
</event>
<event>
 7    1  0.5843820E-012  0.5052882E+02  0.7816164E-02  0.1300439E+00
        -11   -1    0    0    0    0  0.00000000000E+00  0.00000000000E+00  0.45593999997E+02  0.45594000000E+02  0.51100000000E-03 0. -1.
         11   -1    0    0    0    0 -0.00000000000E+00 -0.00000000000E+00 -0.45593999997E+02  0.45594000000E+02  0.51100000000E-03 0.  1.
    9900012    2    1    2    0    0  0.19030022451E+02 -0.30127969104E+02 -0.19578883298E+02  0.50528819634E+02  0.29999877760E+02 0.  0.
         12    1    1    2    0    0 -0.19030022451E+02  0.30127969104E+02  0.19578883298E+02  0.40659180366E+02  0.00000000000E+00 0. -1.
         11    1    3    3    0    0 -0.27376703687E+01 -0.11297043179E+02 -0.11873263984E+02  0.16616029054E+02  0.51100000000E-03 0. -1.
        -11    1    3    3    0    0 -0.20328093138E+01 -0.38966302871E+01  0.98008010928E+00  0.45029544282E+01  0.51100000000E-03 0.  1.
        -12    1    3    3    0    0  0.23800502133E+02 -0.14934295638E+02 -0.86856994234E+01  0.29409836152E+02  0.00000000000E+00 0.  1.
</event>
<event>
 7    1  0.5843820E-012  0.5052884E+02  0.7816164E-02  0.1300439E+00
        -11   -1    0    0    0    0  0.00000000000E+00  0.00000000000E+00  0.45593999997E+02  0.45594000000E+02  0.51100000000E-03 0. -1.
         11   -1    0    0    0    0 -0.00000000000E+00 -0.00000000000E+00 -0.45593999997E+02  0.45594000000E+02  0.51100000000E-03 0.  1.
    9900012    2    1    2    0    0 -0.32413819305E+02 -0.17291572674E+02 -0.17421627301E+02  0.50528840328E+02  0.29999940660E+02 0.  0.
         12    1    1    2    0    0  0.32413819305E+02  0.17291572674E+02  0.17421627301E+02  0.40659159672E+02  0.00000000000E+00 0. -1.
         11    1    3    3    0    0 -0.24593969758E+02 -0.62232184859E+01 -0.20026648931E+02  0.32321176718E+02  0.51100000000E-03 0. -1.
        -11    1    3    3    0    0 -0.48906556768E+01 -0.39954026997E+01 -0.45068747862E+01  0.77584583701E+01  0.51100000000E-03 0.  1.
         12    1    3    3    0    0 -0.29291938699E+01 -0.70729514889E+01  0.71118964167E+01  0.10449205239E+02  0.00000000000E+00 0. -1.
</event>
<event>
 7    1  0.5843820E-012  0.5052886E+02  0.7816164E-02  0.1300439E+00
        -11   -1    0    0    0    0  0.00000000000E+00  0.00000000000E+00  0.45593999997E+02  0.45594000000E+02  0.51100000000E-03 0. -1.
         11   -1    0    0    0    0 -0.00000000000E+00 -0.00000000000E+00 -0.45593999997E+02  0.45594000000E+02  0.51100000000E-03 0.  1.
    9900012    2    1    2    0    0  0.18445012531E+02 -0.49165975580E+01 -0.35899500455E+02  0.50528861400E+02  0.30000004710E+02 0.  0.
         12    1    1    2    0    0 -0.18445012531E+02  0.49165975580E+01  0.35899500455E+02  0.40659138600E+02  0.00000000000E+00 0. -1.
         11    1    3    3    0    0 -0.56274489345E+01 -0.18449601907E+00 -0.90088501862E+01  0.10623634135E+02  0.51100000000E-03 0.  1.
        -11    1    3    3    0    0  0.42645473877E+01  0.14684873012E+01  0.14852377227E+01  0.47485524878E+01  0.51100000000E-03 0. -1.
         12    1    3    3    0    0  0.19807914078E+02 -0.62005888401E+01 -0.28375887991E+02  0.35156674777E+02  0.00000000000E+00 0. -1.
</event>
<event>
 7    1  0.5843820E-012  0.5052888E+02  0.7816164E-02  0.1300439E+00
        -11   -1    0    0    0    0  0.00000000000E+00  0.00000000000E+00  0.45593999997E+02  0.45594000000E+02  0.51100000000E-03 0. -1.
         11   -1    0    0    0    0 -0.00000000000E+00 -0.00000000000E+00 -0.45593999997E+02  0.45594000000E+02  0.51100000000E-03 0.  1.
    9900012    2    1    2    0    0 -0.13706889125E+02 -0.14401038460E+02 -0.35466823008E+02  0.50528877377E+02  0.30000053274E+02 0.  0.
         12    1    1    2    0    0  0.13706889125E+02  0.14401038460E+02  0.35466823008E+02  0.40659122623E+02  0.00000000000E+00 0. -1.
         11    1    3    3    0    0  0.18418190406E+01 -0.89334642780E+01 -0.78741950316E+00  0.91552777740E+01  0.51100000000E-03 0. -1.
        -11    1    3    3    0    0  0.13830978677E+01  0.21956088662E+01 -0.77292088499E+00  0.27075939431E+01  0.51100000000E-03 0.  1.
        -12    1    3    3    0    0 -0.16931806033E+02 -0.76631830478E+01 -0.33906482620E+02  0.38666005659E+02  0.00000000000E+00 0.  1.
</event>
<event>
 7    1  0.5843820E-012  0.5052885E+02  0.7816164E-02  0.1300439E+00
        -11   -1    0    0    0    0  0.00000000000E+00  0.00000000000E+00  0.45593999997E+02  0.45594000000E+02  0.51100000000E-03 0.  1.
         11   -1    0    0    0    0 -0.00000000000E+00 -0.00000000000E+00 -0.45593999997E+02  0.45594000000E+02  0.51100000000E-03 0. -1.
    9900012    2    1    2    0    0 -0.15646872093E+02 -0.27884314565E+02 -0.25115871213E+02  0.50528848609E+02  0.29999965831E+02 0.  0.
         12    1    1    2    0    0  0.15646872093E+02  0.27884314565E+02  0.25115871213E+02  0.40659151391E+02  0.00000000000E+00 0. -1.
         11    1    3    3    0    0  0.36122961060E+01 -0.81129752772E+01  0.27851581278E+00  0.88851911811E+01  0.51100000000E-03 0. -1.
        -11    1    3    3    0    0  0.23617565492E+01  0.13990313851E+01 -0.20815851089E+01  0.34450224442E+01  0.51100000000E-03 0.  1.
        -12    1    3    3    0    0 -0.21620924748E+02 -0.21170370673E+02 -0.23312801917E+02  0.38198634984E+02  0.00000000000E+00 0.  1.
</event>
<event>
 7    1  0.5843820E-012  0.5052887E+02  0.7816164E-02  0.1300439E+00
        -11   -1    0    0    0    0  0.00000000000E+00  0.00000000000E+00  0.45593999997E+02  0.45594000000E+02  0.51100000000E-03 0. -1.
         11   -1    0    0    0    0 -0.00000000000E+00 -0.00000000000E+00 -0.45593999997E+02  0.45594000000E+02  0.51100000000E-03 0.  1.
    9900012    2    1    2    0    0 -0.25910290110E-01 -0.15070060986E+02  0.37763171259E+02  0.50528874173E+02  0.30000043537E+02 0.  0.
        -12    1    1    2    0    0  0.25910290110E-01  0.15070060986E+02 -0.37763171259E+02  0.40659125827E+02  0.00000000000E+00 0.  1.
         11    1    3    3    0    0  0.52209141365E+01 -0.52452276914E+01  0.23859575787E+02  0.24980987069E+02  0.51100000000E-03 0. -1.
        -11    1    3    3    0    0  0.45246646616E+01 -0.65637850336E+01  0.12943912534E+02  0.15201997770E+02  0.51100000000E-03 0.  1.
        -12    1    3    3    0    0 -0.97714890883E+01 -0.32610482605E+01  0.95968293841E+00  0.10345889334E+02  0.00000000000E+00 0.  1.
</event>
<event>
 7    1  0.5843820E-012  0.5052886E+02  0.7816164E-02  0.1300439E+00
        -11   -1    0    0    0    0  0.00000000000E+00  0.00000000000E+00  0.45593999997E+02  0.45594000000E+02  0.51100000000E-03 0. -1.
         11   -1    0    0    0    0 -0.00000000000E+00 -0.00000000000E+00 -0.45593999997E+02  0.45594000000E+02  0.51100000000E-03 0.  1.
    9900012    2    1    2    0    0  0.12969914871E+01 -0.38568641644E+02  0.12804032869E+02  0.50528861262E+02  0.30000004293E+02 0.  0.
        -12    1    1    2    0    0 -0.12969914871E+01  0.38568641644E+02 -0.12804032869E+02  0.40659138738E+02  0.00000000000E+00 0.  1.
         11    1    3    3    0    0  0.48465064363E+01 -0.20400988066E+02  0.64413642704E+01  0.21935818030E+02  0.51100000000E-03 0. -1.
        -11    1    3    3    0    0  0.83837582399E+01 -0.11409730613E+02  0.30070333514E+01  0.14474515699E+02  0.51100000000E-03 0.  1.
         12    1    3    3    0    0 -0.11933273189E+02 -0.67579229649E+01  0.33556352473E+01  0.14118527534E+02  0.00000000000E+00 0. -1.
</event>
<event>
 7    1  0.5843820E-012  0.5052886E+02  0.7816164E-02  0.1300439E+00
        -11   -1    0    0    0    0  0.00000000000E+00  0.00000000000E+00  0.45593999997E+02  0.45594000000E+02  0.51100000000E-03 0. -1.
         11   -1    0    0    0    0 -0.00000000000E+00 -0.00000000000E+00 -0.45593999997E+02  0.45594000000E+02  0.51100000000E-03 0.  1.
    9900012    2    1    2    0    0 -0.18515980754E+02  0.26733898576E+02 -0.24405376485E+02  0.50528864769E+02  0.30000014952E+02 0.  0.
         12    1    1    2    0    0  0.18515980754E+02 -0.26733898576E+02  0.24405376485E+02  0.40659135231E+02  0.00000000000E+00 0. -1.
         11    1    3    3    0    0 -0.22618948757E+01  0.89912539877E+01 -0.54742815846E+01  0.10766920443E+02  0.51100000000E-03 0. -1.
        -11    1    3    3    0    0 -0.20614207211E+02  0.20079766658E+02 -0.11845022240E+02  0.31119883034E+02  0.51100000000E-03 0.  1.
         12    1    3    3    0    0  0.43601213326E+01 -0.23371220698E+01 -0.70860726612E+01  0.86420612914E+01  0.00000000000E+00 0. -1.
</event>
<event>
 7    1  0.5843820E-012  0.5052882E+02  0.7816164E-02  0.1300439E+00
        -11   -1    0    0    0    0  0.00000000000E+00  0.00000000000E+00  0.45593999997E+02  0.45594000000E+02  0.51100000000E-03 0. -1.
         11   -1    0    0    0    0 -0.00000000000E+00 -0.00000000000E+00 -0.45593999997E+02  0.45594000000E+02  0.51100000000E-03 0.  1.
    9900012    2    1    2    0    0  0.18420081063E+02 -0.67337906999E+00 -0.36241082280E+02  0.50528820587E+02  0.29999880655E+02 0.  0.
         12    1    1    2    0    0 -0.18420081063E+02  0.67337906999E+00  0.36241082280E+02  0.40659179413E+02  0.00000000000E+00 0. -1.
         11    1    3    3    0    0 -0.17403598328E+01 -0.69263039868E+01 -0.28785884644E+01  0.76999227966E+01  0.51100000000E-03 0. -1.
        -11    1    3    3    0    0 -0.24850491416E+01 -0.91546071615E-01 -0.73609611706E+01  0.77696589073E+01  0.51100000000E-03 0.  1.
        -12    1    3    3    0    0  0.22645490038E+02  0.63444709884E+01 -0.26001532645E+02  0.35059238883E+02  0.00000000000E+00 0.  1.
</event>
<event>
 7    1  0.5843820E-012  0.5052886E+02  0.7816164E-02  0.1300439E+00
        -11   -1    0    0    0    0  0.00000000000E+00  0.00000000000E+00  0.45593999997E+02  0.45594000000E+02  0.51100000000E-03 0. -1.
         11   -1    0    0    0    0 -0.00000000000E+00 -0.00000000000E+00 -0.45593999997E+02  0.45594000000E+02  0.51100000000E-03 0.  1.
    9900012    2    1    2    0    0 -0.32236950157E+02 -0.24750335202E+02  0.11686771685E+01  0.50528857678E+02  0.29999993399E+02 0.  0.
        -12    1    1    2    0    0  0.32236950157E+02  0.24750335202E+02 -0.11686771685E+01  0.40659142322E+02  0.00000000000E+00 0.  1.
         11    1    3    3    0    0 -0.10950698034E+02 -0.10526553363E+02 -0.63095010686E+01  0.16447976080E+02  0.51100000000E-03 0. -1.
        -11    1    3    3    0    0 -0.19669012977E+02 -0.28121566777E+01 -0.80849919926E+00  0.19885471276E+02  0.51100000000E-03 0.  1.
        -12    1    3    3    0    0 -0.16172391459E+01 -0.11411625161E+02  0.82866774363E+01  0.14195410322E+02  0.00000000000E+00 0.  1.
</event>
<event>
 7    1  0.5843820E-012  0.5052889E+02  0.7816164E-02  0.1300439E+00
        -11   -1    0    0    0    0  0.00000000000E+00  0.00000000000E+00  0.45593999997E+02  0.45594000000E+02  0.51100000000E-03 0. -1.
         11   -1    0    0    0    0 -0.00000000000E+00 -0.00000000000E+00 -0.45593999997E+02  0.45594000000E+02  0.51100000000E-03 0.  1.
    9900012    2    1    2    0    0 -0.42424442305E+01  0.18657882690E+02  0.35875460651E+02  0.50528885445E+02  0.30000077797E+02 0.  0.
        -12    1    1    2    0    0  0.42424442305E+01 -0.18657882690E+02 -0.35875460651E+02  0.40659114555E+02  0.00000000000E+00 0.  1.
         11    1    3    3    0    0 -0.11945570172E+02  0.10157713645E+02  0.27117821995E+02  0.31324943148E+02  0.51100000000E-03 0. -1.
        -11    1    3    3    0    0 -0.13035787231E+01  0.43030875100E+01  0.80769071504E+01  0.92440418099E+01  0.51100000000E-03 0.  1.
        -12    1    3    3    0    0  0.90067046643E+01  0.41970815353E+01  0.68073150555E+00  0.99599004868E+01  0.00000000000E+00 0.  1.
</event>
<event>
 7    1  0.5843820E-012  0.5052886E+02  0.7816164E-02  0.1300439E+00
        -11   -1    0    0    0    0  0.00000000000E+00  0.00000000000E+00  0.45593999997E+02  0.45594000000E+02  0.51100000000E-03 0. -1.
         11   -1    0    0    0    0 -0.00000000000E+00 -0.00000000000E+00 -0.45593999997E+02  0.45594000000E+02  0.51100000000E-03 0.  1.
    9900012    2    1    2    0    0 -0.14203539570E+01 -0.31600734876E+02  0.25544898733E+02  0.50528859560E+02  0.29999999118E+02 0.  0.
        -12    1    1    2    0    0  0.14203539570E+01  0.31600734876E+02 -0.25544898733E+02  0.40659140440E+02  0.00000000000E+00 0.  1.
         11    1    3    3    0    0 -0.15207199753E+00 -0.11044720504E+02  0.66704281475E+01  0.12903626965E+02  0.51100000000E-03 0. -1.
        -11    1    3    3    0    0 -0.14231547820E+01 -0.22912095340E+02  0.49266342202E+01  0.23478952435E+02  0.51100000000E-03 0.  1.
        -12    1    3    3    0    0  0.15487282257E+00  0.23560809686E+01  0.13947836365E+02  0.14146280161E+02  0.00000000000E+00 0.  1.
</event>
<event>
 7    1  0.5843820E-012  0.5052886E+02  0.7816164E-02  0.1300439E+00
        -11   -1    0    0    0    0  0.00000000000E+00  0.00000000000E+00  0.45593999997E+02  0.45594000000E+02  0.51100000000E-03 0. -1.
         11   -1    0    0    0    0 -0.00000000000E+00 -0.00000000000E+00 -0.45593999997E+02  0.45594000000E+02  0.51100000000E-03 0.  1.
    9900012    2    1    2    0    0  0.29392888357E+01  0.33428623265E+02  0.22957651563E+02  0.50528855425E+02  0.29999986551E+02 0.  0.
        -12    1    1    2    0    0 -0.29392888357E+01 -0.33428623265E+02 -0.22957651563E+02  0.40659144575E+02  0.00000000000E+00 0.  1.
         11    1    3    3    0    0 -0.14916273556E+01  0.20112027935E+02  0.19213507561E+02  0.27854577593E+02  0.51100000000E-03 0.  1.
        -11    1    3    3    0    0  0.12290015000E+01  0.13308188496E+02  0.92858409557E+01  0.16274064282E+02  0.51100000000E-03 0. -1.
        -12    1    3    3    0    0  0.32019146913E+01  0.84068342522E-02 -0.55416969541E+01  0.64002135508E+01  0.00000000000E+00 0.  1.
</event>
<event>
 7    1  0.5843820E-012  0.5052886E+02  0.7816164E-02  0.1300439E+00
        -11   -1    0    0    0    0  0.00000000000E+00  0.00000000000E+00  0.45593999997E+02  0.45594000000E+02  0.51100000000E-03 0. -1.
         11   -1    0    0    0    0 -0.00000000000E+00 -0.00000000000E+00 -0.45593999997E+02  0.45594000000E+02  0.51100000000E-03 0.  1.
    9900012    2    1    2    0    0  0.29003017457E+02 -0.19498492997E+02  0.20779776943E+02  0.50528863504E+02  0.30000011108E+02 0.  0.
        -12    1    1    2    0    0 -0.29003017457E+02  0.19498492997E+02 -0.20779776943E+02  0.40659136496E+02  0.00000000000E+00 0.  1.
         11    1    3    3    0    0 -0.13579966591E+01 -0.48245144160E+01 -0.23463872733E+01  0.55340426249E+01  0.51100000000E-03 0. -1.
        -11    1    3    3    0    0  0.53397437862E+01 -0.62301699038E+00 -0.30260893519E+01  0.61691353446E+01  0.51100000000E-03 0.  1.
         12    1    3    3    0    0  0.25021270330E+02 -0.14050961591E+02  0.26152253569E+02  0.38825685535E+02  0.00000000000E+00 0. -1.
</event>
<event>
 7    1  0.5843820E-012  0.5052887E+02  0.7816164E-02  0.1300439E+00
        -11   -1    0    0    0    0  0.00000000000E+00  0.00000000000E+00  0.45593999997E+02  0.45594000000E+02  0.51100000000E-03 0. -1.
         11   -1    0    0    0    0 -0.00000000000E+00 -0.00000000000E+00 -0.45593999997E+02  0.45594000000E+02  0.51100000000E-03 0.  1.
    9900012    2    1    2    0    0 -0.10379533283E+01  0.19421173112E+02 -0.35705820306E+02  0.50528869219E+02  0.30000028478E+02 0.  0.
         12    1    1    2    0    0  0.10379533283E+01 -0.19421173112E+02  0.35705820306E+02  0.40659130781E+02  0.00000000000E+00 0. -1.
         11    1    3    3    0    0  0.23135692574E+01 -0.62615300276E+00 -0.16652140440E+01  0.29184941948E+01  0.51100000000E-03 0. -1.
        -11    1    3    3    0    0  0.71921012157E+01  0.78253302721E+01 -0.80060384604E+00  0.10658474588E+02  0.51100000000E-03 0.  1.
        -12    1    3    3    0    0 -0.10543623801E+02  0.12221995843E+02 -0.33240002416E+02  0.36951900436E+02  0.00000000000E+00 0.  1.
</event>
<event>
 7    1  0.5843820E-012  0.5052888E+02  0.7816164E-02  0.1300439E+00
        -11   -1    0    0    0    0  0.00000000000E+00  0.00000000000E+00  0.45593999997E+02  0.45594000000E+02  0.51100000000E-03 0. -1.
         11   -1    0    0    0    0 -0.00000000000E+00 -0.00000000000E+00 -0.45593999997E+02  0.45594000000E+02  0.51100000000E-03 0.  1.
    9900012    2    1    2    0    0  0.13074029675E+02  0.24031387362E+02 -0.30078669671E+02  0.50528878027E+02  0.30000055250E+02 0.  0.
         12    1    1    2    0    0 -0.13074029675E+02 -0.24031387362E+02  0.30078669671E+02  0.40659121973E+02  0.00000000000E+00 0. -1.
         11    1    3    3    0    0  0.58152893638E+01  0.19369422023E+02 -0.90224597518E+01  0.22144906415E+02  0.51100000000E-03 0.  1.
        -11    1    3    3    0    0  0.12264815349E+02  0.38092939717E+01 -0.10206110103E+02  0.16404301259E+02  0.51100000000E-03 0. -1.
         12    1    3    3    0    0 -0.50060750381E+01  0.85267136741E+00 -0.10850099816E+02  0.11979670353E+02  0.00000000000E+00 0. -1.
</event>
<event>
 7    1  0.5843820E-012  0.5052886E+02  0.7816164E-02  0.1300439E+00
        -11   -1    0    0    0    0  0.00000000000E+00  0.00000000000E+00  0.45593999997E+02  0.45594000000E+02  0.51100000000E-03 0. -1.
         11   -1    0    0    0    0 -0.00000000000E+00 -0.00000000000E+00 -0.45593999997E+02  0.45594000000E+02  0.51100000000E-03 0.  1.
    9900012    2    1    2    0    0 -0.18541574270E+02  0.19944554812E+02  0.30192556618E+02  0.50528859352E+02  0.29999998488E+02 0.  0.
        -12    1    1    2    0    0  0.18541574270E+02 -0.19944554812E+02 -0.30192556618E+02  0.40659140648E+02  0.00000000000E+00 0.  1.
         11    1    3    3    0    0 -0.34730393106E+01  0.16569973464E+02  0.26999281776E+02  0.31868279517E+02  0.51100000000E-03 0. -1.
        -11    1    3    3    0    0  0.53425353940E+00  0.25881103674E+01 -0.27712272470E+00  0.26571675491E+01  0.51100000000E-03 0.  1.
        -12    1    3    3    0    0 -0.15602788499E+02  0.78647097995E+00  0.34703975667E+01  0.16003412287E+02  0.00000000000E+00 0.  1.
</event>
<event>
 7    1  0.5843820E-012  0.5052886E+02  0.7816164E-02  0.1300439E+00
        -11   -1    0    0    0    0  0.00000000000E+00  0.00000000000E+00  0.45593999997E+02  0.45594000000E+02  0.51100000000E-03 0. -1.
         11   -1    0    0    0    0 -0.00000000000E+00 -0.00000000000E+00 -0.45593999997E+02  0.45594000000E+02  0.51100000000E-03 0.  1.
    9900012    2    1    2    0    0 -0.18511321353E+02 -0.49888780730E+01 -0.35855374924E+02  0.50528857933E+02  0.29999994175E+02 0.  0.
         12    1    1    2    0    0  0.18511321353E+02  0.49888780730E+01  0.35855374924E+02  0.40659142067E+02  0.00000000000E+00 0. -1.
         11    1    3    3    0    0 -0.10333745350E+02  0.28233974080E+01 -0.13752258251E+02  0.17432225135E+02  0.51100000000E-03 0. -1.
        -11    1    3    3    0    0 -0.12106170052E+02  0.65363316478E+00 -0.20219040653E+02  0.23575330217E+02  0.51100000000E-03 0.  1.
         12    1    3    3    0    0  0.39285940495E+01 -0.84659086457E+01 -0.18840760197E+01  0.95213025817E+01  0.00000000000E+00 0. -1.
</event>
<event>
 7    1  0.5843820E-012  0.5052892E+02  0.7816164E-02  0.1300439E+00
        -11   -1    0    0    0    0  0.00000000000E+00  0.00000000000E+00  0.45593999997E+02  0.45594000000E+02  0.51100000000E-03 0. -1.
         11   -1    0    0    0    0 -0.00000000000E+00 -0.00000000000E+00 -0.45593999997E+02  0.45594000000E+02  0.51100000000E-03 0.  1.
    9900012    2    1    2    0    0  0.22094749840E+02  0.20070263574E+02  0.27607372821E+02  0.50528923714E+02  0.30000194119E+02 0.  0.
        -12    1    1    2    0    0 -0.22094749840E+02 -0.20070263574E+02 -0.27607372821E+02  0.40659076286E+02  0.00000000000E+00 0.  1.
         11    1    3    3    0    0 -0.29608157847E+01  0.15284124668E+02  0.10333561605E+02  0.18685646702E+02  0.51100000000E-03 0. -1.
        -11    1    3    3    0    0  0.13433733328E+02  0.43761826708E+01  0.13693436817E+02  0.19675527389E+02  0.51100000000E-03 0.  1.
        -12    1    3    3    0    0  0.11621832297E+02  0.40995623478E+00  0.35803743988E+01  0.12167749623E+02  0.00000000000E+00 0.  1.
</event>
<event>
 7    1  0.5843820E-012  0.5052886E+02  0.7816164E-02  0.1300439E+00
        -11   -1    0    0    0    0  0.00000000000E+00  0.00000000000E+00  0.45593999997E+02  0.45594000000E+02  0.51100000000E-03 0. -1.
         11   -1    0    0    0    0 -0.00000000000E+00 -0.00000000000E+00 -0.45593999997E+02  0.45594000000E+02  0.51100000000E-03 0.  1.
    9900012    2    1    2    0    0  0.10484189270E+02 -0.57251807763E+01  0.38864757190E+02  0.50528864851E+02  0.30000015202E+02 0.  0.
        -12    1    1    2    0    0 -0.10484189270E+02  0.57251807763E+01 -0.38864757190E+02  0.40659135149E+02  0.00000000000E+00 0.  1.
         11    1    3    3    0    0 -0.55186898776E+01  0.32371118712E+01  0.61352107909E+01  0.88642903237E+01  0.51100000000E-03 0. -1.
        -11    1    3    3    0    0 -0.23713253236E+01 -0.45006835802E+01  0.17673150332E+01  0.53854191264E+01  0.51100000000E-03 0.  1.
         12    1    3    3    0    0  0.18374204472E+02 -0.44616090673E+01  0.30962231366E+02  0.36279155401E+02  0.00000000000E+00 0. -1.
</event>
<event>
 7    1  0.5843820E-012  0.5052884E+02  0.7816164E-02  0.1300439E+00
        -11   -1    0    0    0    0  0.00000000000E+00  0.00000000000E+00  0.45593999997E+02  0.45594000000E+02  0.51100000000E-03 0. -1.
         11   -1    0    0    0    0 -0.00000000000E+00 -0.00000000000E+00 -0.45593999997E+02  0.45594000000E+02  0.51100000000E-03 0.  1.
    9900012    2    1    2    0    0 -0.31387231307E+02  0.18716481300E+02  0.17824213767E+02  0.50528836730E+02  0.29999929726E+02 0.  0.
        -12    1    1    2    0    0  0.31387231307E+02 -0.18716481300E+02 -0.17824213767E+02  0.40659163270E+02  0.00000000000E+00 0.  1.
         11    1    3    3    0    0 -0.38622031683E+01  0.10239967167E+02  0.10951902330E+02  0.15482819698E+02  0.51100000000E-03 0. -1.
        -11    1    3    3    0    0 -0.70725132599E+01 -0.59979130055E+01  0.25720726238E+01  0.96234589456E+01  0.51100000000E-03 0.  1.
        -12    1    3    3    0    0 -0.20452514879E+02  0.14474427138E+02  0.43002388140E+01  0.25422558087E+02  0.00000000000E+00 0.  1.
</event>
<event>
 7    1  0.5843820E-012  0.5052885E+02  0.7816164E-02  0.1300439E+00
        -11   -1    0    0    0    0  0.00000000000E+00  0.00000000000E+00  0.45593999997E+02  0.45594000000E+02  0.51100000000E-03 0. -1.
         11   -1    0    0    0    0 -0.00000000000E+00 -0.00000000000E+00 -0.45593999997E+02  0.45594000000E+02  0.51100000000E-03 0.  1.
    9900012    2    1    2    0    0  0.31100986368E+02 -0.10174003183E+02 -0.24132647024E+02  0.50528851629E+02  0.29999975013E+02 0.  0.
         12    1    1    2    0    0 -0.31100986368E+02  0.10174003183E+02  0.24132647024E+02  0.40659148371E+02  0.00000000000E+00 0. -1.
         11    1    3    3    0    0  0.35213238205E+01  0.68172300512E+00 -0.64551906584E+01  0.73847108543E+01  0.51100000000E-03 0. -1.
        -11    1    3    3    0    0  0.21905450583E+02  0.25419540403E+01 -0.18188388500E+02  0.28585446858E+02  0.51100000000E-03 0.  1.
         12    1    3    3    0    0  0.56742119640E+01 -0.13397680229E+02  0.51093213404E+00  0.14558693917E+02  0.00000000000E+00 0. -1.
</event>
<event>
 7    1  0.5843820E-012  0.5052886E+02  0.7816164E-02  0.1300439E+00
        -11   -1    0    0    0    0  0.00000000000E+00  0.00000000000E+00  0.45593999997E+02  0.45594000000E+02  0.51100000000E-03 0. -1.
         11   -1    0    0    0    0 -0.00000000000E+00 -0.00000000000E+00 -0.45593999997E+02  0.45594000000E+02  0.51100000000E-03 0.  1.
    9900012    2    1    2    0    0 -0.38624478191E+02  0.41799443435E+01 -0.11993478510E+02  0.50528858629E+02  0.29999996288E+02 0.  0.
         12    1    1    2    0    0  0.38624478191E+02 -0.41799443435E+01  0.11993478510E+02  0.40659141371E+02  0.00000000000E+00 0. -1.
         11    1    3    3    0    0 -0.49734508314E+01 -0.44731517145E+01  0.44813716420E+01  0.80515210668E+01  0.51100000000E-03 0. -1.
        -11    1    3    3    0    0 -0.14331671343E+02 -0.52031950393E+01 -0.81414771482E+01  0.17284492833E+02  0.51100000000E-03 0.  1.
        -12    1    3    3    0    0 -0.19319356017E+02  0.13856291097E+02 -0.83333730042E+01  0.25192844729E+02  0.00000000000E+00 0.  1.
</event>
<event>
 7    1  0.5843820E-012  0.5052885E+02  0.7816164E-02  0.1300439E+00
        -11   -1    0    0    0    0  0.00000000000E+00  0.00000000000E+00  0.45593999997E+02  0.45594000000E+02  0.51100000000E-03 0.  1.
         11   -1    0    0    0    0 -0.00000000000E+00 -0.00000000000E+00 -0.45593999997E+02  0.45594000000E+02  0.51100000000E-03 0. -1.
    9900012    2    1    2    0    0  0.10751803772E+02  0.36994679046E+02  0.12998429419E+02  0.50528846917E+02  0.29999960689E+02 0.  0.
        -12    1    1    2    0    0 -0.10751803772E+02 -0.36994679046E+02 -0.12998429419E+02  0.40659153083E+02  0.00000000000E+00 0.  1.
         11    1    3    3    0    0 -0.19868654620E+01 -0.63312221578E+00  0.22487608504E+01  0.30668230675E+01  0.51100000000E-03 0. -1.
        -11    1    3    3    0    0 -0.57219690370E+01  0.28446911548E+01 -0.76226955164E+00  0.64353906297E+01  0.51100000000E-03 0.  1.
         12    1    3    3    0    0  0.18460638271E+02  0.34783110107E+02  0.11511938120E+02  0.41026633220E+02  0.00000000000E+00 0. -1.
</event>
<event>
 7    1  0.5843820E-012  0.5052886E+02  0.7816164E-02  0.1300439E+00
        -11   -1    0    0    0    0  0.00000000000E+00  0.00000000000E+00  0.45593999997E+02  0.45594000000E+02  0.51100000000E-03 0. -1.
         11   -1    0    0    0    0 -0.00000000000E+00 -0.00000000000E+00 -0.45593999997E+02  0.45594000000E+02  0.51100000000E-03 0.  1.
    9900012    2    1    2    0    0  0.15709854434E+02 -0.98944760558E+01 -0.36172713906E+02  0.50528863093E+02  0.30000009856E+02 0.  0.
         12    1    1    2    0    0 -0.15709854434E+02  0.98944760558E+01  0.36172713906E+02  0.40659136907E+02  0.00000000000E+00 0. -1.
         11    1    3    3    0    0  0.74617999348E+00 -0.99423652713E+01 -0.19427135145E+01  0.10157831847E+02  0.51100000000E-03 0. -1.
        -11    1    3    3    0    0  0.14808274889E+02  0.52536905146E+00 -0.14828225168E+02  0.20962759354E+02  0.51100000000E-03 0.  1.
         12    1    3    3    0    0  0.15539955156E+00 -0.47747983594E+00 -0.19401775223E+02  0.19408271892E+02  0.00000000000E+00 0. -1.
</event>
<event>
 7    1  0.5843820E-012  0.5052887E+02  0.7816164E-02  0.1300439E+00
        -11   -1    0    0    0    0  0.00000000000E+00  0.00000000000E+00  0.45593999997E+02  0.45594000000E+02  0.51100000000E-03 0. -1.
         11   -1    0    0    0    0 -0.00000000000E+00 -0.00000000000E+00 -0.45593999997E+02  0.45594000000E+02  0.51100000000E-03 0.  1.
    9900012    2    1    2    0    0 -0.18900248228E+02  0.20889364382E+02 -0.29318596706E+02  0.50528867690E+02  0.30000023832E+02 0.  0.
         12    1    1    2    0    0  0.18900248228E+02 -0.20889364382E+02  0.29318596706E+02  0.40659132310E+02  0.00000000000E+00 0. -1.
         11    1    3    3    0    0 -0.14652870825E+01 -0.11010855503E+01  0.24225538866E+01  0.30377990746E+01  0.51100000000E-03 0. -1.
        -11    1    3    3    0    0 -0.12311528651E+02  0.55086918315E+01 -0.27714563519E+01  0.13769545889E+02  0.51100000000E-03 0.  1.
         12    1    3    3    0    0 -0.51234324943E+01  0.16481758101E+02 -0.28969694241E+02  0.33721522727E+02  0.00000000000E+00 0. -1.
</event>
<event>
 7    1  0.5843820E-012  0.5052889E+02  0.7816164E-02  0.1300439E+00
        -11   -1    0    0    0    0  0.00000000000E+00  0.00000000000E+00  0.45593999997E+02  0.45594000000E+02  0.51100000000E-03 0. -1.
         11   -1    0    0    0    0 -0.00000000000E+00 -0.00000000000E+00 -0.45593999997E+02  0.45594000000E+02  0.51100000000E-03 0.  1.
    9900012    2    1    2    0    0 -0.16345349329E+02  0.12254272651E+02  0.35154312987E+02  0.50528888297E+02  0.30000086468E+02 0.  0.
        -12    1    1    2    0    0  0.16345349329E+02 -0.12254272651E+02 -0.35154312987E+02  0.40659111703E+02  0.00000000000E+00 0.  1.
         11    1    3    3    0    0 -0.54332580912E+01 -0.31977357220E+01  0.28468867109E+01  0.69174107467E+01  0.51100000000E-03 0. -1.
        -11    1    3    3    0    0 -0.13351520671E+02  0.95427086515E+00  0.21648442912E+02  0.25452481567E+02  0.51100000000E-03 0.  1.
         12    1    3    3    0    0  0.24394294332E+01  0.14497737508E+02  0.10658983364E+02  0.18158995984E+02  0.00000000000E+00 0. -1.
</event>
<event>
 7    1  0.5843820E-012  0.5052886E+02  0.7816164E-02  0.1300439E+00
        -11   -1    0    0    0    0  0.00000000000E+00  0.00000000000E+00  0.45593999997E+02  0.45594000000E+02  0.51100000000E-03 0. -1.
         11   -1    0    0    0    0 -0.00000000000E+00 -0.00000000000E+00 -0.45593999997E+02  0.45594000000E+02  0.51100000000E-03 0.  1.
    9900012    2    1    2    0    0  0.15228811030E+02 -0.21784550517E+02  0.30768204584E+02  0.50528859085E+02  0.29999997674E+02 0.  0.
        -12    1    1    2    0    0 -0.15228811030E+02  0.21784550517E+02 -0.30768204584E+02  0.40659140915E+02  0.00000000000E+00 0.  1.
         11    1    3    3    0    0  0.11810923780E+02 -0.19544846813E+02  0.28061748994E+02  0.36179562108E+02  0.51100000000E-03 0. -1.
        -11    1    3    3    0    0  0.41923294309E+01 -0.20214322004E+01  0.78592924345E+01  0.91340183945E+01  0.51100000000E-03 0.  1.
        -12    1    3    3    0    0 -0.77444218084E+00 -0.21827150348E+00 -0.51528368445E+01  0.52152785819E+01  0.00000000000E+00 0.  1.
</event>
<event>
 7    1  0.5843820E-012  0.5052886E+02  0.7816164E-02  0.1300439E+00
        -11   -1    0    0    0    0  0.00000000000E+00  0.00000000000E+00  0.45593999997E+02  0.45594000000E+02  0.51100000000E-03 0. -1.
         11   -1    0    0    0    0 -0.00000000000E+00 -0.00000000000E+00 -0.45593999997E+02  0.45594000000E+02  0.51100000000E-03 0.  1.
    9900012    2    1    2    0    0 -0.91022417933E+01 -0.32911262244E+02  0.22071783311E+02  0.50528860724E+02  0.30000002656E+02 0.  0.
        -12    1    1    2    0    0  0.91022417933E+01  0.32911262244E+02 -0.22071783311E+02  0.40659139276E+02  0.00000000000E+00 0.  1.
         11    1    3    3    0    0 -0.80664227234E+01 -0.13870574304E+02  0.23625091675E+02  0.28558798364E+02  0.51100000000E-03 0. -1.
        -11    1    3    3    0    0  0.14851513271E+01 -0.17864059057E+01  0.31457001839E+01  0.39105434958E+01  0.51100000000E-03 0.  1.
        -12    1    3    3    0    0 -0.25209703971E+01 -0.17254282034E+02 -0.46990085485E+01  0.18059518864E+02  0.00000000000E+00 0.  1.
</event>
<event>
 7    1  0.5843820E-012  0.5052886E+02  0.7816164E-02  0.1300439E+00
        -11   -1    0    0    0    0  0.00000000000E+00  0.00000000000E+00  0.45593999997E+02  0.45594000000E+02  0.51100000000E-03 0. -1.
         11   -1    0    0    0    0 -0.00000000000E+00 -0.00000000000E+00 -0.45593999997E+02  0.45594000000E+02  0.51100000000E-03 0.  1.
    9900012    2    1    2    0    0  0.12668765614E+02 -0.37733557880E+02 -0.82973980636E+01  0.50528858014E+02  0.29999994419E+02 0.  0.
         12    1    1    2    0    0 -0.12668765614E+02  0.37733557880E+02  0.82973980636E+01  0.40659141986E+02  0.00000000000E+00 0. -1.
         11    1    3    3    0    0  0.12147896236E+02 -0.59263774820E+01 -0.97739255333E+01  0.16680016595E+02  0.51100000000E-03 0. -1.
        -11    1    3    3    0    0 -0.15127375029E+01 -0.27827640551E+01 -0.30572534300E+01  0.44021528069E+01  0.51100000000E-03 0.  1.
        -12    1    3    3    0    0  0.20336068811E+01 -0.29024416342E+02  0.45337808997E+01  0.29446688612E+02  0.00000000000E+00 0.  1.
</event>
<event>
 7    1  0.5843820E-012  0.5052877E+02  0.7816164E-02  0.1300439E+00
        -11   -1    0    0    0    0  0.00000000000E+00  0.00000000000E+00  0.45593999997E+02  0.45594000000E+02  0.51100000000E-03 0. -1.
         11   -1    0    0    0    0 -0.00000000000E+00 -0.00000000000E+00 -0.45593999997E+02  0.45594000000E+02  0.51100000000E-03 0.  1.
    9900012    2    1    2    0    0  0.20890483580E+02  0.19962147876E+02  0.28605476250E+02  0.50528770746E+02  0.29999729158E+02 0.  0.
        -12    1    1    2    0    0 -0.20890483580E+02 -0.19962147876E+02 -0.28605476250E+02  0.40659229254E+02  0.00000000000E+00 0.  1.
         11    1    3    3    0    0  0.53332973863E+00  0.38177083455E+01 -0.28926302399E+01  0.48194032397E+01  0.51100000000E-03 0.  1.
        -11    1    3    3    0    0  0.87418385541E+01  0.81812503880E+01  0.29042904020E+02  0.31414055348E+02  0.51100000000E-03 0. -1.
         12    1    3    3    0    0  0.11615315287E+02  0.79631891429E+01  0.24552024701E+01  0.14295312159E+02  0.00000000000E+00 0. -1.
</event>
<event>
 7    1  0.5843820E-012  0.5052886E+02  0.7816164E-02  0.1300439E+00
        -11   -1    0    0    0    0  0.00000000000E+00  0.00000000000E+00  0.45593999997E+02  0.45594000000E+02  0.51100000000E-03 0. -1.
         11   -1    0    0    0    0 -0.00000000000E+00 -0.00000000000E+00 -0.45593999997E+02  0.45594000000E+02  0.51100000000E-03 0.  1.
    9900012    2    1    2    0    0  0.27091905201E+02  0.28429049817E+02  0.10534850300E+02  0.50528864843E+02  0.30000015177E+02 0.  0.
        -12    1    1    2    0    0 -0.27091905201E+02 -0.28429049817E+02 -0.10534850300E+02  0.40659135157E+02  0.00000000000E+00 0.  1.
         11    1    3    3    0    0  0.15098790283E+02  0.83343207332E+01  0.43662407599E+01  0.17790402714E+02  0.51100000000E-03 0. -1.
        -11    1    3    3    0    0  0.15525175598E+02  0.45034475936E+01  0.31978780952E+01  0.16478426567E+02  0.51100000000E-03 0.  1.
        -12    1    3    3    0    0 -0.35320606802E+01  0.15591281490E+02  0.29707314450E+01  0.16260035561E+02  0.00000000000E+00 0.  1.
</event>
<event>
 7    1  0.5843820E-012  0.5052886E+02  0.7816164E-02  0.1300439E+00
        -11   -1    0    0    0    0  0.00000000000E+00  0.00000000000E+00  0.45593999997E+02  0.45594000000E+02  0.51100000000E-03 0. -1.
         11   -1    0    0    0    0 -0.00000000000E+00 -0.00000000000E+00 -0.45593999997E+02  0.45594000000E+02  0.51100000000E-03 0.  1.
    9900012    2    1    2    0    0 -0.14212153173E+02  0.85039541674E+01  0.37133050100E+02  0.50528856576E+02  0.29999990048E+02 0.  0.
        -12    1    1    2    0    0  0.14212153173E+02 -0.85039541674E+01 -0.37133050100E+02  0.40659143424E+02  0.00000000000E+00 0.  1.
         11    1    3    3    0    0 -0.13098479160E+02  0.63538038813E+01  0.14035576347E+02  0.20222224995E+02  0.51100000000E-03 0. -1.
        -11    1    3    3    0    0 -0.69775854227E+01  0.39648746741E+01  0.19122627856E+01  0.82500714382E+01  0.51100000000E-03 0.  1.
        -12    1    3    3    0    0  0.58639114106E+01 -0.18147243880E+01  0.21185210967E+02  0.22056560143E+02  0.00000000000E+00 0.  1.
</event>
<event>
 7    1  0.5843820E-012  0.5052886E+02  0.7816164E-02  0.1300439E+00
        -11   -1    0    0    0    0  0.00000000000E+00  0.00000000000E+00  0.45593999997E+02  0.45594000000E+02  0.51100000000E-03 0. -1.
         11   -1    0    0    0    0 -0.00000000000E+00 -0.00000000000E+00 -0.45593999997E+02  0.45594000000E+02  0.51100000000E-03 0.  1.
    9900012    2    1    2    0    0  0.22116591028E+02 -0.35119942329E+00  0.34115962980E+02  0.50528857488E+02  0.29999992821E+02 0.  0.
        -12    1    1    2    0    0 -0.22116591028E+02  0.35119942329E+00 -0.34115962980E+02  0.40659142512E+02  0.00000000000E+00 0.  1.
         11    1    3    3    0    0  0.47222747694E+01 -0.99312948060E+01  0.98144236304E+01  0.14739518546E+02  0.51100000000E-03 0. -1.
        -11    1    3    3    0    0 -0.22659001536E+01 -0.12433499378E+01 -0.16352925885E+00  0.25897808119E+01  0.51100000000E-03 0.  1.
         12    1    3    3    0    0  0.19660216412E+02  0.10823445321E+02  0.24465068609E+02  0.33199558130E+02  0.00000000000E+00 0. -1.
</event>
<event>
 7    1  0.8738416E-012  0.5052886E+02  0.7816164E-02  0.1300439E+00
        -11   -1    0    0    0    0  0.00000000000E+00  0.00000000000E+00  0.45593999997E+02  0.45594000000E+02  0.51100000000E-03 0. -1.
         11   -1    0    0    0    0 -0.00000000000E+00 -0.00000000000E+00 -0.45593999997E+02  0.45594000000E+02  0.51100000000E-03 0.  1.
    9900012    2    1    2    0    0  0.11952443818E+02  0.13768003748E+00 -0.38862400368E+02  0.50528855501E+02  0.29999986781E+02 0.  0.
         12    1    1    2    0    0 -0.11952443818E+02 -0.13768003748E+00  0.38862400368E+02  0.40659144499E+02  0.00000000000E+00 0. -1.
         11    1    3    3    0    0  0.32685300584E+01 -0.56997640545E+01 -0.31573358152E+01  0.72896754887E+01  0.51100000000E-03 0. -1.
        -11    1    3    3    0    0  0.61070517257E+01  0.78347757986E-03  0.81928499314E+00  0.61617618873E+01  0.51100000000E-03 0.  1.
        -12    1    3    3    0    0  0.25768620340E+01  0.58366606145E+01 -0.36524349546E+02  0.37077418125E+02  0.00000000000E+00 0.  1.
</event>
<event>
 7    1  0.5843820E-012  0.5052887E+02  0.7816164E-02  0.1300439E+00
        -11   -1    0    0    0    0  0.00000000000E+00  0.00000000000E+00  0.45593999997E+02  0.45594000000E+02  0.51100000000E-03 0. -1.
         11   -1    0    0    0    0 -0.00000000000E+00 -0.00000000000E+00 -0.45593999997E+02  0.45594000000E+02  0.51100000000E-03 0.  1.
    9900012    2    1    2    0    0 -0.46372430653E+01  0.32263917954E+02  0.24304331692E+02  0.50528868627E+02  0.30000026680E+02 0.  0.
        -12    1    1    2    0    0  0.46372430653E+01 -0.32263917954E+02 -0.24304331692E+02  0.40659131373E+02  0.00000000000E+00 0.  1.
         11    1    3    3    0    0 -0.97122523140E-02  0.84009001070E+01 -0.45474415477E+01  0.95527190803E+01  0.51100000000E-03 0. -1.
        -11    1    3    3    0    0  0.58124210416E+01  0.11600003736E+02  0.12181016998E+02  0.17796671048E+02  0.51100000000E-03 0.  1.
         12    1    3    3    0    0 -0.10439951855E+02  0.12263014111E+02  0.16670756242E+02  0.23179478499E+02  0.00000000000E+00 0. -1.
</event>
<event>
 7    1  0.5843820E-012  0.5052886E+02  0.7816164E-02  0.1300439E+00
        -11   -1    0    0    0    0  0.00000000000E+00  0.00000000000E+00  0.45593999997E+02  0.45594000000E+02  0.51100000000E-03 0. -1.
         11   -1    0    0    0    0 -0.00000000000E+00 -0.00000000000E+00 -0.45593999997E+02  0.45594000000E+02  0.51100000000E-03 0.  1.
    9900012    2    1    2    0    0 -0.21280204529E+02  0.38671018012E+01  0.34429115956E+02  0.50528860724E+02  0.30000002656E+02 0.  0.
        -12    1    1    2    0    0  0.21280204529E+02 -0.38671018012E+01 -0.34429115956E+02  0.40659139276E+02  0.00000000000E+00 0.  1.
         11    1    3    3    0    0 -0.16926899611E+01 -0.28980442952E+01 -0.97439425997E+00  0.34947538506E+01  0.51100000000E-03 0. -1.
        -11    1    3    3    0    0  0.15626026559E+01  0.42839513041E+00 -0.26110325546E+01  0.30729042794E+01  0.51100000000E-03 0.  1.
         12    1    3    3    0    0 -0.21150117224E+02  0.63367509660E+01  0.38014542771E+02  0.43961202594E+02  0.00000000000E+00 0. -1.
</event>
<event>
 7    1  0.5843820E-012  0.5052885E+02  0.7816164E-02  0.1300439E+00
        -11   -1    0    0    0    0  0.00000000000E+00  0.00000000000E+00  0.45593999997E+02  0.45594000000E+02  0.51100000000E-03 0. -1.
         11   -1    0    0    0    0 -0.00000000000E+00 -0.00000000000E+00 -0.45593999997E+02  0.45594000000E+02  0.51100000000E-03 0.  1.
    9900012    2    1    2    0    0  0.55239883857E+01  0.19132102846E+02 -0.35448756224E+02  0.50528854352E+02  0.29999983288E+02 0.  0.
         12    1    1    2    0    0 -0.55239883857E+01 -0.19132102846E+02  0.35448756224E+02  0.40659145648E+02  0.00000000000E+00 0. -1.
         11    1    3    3    0    0  0.10751212879E+02 -0.82546524344E-01 -0.19860948292E+02  0.22584345455E+02  0.51100000000E-03 0. -1.
        -11    1    3    3    0    0  0.14238184825E+01  0.60653564344E+01 -0.10768231094E+02  0.12440683619E+02  0.51100000000E-03 0.  1.
         12    1    3    3    0    0 -0.66510429755E+01  0.13149292936E+02 -0.48195768378E+01  0.15503825278E+02  0.00000000000E+00 0. -1.
</event>
<event>
 7    1  0.5843820E-012  0.5052886E+02  0.7816164E-02  0.1300439E+00
        -11   -1    0    0    0    0  0.00000000000E+00  0.00000000000E+00  0.45593999997E+02  0.45594000000E+02  0.51100000000E-03 0. -1.
         11   -1    0    0    0    0 -0.00000000000E+00 -0.00000000000E+00 -0.45593999997E+02  0.45594000000E+02  0.51100000000E-03 0.  1.
    9900012    2    1    2    0    0  0.11139914370E+02 -0.24396602590E+02 -0.30559344755E+02  0.50528862504E+02  0.30000008066E+02 0.  0.
         12    1    1    2    0    0 -0.11139914370E+02  0.24396602590E+02  0.30559344755E+02  0.40659137496E+02  0.00000000000E+00 0. -1.
         11    1    3    3    0    0  0.63956735119E+01 -0.14744842362E+02 -0.79995396716E+01  0.17952928763E+02  0.51100000000E-03 0. -1.
        -11    1    3    3    0    0 -0.25799378822E+01 -0.14284605318E+02 -0.11463998274E+02  0.18496737152E+02  0.51100000000E-03 0.  1.
        -12    1    3    3    0    0  0.73241787403E+01  0.46328450898E+01 -0.11095806809E+02  0.14079196589E+02  0.00000000000E+00 0.  1.
</event>
<event>
 7    1  0.5843820E-012  0.5052886E+02  0.7816164E-02  0.1300439E+00
        -11   -1    0    0    0    0  0.00000000000E+00  0.00000000000E+00  0.45593999997E+02  0.45594000000E+02  0.51100000000E-03 0. -1.
         11   -1    0    0    0    0 -0.00000000000E+00 -0.00000000000E+00 -0.45593999997E+02  0.45594000000E+02  0.51100000000E-03 0.  1.
    9900012    2    1    2    0    0 -0.24190246107E+02 -0.74711824432E+01 -0.31814759512E+02  0.50528862077E+02  0.30000006770E+02 0.  0.
         12    1    1    2    0    0  0.24190246107E+02  0.74711824432E+01  0.31814759512E+02  0.40659137923E+02  0.00000000000E+00 0. -1.
         11    1    3    3    0    0 -0.12837411263E+02  0.41266801691E+01 -0.17759491236E+02  0.22298613104E+02  0.51100000000E-03 0. -1.
        -11    1    3    3    0    0 -0.11486566428E+02 -0.11036688543E+02 -0.18119060713E+02  0.24125713744E+02  0.51100000000E-03 0.  1.
         12    1    3    3    0    0  0.13373158334E+00 -0.56117406946E+00  0.40637924369E+01  0.41045352286E+01  0.00000000000E+00 0. -1.
</event>
<event>
 7    1  0.5843820E-012  0.5052886E+02  0.7816164E-02  0.1300439E+00
        -11   -1    0    0    0    0  0.00000000000E+00  0.00000000000E+00  0.45593999997E+02  0.45594000000E+02  0.51100000000E-03 0. -1.
         11   -1    0    0    0    0 -0.00000000000E+00 -0.00000000000E+00 -0.45593999997E+02  0.45594000000E+02  0.51100000000E-03 0.  1.
    9900012    2    1    2    0    0  0.95030081788E+01  0.16501549833E+01  0.39498551833E+02  0.50528858681E+02  0.29999996446E+02 0.  0.
        -12    1    1    2    0    0 -0.95030081788E+01 -0.16501549833E+01 -0.39498551833E+02  0.40659141319E+02  0.00000000000E+00 0.  1.
         11    1    3    3    0    0  0.79925069419E+01  0.27467791179E+01  0.29517580417E+01  0.89519740022E+01  0.51100000000E-03 0.  1.
        -11    1    3    3    0    0  0.28996582265E+01 -0.41982768420E+01  0.23638865947E+00  0.51077809401E+01  0.51100000000E-03 0. -1.
         12    1    3    3    0    0 -0.13891569896E+01  0.31016527074E+01  0.36310405132E+02  0.36469103739E+02  0.00000000000E+00 0. -1.
</event>
<event>
 7    1  0.5843820E-012  0.5052885E+02  0.7816164E-02  0.1300439E+00
        -11   -1    0    0    0    0  0.00000000000E+00  0.00000000000E+00  0.45593999997E+02  0.45594000000E+02  0.51100000000E-03 0. -1.
         11   -1    0    0    0    0 -0.00000000000E+00 -0.00000000000E+00 -0.45593999997E+02  0.45594000000E+02  0.51100000000E-03 0.  1.
    9900012    2    1    2    0    0 -0.10111378809E+02  0.38901544953E+02 -0.61315938474E+01  0.50528848210E+02  0.29999964619E+02 0.  0.
        -12    1    1    2    0    0  0.10111378809E+02 -0.38901544953E+02  0.61315938474E+01  0.40659151790E+02  0.00000000000E+00 0.  1.
         11    1    3    3    0    0  0.13514378775E+01 -0.20456359719E+00  0.49107060549E+01  0.50973782301E+01  0.51100000000E-03 0. -1.
        -11    1    3    3    0    0  0.22538309791E+01  0.20308376028E+02 -0.22536965177E+01  0.20556970576E+02  0.51100000000E-03 0.  1.
        -12    1    3    3    0    0 -0.13716647666E+02  0.18797732522E+02 -0.87886033847E+01  0.24874499404E+02  0.00000000000E+00 0.  1.
</event>
<event>
 7    1  0.5843820E-012  0.5052890E+02  0.7816164E-02  0.1300439E+00
        -11   -1    0    0    0    0  0.00000000000E+00  0.00000000000E+00  0.45593999997E+02  0.45594000000E+02  0.51100000000E-03 0. -1.
         11   -1    0    0    0    0 -0.00000000000E+00 -0.00000000000E+00 -0.45593999997E+02  0.45594000000E+02  0.51100000000E-03 0.  1.
    9900012    2    1    2    0    0 -0.12156430831E+02  0.16995650300E+02 -0.34878815343E+02  0.50528896476E+02  0.30000111328E+02 0.  0.
         12    1    1    2    0    0  0.12156430831E+02 -0.16995650300E+02  0.34878815343E+02  0.40659103524E+02  0.00000000000E+00 0. -1.
         11    1    3    3    0    0 -0.86405186048E+00 -0.67044274545E+00  0.30334510269E+01  0.32245781874E+01  0.51100000000E-03 0. -1.
        -11    1    3    3    0    0 -0.72926133096E-03 -0.18119931000E+01  0.12010964584E+01  0.21739255943E+01  0.51100000000E-03 0.  1.
        -12    1    3    3    0    0 -0.11291649709E+02  0.19478086146E+02 -0.39113362828E+02  0.45130392694E+02  0.00000000000E+00 0.  1.
</event>
<event>
 7    1  0.5843820E-012  0.5052886E+02  0.7816164E-02  0.1300439E+00
        -11   -1    0    0    0    0  0.00000000000E+00  0.00000000000E+00  0.45593999997E+02  0.45594000000E+02  0.51100000000E-03 0. -1.
         11   -1    0    0    0    0 -0.00000000000E+00 -0.00000000000E+00 -0.45593999997E+02  0.45594000000E+02  0.51100000000E-03 0.  1.
    9900012    2    1    2    0    0 -0.26199463652E+02 -0.16145044452E+02  0.26572375857E+02  0.50528861855E+02  0.30000006095E+02 0.  0.
        -12    1    1    2    0    0  0.26199463652E+02  0.16145044452E+02 -0.26572375857E+02  0.40659138145E+02  0.00000000000E+00 0.  1.
         11    1    3    3    0    0 -0.67457796788E+01 -0.17924395570E+01  0.37464360843E+01  0.79217527502E+01  0.51100000000E-03 0. -1.
        -11    1    3    3    0    0 -0.12364533096E+02 -0.10091891009E+02 -0.23272250956E+01  0.16128977640E+02  0.51100000000E-03 0.  1.
        -12    1    3    3    0    0 -0.70891508770E+01 -0.42607138866E+01  0.25153164868E+02  0.26478131465E+02  0.00000000000E+00 0.  1.
</event>
<event>
 7    1  0.5843820E-012  0.5052886E+02  0.7816164E-02  0.1300439E+00
        -11   -1    0    0    0    0  0.00000000000E+00  0.00000000000E+00  0.45593999997E+02  0.45594000000E+02  0.51100000000E-03 0. -1.
         11   -1    0    0    0    0 -0.00000000000E+00 -0.00000000000E+00 -0.45593999997E+02  0.45594000000E+02  0.51100000000E-03 0.  1.
    9900012    2    1    2    0    0 -0.29290658214E+02 -0.12504553733E+02 -0.25275666822E+02  0.50528857658E+02  0.29999993338E+02 0.  0.
         12    1    1    2    0    0  0.29290658214E+02  0.12504553733E+02  0.25275666822E+02  0.40659142342E+02  0.00000000000E+00 0. -1.
         11    1    3    3    0    0  0.10020593143E+01 -0.19848067058E+01 -0.55414964174E+01  0.59709097576E+01  0.51100000000E-03 0. -1.
        -11    1    3    3    0    0 -0.39830530102E+01  0.59229140272E+01 -0.95120178221E+01  0.11892186728E+02  0.51100000000E-03 0.  1.
        -12    1    3    3    0    0 -0.26309664518E+02 -0.16442661054E+02 -0.10222152583E+02  0.32665761173E+02  0.00000000000E+00 0.  1.
</event>
<event>
 7    1  0.5843820E-012  0.5052887E+02  0.7816164E-02  0.1300439E+00
        -11   -1    0    0    0    0  0.00000000000E+00  0.00000000000E+00  0.45593999997E+02  0.45594000000E+02  0.51100000000E-03 0. -1.
         11   -1    0    0    0    0 -0.00000000000E+00 -0.00000000000E+00 -0.45593999997E+02  0.45594000000E+02  0.51100000000E-03 0.  1.
    9900012    2    1    2    0    0 -0.67511224366E+01  0.89560186096E+01  0.39081674202E+02  0.50528865947E+02  0.30000018532E+02 0.  0.
        -12    1    1    2    0    0  0.67511224366E+01 -0.89560186096E+01 -0.39081674202E+02  0.40659134053E+02  0.00000000000E+00 0.  1.
         11    1    3    3    0    0 -0.10273334223E+02  0.14790570493E+02  0.18867718333E+02  0.26082430234E+02  0.51100000000E-03 0. -1.
        -11    1    3    3    0    0 -0.42962720827E+01 -0.36294798783E+01  0.81270286640E+01  0.98833027457E+01  0.51100000000E-03 0.  1.
        -12    1    3    3    0    0  0.78184838688E+01 -0.22050720049E+01  0.12086927205E+02  0.14563132967E+02  0.00000000000E+00 0.  1.
</event>
<event>
 7    1  0.5843820E-012  0.5052886E+02  0.7816164E-02  0.1300439E+00
        -11   -1    0    0    0    0  0.00000000000E+00  0.00000000000E+00  0.45593999997E+02  0.45594000000E+02  0.51100000000E-03 0. -1.
         11   -1    0    0    0    0 -0.00000000000E+00 -0.00000000000E+00 -0.45593999997E+02  0.45594000000E+02  0.51100000000E-03 0.  1.
    9900012    2    1    2    0    0 -0.21402080054E+02 -0.27941930457E+02 -0.20355957940E+02  0.50528861643E+02  0.30000005450E+02 0.  0.
         12    1    1    2    0    0  0.21402080054E+02  0.27941930457E+02  0.20355957940E+02  0.40659138357E+02  0.00000000000E+00 0. -1.
         11    1    3    3    0    0 -0.15261946914E+02 -0.50841793970E+00 -0.13551081617E+02  0.20416104566E+02  0.51100000000E-03 0. -1.
        -11    1    3    3    0    0 -0.62845114204E+01 -0.10189171203E+02 -0.41173201681E+01  0.12659645304E+02  0.51100000000E-03 0.  1.
        -12    1    3    3    0    0  0.14437828105E+00 -0.17244341315E+02 -0.26875561547E+01  0.17453111773E+02  0.00000000000E+00 0.  1.
</event>
<event>
 7    1  0.5843820E-012  0.5052886E+02  0.7816164E-02  0.1300439E+00
        -11   -1    0    0    0    0  0.00000000000E+00  0.00000000000E+00  0.45593999997E+02  0.45594000000E+02  0.51100000000E-03 0. -1.
         11   -1    0    0    0    0 -0.00000000000E+00 -0.00000000000E+00 -0.45593999997E+02  0.45594000000E+02  0.51100000000E-03 0.  1.
    9900012    2    1    2    0    0  0.24448030377E+02 -0.22930539814E+02  0.23014118036E+02  0.50528862350E+02  0.30000007599E+02 0.  0.
        -12    1    1    2    0    0 -0.24448030377E+02  0.22930539814E+02 -0.23014118036E+02  0.40659137650E+02  0.00000000000E+00 0.  1.
         11    1    3    3    0    0  0.57739491784E+01  0.26647559601E+00  0.22594654384E+01  0.62060198748E+01  0.51100000000E-03 0. -1.
        -11    1    3    3    0    0  0.23300550400E+02 -0.14029941966E+02  0.20486933024E+02  0.34050981565E+02  0.51100000000E-03 0.  1.
        -12    1    3    3    0    0 -0.46264692018E+01 -0.91670734436E+01  0.26771957376E+00  0.10271860911E+02  0.00000000000E+00 0.  1.
</event>
<event>
 7    1  0.5843820E-012  0.5052888E+02  0.7816164E-02  0.1300439E+00
        -11   -1    0    0    0    0  0.00000000000E+00  0.00000000000E+00  0.45593999997E+02  0.45594000000E+02  0.51100000000E-03 0. -1.
         11   -1    0    0    0    0 -0.00000000000E+00 -0.00000000000E+00 -0.45593999997E+02  0.45594000000E+02  0.51100000000E-03 0.  1.
    9900012    2    1    2    0    0  0.18723026363E+01  0.17756455999E+02  0.36528990687E+02  0.50528875472E+02  0.30000047483E+02 0.  0.
        -12    1    1    2    0    0 -0.18723026363E+01 -0.17756455999E+02 -0.36528990687E+02  0.40659124528E+02  0.00000000000E+00 0.  1.
         11    1    3    3    0    0  0.44937813702E+00  0.10190055475E+02  0.21920876320E+02  0.24177758172E+02  0.51100000000E-03 0. -1.
        -11    1    3    3    0    0  0.46091852069E+01  0.95901244138E+01  0.18237632538E+02  0.21114599580E+02  0.51100000000E-03 0.  1.
         12    1    3    3    0    0 -0.31862607076E+01 -0.20237238904E+01 -0.36295181712E+01  0.52365177204E+01  0.00000000000E+00 0. -1.
</event>
<event>
 7    1  0.5843820E-012  0.5052887E+02  0.7816164E-02  0.1300439E+00
        -11   -1    0    0    0    0  0.00000000000E+00  0.00000000000E+00  0.45593999997E+02  0.45594000000E+02  0.51100000000E-03 0. -1.
         11   -1    0    0    0    0 -0.00000000000E+00 -0.00000000000E+00 -0.45593999997E+02  0.45594000000E+02  0.51100000000E-03 0.  1.
    9900012    2    1    2    0    0 -0.13161453571E+02  0.16045644217E+02  0.34963961295E+02  0.50528866365E+02  0.30000019804E+02 0.  0.
        -12    1    1    2    0    0  0.13161453571E+02 -0.16045644217E+02 -0.34963961295E+02  0.40659133635E+02  0.00000000000E+00 0.  1.
         11    1    3    3    0    0 -0.53060282105E+00 -0.18692924364E+01  0.81005094120E+01  0.83303089116E+01  0.51100000000E-03 0. -1.
        -11    1    3    3    0    0 -0.13562278403E+02  0.14828952713E+02  0.31006562054E+02  0.36949155941E+02  0.51100000000E-03 0.  1.
        -12    1    3    3    0    0  0.93142765288E+00  0.30859839406E+01 -0.41431101711E+01  0.52494015130E+01  0.00000000000E+00 0.  1.
</event>
<event>
 7    1  0.5843820E-012  0.5052885E+02  0.7816164E-02  0.1300439E+00
        -11   -1    0    0    0    0  0.00000000000E+00  0.00000000000E+00  0.45593999997E+02  0.45594000000E+02  0.51100000000E-03 0. -1.
         11   -1    0    0    0    0 -0.00000000000E+00 -0.00000000000E+00 -0.45593999997E+02  0.45594000000E+02  0.51100000000E-03 0.  1.
    9900012    2    1    2    0    0 -0.17032319534E+02  0.27968791738E+02 -0.24100075438E+02  0.50528845359E+02  0.29999955953E+02 0.  0.
         12    1    1    2    0    0  0.17032319534E+02 -0.27968791738E+02  0.24100075438E+02  0.40659154641E+02  0.00000000000E+00 0. -1.
         11    1    3    3    0    0 -0.16608445434E+02  0.90500406045E+01 -0.21951166189E+02  0.28975807012E+02  0.51100000000E-03 0. -1.
        -11    1    3    3    0    0 -0.43316770984E+01  0.10263489727E+02 -0.40769898023E+01  0.11862735518E+02  0.51100000000E-03 0.  1.
        -12    1    3    3    0    0  0.39078029978E+01  0.86552614065E+01  0.19280805538E+01  0.96903028284E+01  0.00000000000E+00 0.  1.
</event>
<event>
 7    1  0.5843820E-012  0.5052886E+02  0.7816164E-02  0.1300439E+00
        -11   -1    0    0    0    0  0.00000000000E+00  0.00000000000E+00  0.45593999997E+02  0.45594000000E+02  0.51100000000E-03 0. -1.
         11   -1    0    0    0    0 -0.00000000000E+00 -0.00000000000E+00 -0.45593999997E+02  0.45594000000E+02  0.51100000000E-03 0.  1.
    9900012    2    1    2    0    0  0.53405020044E+01  0.16952144237E+02 -0.36568701202E+02  0.50528855106E+02  0.29999985580E+02 0.  0.
         12    1    1    2    0    0 -0.53405020044E+01 -0.16952144237E+02  0.36568701202E+02  0.40659144894E+02  0.00000000000E+00 0. -1.
         11    1    3    3    0    0 -0.99523543645E+00  0.22530156480E+01 -0.57519515915E+01  0.62571175837E+01  0.51100000000E-03 0. -1.
        -11    1    3    3    0    0 -0.74594287378E+00  0.14686785801E+02 -0.33588702677E+02  0.36666865911E+02  0.51100000000E-03 0.  1.
         12    1    3    3    0    0  0.70816803147E+01  0.12342788244E-01  0.27719530664E+01  0.76048716114E+01  0.00000000000E+00 0. -1.
</event>
<event>
 7    1  0.5843820E-012  0.5052887E+02  0.7816164E-02  0.1300439E+00
        -11   -1    0    0    0    0  0.00000000000E+00  0.00000000000E+00  0.45593999997E+02  0.45594000000E+02  0.51100000000E-03 0. -1.
         11   -1    0    0    0    0 -0.00000000000E+00 -0.00000000000E+00 -0.45593999997E+02  0.45594000000E+02  0.51100000000E-03 0.  1.
    9900012    2    1    2    0    0 -0.24260660041E+02  0.20248619817E+02 -0.25584730479E+02  0.50528872319E+02  0.30000037899E+02 0.  0.
         12    1    1    2    0    0  0.24260660041E+02 -0.20248619817E+02  0.25584730479E+02  0.40659127681E+02  0.00000000000E+00 0. -1.
         11    1    3    3    0    0  0.41945457834E+01  0.10219389175E+01 -0.11792339750E+02  0.12557780477E+02  0.51100000000E-03 0. -1.
        -11    1    3    3    0    0 -0.14657772848E+02  0.48501320488E+01 -0.65123022574E+01  0.16756615610E+02  0.51100000000E-03 0.  1.
        -12    1    3    3    0    0 -0.13797432976E+02  0.14376548851E+02 -0.72800884720E+01  0.21214476231E+02  0.00000000000E+00 0.  1.
</event>
<event>
 7    1  0.5843820E-012  0.5052886E+02  0.7816164E-02  0.1300439E+00
        -11   -1    0    0    0    0  0.00000000000E+00  0.00000000000E+00  0.45593999997E+02  0.45594000000E+02  0.51100000000E-03 0. -1.
         11   -1    0    0    0    0 -0.00000000000E+00 -0.00000000000E+00 -0.45593999997E+02  0.45594000000E+02  0.51100000000E-03 0.  1.
    9900012    2    1    2    0    0  0.15731767060E+02  0.34065536980E+02  0.15659376194E+02  0.50528863667E+02  0.30000011603E+02 0.  0.
        -12    1    1    2    0    0 -0.15731767060E+02 -0.34065536980E+02 -0.15659376194E+02  0.40659136333E+02  0.00000000000E+00 0.  1.
         11    1    3    3    0    0  0.10623276309E+01 -0.67139169620E+00  0.50200007454E+00  0.13532594508E+01  0.51100000000E-03 0. -1.
        -11    1    3    3    0    0 -0.30720448603E+01  0.22405121031E+02 -0.28762585931E+00  0.22616578807E+02  0.51100000000E-03 0.  1.
         12    1    3    3    0    0  0.17741484290E+02  0.12331807645E+02  0.15445001978E+02  0.26559025410E+02  0.00000000000E+00 0. -1.
</event>
<event>
 7    1  0.5843820E-012  0.5052886E+02  0.7816164E-02  0.1300439E+00
        -11   -1    0    0    0    0  0.00000000000E+00  0.00000000000E+00  0.45593999997E+02  0.45594000000E+02  0.51100000000E-03 0.  1.
         11   -1    0    0    0    0 -0.00000000000E+00 -0.00000000000E+00 -0.45593999997E+02  0.45594000000E+02  0.51100000000E-03 0. -1.
    9900012    2    1    2    0    0 -0.18269015769E+00  0.40311056076E+02 -0.53057617495E+01  0.50528859263E+02  0.29999998217E+02 0.  0.
         12    1    1    2    0    0  0.18269015769E+00 -0.40311056076E+02  0.53057617495E+01  0.40659140737E+02  0.00000000000E+00 0. -1.
         11    1    3    3    0    0 -0.34738429495E+00 -0.24553644935E+01  0.13330138368E+01  0.28153892794E+01  0.51100000000E-03 0. -1.
        -11    1    3    3    0    0  0.58201594213E+01  0.26976639175E+02 -0.12017030278E+02  0.30100204880E+02  0.51100000000E-03 0.  1.
        -12    1    3    3    0    0 -0.56554652840E+01  0.15789781395E+02  0.53782546921E+01  0.17613265104E+02  0.00000000000E+00 0.  1.
</event>
<event>
 7    1  0.5843820E-012  0.5052886E+02  0.7816164E-02  0.1300439E+00
        -11   -1    0    0    0    0  0.00000000000E+00  0.00000000000E+00  0.45593999997E+02  0.45594000000E+02  0.51100000000E-03 0. -1.
         11   -1    0    0    0    0 -0.00000000000E+00 -0.00000000000E+00 -0.45593999997E+02  0.45594000000E+02  0.51100000000E-03 0.  1.
    9900012    2    1    2    0    0 -0.11340979158E+02  0.36531956186E+02 -0.13782733129E+02  0.50528863713E+02  0.30000011743E+02 0.  0.
         12    1    1    2    0    0  0.11340979158E+02 -0.36531956186E+02  0.13782733129E+02  0.40659136287E+02  0.00000000000E+00 0. -1.
         11    1    3    3    0    0 -0.65829193906E+01  0.46824261353E+01 -0.60925881166E+01  0.10118279124E+02  0.51100000000E-03 0. -1.
        -11    1    3    3    0    0 -0.31985455357E+01  0.17608385214E+02 -0.15864856270E+02  0.23916094751E+02  0.51100000000E-03 0.  1.
         12    1    3    3    0    0 -0.15595142315E+01  0.14241144837E+02  0.81747112571E+01  0.16494489839E+02  0.00000000000E+00 0. -1.
</event>
<event>
 7    1  0.5843820E-012  0.5052887E+02  0.7816164E-02  0.1300439E+00
        -11   -1    0    0    0    0  0.00000000000E+00  0.00000000000E+00  0.45593999997E+02  0.45594000000E+02  0.51100000000E-03 0. -1.
         11   -1    0    0    0    0 -0.00000000000E+00 -0.00000000000E+00 -0.45593999997E+02  0.45594000000E+02  0.51100000000E-03 0.  1.
    9900012    2    1    2    0    0  0.14687779850E+02 -0.84097581793E+01 -0.36969045517E+02  0.50528865282E+02  0.30000016511E+02 0.  0.
         12    1    1    2    0    0 -0.14687779850E+02  0.84097581793E+01  0.36969045517E+02  0.40659134718E+02  0.00000000000E+00 0. -1.
         11    1    3    3    0    0  0.80479429399E+01 -0.11599629240E+02 -0.14560011506E+02  0.20280895428E+02  0.51100000000E-03 0. -1.
        -11    1    3    3    0    0  0.58278664348E+01 -0.38279238179E+01 -0.23587791974E+00  0.69765798635E+01  0.51100000000E-03 0.  1.
        -12    1    3    3    0    0  0.81197047474E+00  0.70177948782E+01 -0.22173156092E+02  0.23271389990E+02  0.00000000000E+00 0.  1.
</event>
<event>
 7    1  0.5843820E-012  0.5052886E+02  0.7816164E-02  0.1300439E+00
        -11   -1    0    0    0    0  0.00000000000E+00  0.00000000000E+00  0.45593999997E+02  0.45594000000E+02  0.51100000000E-03 0. -1.
         11   -1    0    0    0    0 -0.00000000000E+00 -0.00000000000E+00 -0.45593999997E+02  0.45594000000E+02  0.51100000000E-03 0.  1.
    9900012    2    1    2    0    0 -0.19264679051E+02 -0.22431687260E+02  0.27908017553E+02  0.50528857166E+02  0.29999991842E+02 0.  0.
        -12    1    1    2    0    0  0.19264679051E+02  0.22431687260E+02 -0.27908017553E+02  0.40659142834E+02  0.00000000000E+00 0.  1.
         11    1    3    3    0    0 -0.17150984850E+02 -0.20887848405E+02  0.84362120647E+01  0.28313038808E+02  0.51100000000E-03 0. -1.
        -11    1    3    3    0    0  0.27451577382E+01  0.19424906289E+01  0.24127090072E+01  0.41388797839E+01  0.51100000000E-03 0.  1.
        -12    1    3    3    0    0 -0.48588519393E+01 -0.34863294836E+01  0.17059096481E+02  0.18076938574E+02  0.00000000000E+00 0.  1.
</event>
<event>
 7    1  0.5843820E-012  0.5052886E+02  0.7816164E-02  0.1300439E+00
        -11   -1    0    0    0    0  0.00000000000E+00  0.00000000000E+00  0.45593999997E+02  0.45594000000E+02  0.51100000000E-03 0. -1.
         11   -1    0    0    0    0 -0.00000000000E+00 -0.00000000000E+00 -0.45593999997E+02  0.45594000000E+02  0.51100000000E-03 0.  1.
    9900012    2    1    2    0    0  0.39585275755E+01 -0.33373562956E+02  0.22884518513E+02  0.50528857946E+02  0.29999994213E+02 0.  0.
        -12    1    1    2    0    0 -0.39585275755E+01  0.33373562956E+02 -0.22884518513E+02  0.40659142054E+02  0.00000000000E+00 0.  1.
         11    1    3    3    0    0 -0.21048770716E+01  0.96168440846E-01  0.68419470993E-01  0.21081834219E+01  0.51100000000E-03 0. -1.
        -11    1    3    3    0    0  0.71916313253E+01 -0.11261519916E+02 -0.36513530363E+01  0.13851850822E+02  0.51100000000E-03 0.  1.
        -12    1    3    3    0    0 -0.11282266782E+01 -0.22208211481E+02  0.26467452079E+02  0.34568823703E+02  0.00000000000E+00 0.  1.
</event>
<event>
 7    1  0.5843820E-012  0.5052886E+02  0.7816164E-02  0.1300439E+00
        -11   -1    0    0    0    0  0.00000000000E+00  0.00000000000E+00  0.45593999997E+02  0.45594000000E+02  0.51100000000E-03 0. -1.
         11   -1    0    0    0    0 -0.00000000000E+00 -0.00000000000E+00 -0.45593999997E+02  0.45594000000E+02  0.51100000000E-03 0.  1.
    9900012    2    1    2    0    0  0.47679728532E+01  0.14304962827E+02 -0.37759769139E+02  0.50528859674E+02  0.29999999466E+02 0.  0.
         12    1    1    2    0    0 -0.47679728532E+01 -0.14304962827E+02  0.37759769139E+02  0.40659140326E+02  0.00000000000E+00 0. -1.
         11    1    3    3    0    0 -0.30740053320E+01 -0.38327226581E+01 -0.18013477806E+02  0.18671493102E+02  0.51100000000E-03 0. -1.
        -11    1    3    3    0    0  0.17341676537E+01  0.52994257802E+01 -0.16301658519E+02  0.17228909478E+02  0.51100000000E-03 0.  1.
        -12    1    3    3    0    0  0.61078105315E+01  0.12838259705E+02 -0.34446328136E+01  0.14628457094E+02  0.00000000000E+00 0.  1.
</event>
<event>
 7    1  0.5843820E-012  0.5052886E+02  0.7816164E-02  0.1300439E+00
        -11   -1    0    0    0    0  0.00000000000E+00  0.00000000000E+00  0.45593999997E+02  0.45594000000E+02  0.51100000000E-03 0.  1.
         11   -1    0    0    0    0 -0.00000000000E+00 -0.00000000000E+00 -0.45593999997E+02  0.45594000000E+02  0.51100000000E-03 0. -1.
    9900012    2    1    2    0    0 -0.38222866971E+02 -0.80403846832E+01 -0.11292926076E+02  0.50528861732E+02  0.30000005722E+02 0.  0.
         12    1    1    2    0    0  0.38222866971E+02  0.80403846832E+01  0.11292926076E+02  0.40659138268E+02  0.00000000000E+00 0. -1.
         11    1    3    3    0    0 -0.12237062588E+02  0.61469686288E+01 -0.27914326196E+01  0.13975801245E+02  0.51100000000E-03 0.  1.
        -11    1    3    3    0    0 -0.15446476255E+02 -0.15942636126E+02 -0.12096261619E+02  0.25280047879E+02  0.51100000000E-03 0. -1.
         12    1    3    3    0    0 -0.10539328127E+02  0.17552828137E+01  0.35947681628E+01  0.11273012609E+02  0.00000000000E+00 0. -1.
</event>
<event>
 7    1  0.5843820E-012  0.5052886E+02  0.7816164E-02  0.1300439E+00
        -11   -1    0    0    0    0  0.00000000000E+00  0.00000000000E+00  0.45593999997E+02  0.45594000000E+02  0.51100000000E-03 0. -1.
         11   -1    0    0    0    0 -0.00000000000E+00 -0.00000000000E+00 -0.45593999997E+02  0.45594000000E+02  0.51100000000E-03 0.  1.
    9900012    2    1    2    0    0  0.17821814846E+02  0.11350369641E+02  0.34737843460E+02  0.50528859040E+02  0.29999997537E+02 0.  0.
        -12    1    1    2    0    0 -0.17821814846E+02 -0.11350369641E+02 -0.34737843460E+02  0.40659140960E+02  0.00000000000E+00 0.  1.
         11    1    3    3    0    0  0.61669864509E+01  0.80546330609E+01  0.85529354158E+00  0.10180391099E+02  0.51100000000E-03 0. -1.
        -11    1    3    3    0    0  0.57060571052E+01  0.35246666897E+00 -0.10604223110E+00  0.57179161988E+01  0.51100000000E-03 0.  1.
         12    1    3    3    0    0  0.59487712901E+01  0.29432699108E+01  0.33988592149E+02  0.34630551742E+02  0.00000000000E+00 0. -1.
</event>
<event>
 7    1  0.5843820E-012  0.5052886E+02  0.7816164E-02  0.1300439E+00
        -11   -1    0    0    0    0  0.00000000000E+00  0.00000000000E+00  0.45593999997E+02  0.45594000000E+02  0.51100000000E-03 0. -1.
         11   -1    0    0    0    0 -0.00000000000E+00 -0.00000000000E+00 -0.45593999997E+02  0.45594000000E+02  0.51100000000E-03 0.  1.
    9900012    2    1    2    0    0 -0.25839288284E+02  0.17349375431E+02 -0.26162871662E+02  0.50528862030E+02  0.30000006627E+02 0.  0.
         12    1    1    2    0    0  0.25839288284E+02 -0.17349375431E+02  0.26162871662E+02  0.40659137970E+02  0.00000000000E+00 0. -1.
         11    1    3    3    0    0 -0.72724948006E+01  0.73155705565E+01 -0.46218376741E+01  0.11303456858E+02  0.51100000000E-03 0. -1.
        -11    1    3    3    0    0 -0.23090730080E+02  0.70501262521E+01 -0.93612051649E+01  0.25894367306E+02  0.51100000000E-03 0.  1.
        -12    1    3    3    0    0  0.45239365960E+01  0.29836786223E+01 -0.12179828822E+02  0.13331037866E+02  0.00000000000E+00 0.  1.
</event>
<event>
 7    1  0.5843820E-012  0.5052886E+02  0.7816164E-02  0.1300439E+00
        -11   -1    0    0    0    0  0.00000000000E+00  0.00000000000E+00  0.45593999997E+02  0.45594000000E+02  0.51100000000E-03 0. -1.
         11   -1    0    0    0    0 -0.00000000000E+00 -0.00000000000E+00 -0.45593999997E+02  0.45594000000E+02  0.51100000000E-03 0.  1.
    9900012    2    1    2    0    0  0.22736935373E+02 -0.20489489666E+02 -0.26765243110E+02  0.50528860121E+02  0.30000000825E+02 0.  0.
         12    1    1    2    0    0 -0.22736935373E+02  0.20489489666E+02  0.26765243110E+02  0.40659139879E+02  0.00000000000E+00 0. -1.
         11    1    3    3    0    0  0.98306929569E+01 -0.25103771866E+01 -0.11784071745E+02  0.15550204654E+02  0.51100000000E-03 0.  1.
        -11    1    3    3    0    0  0.42810593941E+00  0.45132834810E+01  0.10718279773E+01  0.46585210045E+01  0.51100000000E-03 0. -1.
        -12    1    3    3    0    0  0.12478136477E+02 -0.22492395960E+02 -0.16052999343E+02  0.30320134463E+02  0.00000000000E+00 0.  1.
</event>
<event>
 7    1  0.5843820E-012  0.5052885E+02  0.7816164E-02  0.1300439E+00
        -11   -1    0    0    0    0  0.00000000000E+00  0.00000000000E+00  0.45593999997E+02  0.45594000000E+02  0.51100000000E-03 0. -1.
         11   -1    0    0    0    0 -0.00000000000E+00 -0.00000000000E+00 -0.45593999997E+02  0.45594000000E+02  0.51100000000E-03 0.  1.
    9900012    2    1    2    0    0 -0.80893257751E+01  0.29014942856E+02  0.27310473675E+02  0.50528854992E+02  0.29999985234E+02 0.  0.
        -12    1    1    2    0    0  0.80893257751E+01 -0.29014942856E+02 -0.27310473675E+02  0.40659145008E+02  0.00000000000E+00 0.  1.
         11    1    3    3    0    0 -0.84280360208E+01  0.18213434300E+02  0.21619526768E+01  0.20185019688E+02  0.51100000000E-03 0.  1.
        -11    1    3    3    0    0 -0.23293515960E+01  0.12677652435E+02  0.15502300790E+02  0.20161103148E+02  0.51100000000E-03 0. -1.
        -12    1    3    3    0    0  0.26680618416E+01 -0.18761438788E+01  0.96462202085E+01  0.10182732156E+02  0.00000000000E+00 0.  1.
</event>
<event>
 7    1  0.5843820E-012  0.5052886E+02  0.7816164E-02  0.1300439E+00
        -11   -1    0    0    0    0  0.00000000000E+00  0.00000000000E+00  0.45593999997E+02  0.45594000000E+02  0.51100000000E-03 0. -1.
         11   -1    0    0    0    0 -0.00000000000E+00 -0.00000000000E+00 -0.45593999997E+02  0.45594000000E+02  0.51100000000E-03 0.  1.
    9900012    2    1    2    0    0 -0.20870824936E+01  0.25931395573E+02  0.31246962681E+02  0.50528857529E+02  0.29999992945E+02 0.  0.
        -12    1    1    2    0    0  0.20870824936E+01 -0.25931395573E+02 -0.31246962681E+02  0.40659142471E+02  0.00000000000E+00 0.  1.
         11    1    3    3    0    0  0.33640568730E+01  0.13617825423E+02  0.67371180321E+01  0.15561195569E+02  0.51100000000E-03 0. -1.
        -11    1    3    3    0    0 -0.38067087678E+01  0.16267778991E+01 -0.31939179702E+01  0.52286279498E+01  0.51100000000E-03 0.  1.
        -12    1    3    3    0    0 -0.16444305989E+01  0.10686792251E+02  0.27703762619E+02  0.29739034010E+02  0.00000000000E+00 0.  1.
</event>
<event>
 7    1  0.5843820E-012  0.5052885E+02  0.7816164E-02  0.1300439E+00
        -11   -1    0    0    0    0  0.00000000000E+00  0.00000000000E+00  0.45593999997E+02  0.45594000000E+02  0.51100000000E-03 0. -1.
         11   -1    0    0    0    0 -0.00000000000E+00 -0.00000000000E+00 -0.45593999997E+02  0.45594000000E+02  0.51100000000E-03 0.  1.
    9900012    2    1    2    0    0  0.18919459601E+02 -0.47557612504E+01  0.35673570223E+02  0.50528845691E+02  0.29999956962E+02 0.  0.
        -12    1    1    2    0    0 -0.18919459601E+02  0.47557612504E+01 -0.35673570223E+02  0.40659154309E+02  0.00000000000E+00 0.  1.
         11    1    3    3    0    0  0.45055005277E+01 -0.36638174544E+01  0.17319715625E+02  0.18267338146E+02  0.51100000000E-03 0. -1.
        -11    1    3    3    0    0 -0.56348313390E+00 -0.83862476250E+01  0.11507675161E+02  0.14250377200E+02  0.51100000000E-03 0.  1.
        -12    1    3    3    0    0  0.14977442207E+02  0.72943038290E+01  0.68461794375E+01  0.18011130345E+02  0.00000000000E+00 0.  1.
</event>
<event>
 7    1  0.5843820E-012  0.5052886E+02  0.7816164E-02  0.1300439E+00
        -11   -1    0    0    0    0  0.00000000000E+00  0.00000000000E+00  0.45593999997E+02  0.45594000000E+02  0.51100000000E-03 0. -1.
         11   -1    0    0    0    0 -0.00000000000E+00 -0.00000000000E+00 -0.45593999997E+02  0.45594000000E+02  0.51100000000E-03 0.  1.
    9900012    2    1    2    0    0 -0.69876629768E+01  0.18956160992E+02  0.35284583439E+02  0.50528864472E+02  0.30000014048E+02 0.  0.
        -12    1    1    2    0    0  0.69876629768E+01 -0.18956160992E+02 -0.35284583439E+02  0.40659135528E+02  0.00000000000E+00 0.  1.
         11    1    3    3    0    0 -0.39673201691E+00  0.52742683543E+01  0.70659900383E-02  0.52891732015E+01  0.51100000000E-03 0. -1.
        -11    1    3    3    0    0 -0.11618313729E+01 -0.46294692191E+01 -0.38114154747E+00  0.47882258228E+01  0.51100000000E-03 0.  1.
         12    1    3    3    0    0 -0.54290995869E+01  0.18311361857E+02  0.35658658997E+02  0.40451465447E+02  0.00000000000E+00 0. -1.
</event>
<event>
 7    1  0.5843820E-012  0.5052885E+02  0.7816164E-02  0.1300439E+00
        -11   -1    0    0    0    0  0.00000000000E+00  0.00000000000E+00  0.45593999997E+02  0.45594000000E+02  0.51100000000E-03 0. -1.
         11   -1    0    0    0    0 -0.00000000000E+00 -0.00000000000E+00 -0.45593999997E+02  0.45594000000E+02  0.51100000000E-03 0.  1.
    9900012    2    1    2    0    0 -0.25768946485E+01  0.23467977598E+02  0.33102565403E+02  0.50528853491E+02  0.29999980672E+02 0.  0.
        -12    1    1    2    0    0  0.25768946485E+01 -0.23467977598E+02 -0.33102565403E+02  0.40659146509E+02  0.00000000000E+00 0.  1.
         11    1    3    3    0    0  0.40287107750E+01  0.53977416819E+01  0.75396051147E+01  0.10109983745E+02  0.51100000000E-03 0. -1.
        -11    1    3    3    0    0  0.41946226065E+01 -0.12200100032E+01  0.15544945890E+02  0.16147093429E+02  0.51100000000E-03 0.  1.
         12    1    3    3    0    0 -0.10800228030E+02  0.19290245919E+02  0.10018014398E+02  0.24271776317E+02  0.00000000000E+00 0. -1.
</event>
<event>
 7    1  0.5843820E-012  0.5052886E+02  0.7816164E-02  0.1300439E+00
        -11   -1    0    0    0    0  0.00000000000E+00  0.00000000000E+00  0.45593999997E+02  0.45594000000E+02  0.51100000000E-03 0. -1.
         11   -1    0    0    0    0 -0.00000000000E+00 -0.00000000000E+00 -0.45593999997E+02  0.45594000000E+02  0.51100000000E-03 0.  1.
    9900012    2    1    2    0    0 -0.76367744252E+01 -0.27961018826E+02  0.28513628298E+02  0.50528857164E+02  0.29999991837E+02 0.  0.
        -12    1    1    2    0    0  0.76367744252E+01  0.27961018826E+02 -0.28513628298E+02  0.40659142836E+02  0.00000000000E+00 0.  1.
         11    1    3    3    0    0  0.65524883908E+00  0.11196325312E+01  0.54208960532E+01  0.55739610985E+01  0.51100000000E-03 0. -1.
        -11    1    3    3    0    0 -0.12186526868E+01 -0.78265456425E+01  0.21015405133E+02  0.22458565943E+02  0.51100000000E-03 0.  1.
        -12    1    3    3    0    0 -0.70733705774E+01 -0.21254105715E+02  0.20773271120E+01  0.22496330122E+02  0.00000000000E+00 0.  1.
</event>
<event>
 7    1  0.6633645E-012  0.5052887E+02  0.7816164E-02  0.1300439E+00
        -11   -1    0    0    0    0  0.00000000000E+00  0.00000000000E+00  0.45593999997E+02  0.45594000000E+02  0.51100000000E-03 0. -1.
         11   -1    0    0    0    0 -0.00000000000E+00 -0.00000000000E+00 -0.45593999997E+02  0.45594000000E+02  0.51100000000E-03 0.  1.
    9900012    2    1    2    0    0  0.32893670282E+01  0.10615125486E+02 -0.39110921679E+02  0.50528867949E+02  0.30000024619E+02 0.  0.
         12    1    1    2    0    0 -0.32893670282E+01 -0.10615125486E+02  0.39110921679E+02  0.40659132051E+02  0.00000000000E+00 0. -1.
         11    1    3    3    0    0 -0.32456670725E+01 -0.54582444079E+01 -0.25194340888E+01  0.68318617632E+01  0.51100000000E-03 0. -1.
        -11    1    3    3    0    0 -0.35681199289E+01  0.53759085308E+01 -0.22185518236E+02  0.23104741765E+02  0.51100000000E-03 0.  1.
        -12    1    3    3    0    0  0.10103154030E+02  0.10697461363E+02 -0.14405969354E+02  0.20592264421E+02  0.00000000000E+00 0.  1.
</event>
<event>
 7    1  0.5843820E-012  0.5052886E+02  0.7816164E-02  0.1300439E+00
        -11   -1    0    0    0    0  0.00000000000E+00  0.00000000000E+00  0.45593999997E+02  0.45594000000E+02  0.51100000000E-03 0. -1.
         11   -1    0    0    0    0 -0.00000000000E+00 -0.00000000000E+00 -0.45593999997E+02  0.45594000000E+02  0.51100000000E-03 0.  1.
    9900012    2    1    2    0    0  0.38613955327E+01  0.22259678060E+02 -0.33804767094E+02  0.50528856858E+02  0.29999990904E+02 0.  0.
         12    1    1    2    0    0 -0.38613955327E+01 -0.22259678060E+02  0.33804767094E+02  0.40659143142E+02  0.00000000000E+00 0. -1.
         11    1    3    3    0    0  0.71191704608E+01  0.61607681968E+01  0.23243080147E+01  0.96974254745E+01  0.51100000000E-03 0. -1.
        -11    1    3    3    0    0 -0.42430956757E+01  0.81565648404E+01 -0.10375970081E+02  0.13863411062E+02  0.51100000000E-03 0.  1.
        -12    1    3    3    0    0  0.98532074762E+00  0.79423450229E+01 -0.25753105028E+02  0.26968020321E+02  0.00000000000E+00 0.  1.
</event>
<event>
 7    1  0.5843820E-012  0.5052886E+02  0.7816164E-02  0.1300439E+00
        -11   -1    0    0    0    0  0.00000000000E+00  0.00000000000E+00  0.45593999997E+02  0.45594000000E+02  0.51100000000E-03 0. -1.
         11   -1    0    0    0    0 -0.00000000000E+00 -0.00000000000E+00 -0.45593999997E+02  0.45594000000E+02  0.51100000000E-03 0.  1.
    9900012    2    1    2    0    0  0.15262468062E+02  0.28352780894E+01 -0.37579038691E+02  0.50528857336E+02  0.29999992360E+02 0.  0.
         12    1    1    2    0    0 -0.15262468062E+02 -0.28352780894E+01  0.37579038691E+02  0.40659142664E+02  0.00000000000E+00 0. -1.
         11    1    3    3    0    0  0.60083226479E+01 -0.48798585348E+01 -0.16455199737E+02  0.18184789221E+02  0.51100000000E-03 0. -1.
        -11    1    3    3    0    0  0.50041998893E+01 -0.65510863171E+01 -0.27355304206E+01  0.86857282602E+01  0.51100000000E-03 0.  1.
        -12    1    3    3    0    0  0.42499455245E+01  0.14266222941E+02 -0.18388308533E+02  0.23658339855E+02  0.00000000000E+00 0.  1.
</event>
<event>
 7    1  0.5843820E-012  0.5052885E+02  0.7816164E-02  0.1300439E+00
        -11   -1    0    0    0    0  0.00000000000E+00  0.00000000000E+00  0.45593999997E+02  0.45594000000E+02  0.51100000000E-03 0. -1.
         11   -1    0    0    0    0 -0.00000000000E+00 -0.00000000000E+00 -0.45593999997E+02  0.45594000000E+02  0.51100000000E-03 0.  1.
    9900012    2    1    2    0    0  0.31559437229E+01  0.25733905569E+01 -0.40454716747E+02  0.50528850638E+02  0.29999972000E+02 0.  0.
         12    1    1    2    0    0 -0.31559437229E+01 -0.25733905569E+01  0.40454716747E+02  0.40659149362E+02  0.00000000000E+00 0. -1.
         11    1    3    3    0    0 -0.16914535243E+01  0.72602019503E+01 -0.14990049932E+02  0.16741360298E+02  0.51100000000E-03 0.  1.
        -11    1    3    3    0    0  0.97680595007E+00 -0.62467263237E+01  0.15030194800E+01  0.64988312369E+01  0.51100000000E-03 0. -1.
         12    1    3    3    0    0  0.38705912972E+01  0.15599149303E+01 -0.26967686295E+02  0.27288659103E+02  0.00000000000E+00 0. -1.
</event>
<event>
 7    1  0.5843820E-012  0.5052887E+02  0.7816164E-02  0.1300439E+00
        -11   -1    0    0    0    0  0.00000000000E+00  0.00000000000E+00  0.45593999997E+02  0.45594000000E+02  0.51100000000E-03 0. -1.
         11   -1    0    0    0    0 -0.00000000000E+00 -0.00000000000E+00 -0.45593999997E+02  0.45594000000E+02  0.51100000000E-03 0.  1.
    9900012    2    1    2    0    0  0.24468174600E+02 -0.17547497780E+01  0.32425212845E+02  0.50528866425E+02  0.30000019985E+02 0.  0.
        -12    1    1    2    0    0 -0.24468174600E+02  0.17547497780E+01 -0.32425212845E+02  0.40659133575E+02  0.00000000000E+00 0.  1.
         11    1    3    3    0    0  0.58836809716E+01  0.41916551152E+01  0.10587934158E+02  0.12817645040E+02  0.51100000000E-03 0. -1.
        -11    1    3    3    0    0 -0.33019051127E+01  0.24367607237E+00  0.12825683977E+02  0.13246136234E+02  0.51100000000E-03 0.  1.
         12    1    3    3    0    0  0.21886398741E+02 -0.61900809656E+01  0.90115947110E+01  0.24465085151E+02  0.00000000000E+00 0. -1.
</event>
<event>
 7    1 -0.2117044E-011  0.5052882E+02  0.7816164E-02  0.1300439E+00
        -11   -1    0    0    0    0  0.00000000000E+00  0.00000000000E+00  0.45593999997E+02  0.45594000000E+02  0.51100000000E-03 0. -1.
         11   -1    0    0    0    0 -0.00000000000E+00 -0.00000000000E+00 -0.45593999997E+02  0.45594000000E+02  0.51100000000E-03 0.  1.
    9900012    2    1    2    0    0  0.20855170553E+02 -0.21257834784E+02  0.27682759839E+02  0.50528820583E+02  0.29999880645E+02 0.  0.
        -12    1    1    2    0    0 -0.20855170553E+02  0.21257834784E+02 -0.27682759839E+02  0.40659179417E+02  0.00000000000E+00 0.  1.
         11    1    3    3    0    0  0.12958322351E+01  0.11230403607E+01  0.13868783746E+01  0.22054098758E+01  0.51100000000E-03 0. -1.
        -11    1    3    3    0    0  0.26147122447E+02 -0.19954086775E+02  0.18139448747E+02  0.37561645230E+02  0.51100000000E-03 0.  1.
        -12    1    3    3    0    0 -0.65877841290E+01 -0.24267883703E+01  0.81564327170E+01  0.10761765477E+02  0.00000000000E+00 0.  1.
</event>
<event>
 7    1  0.5843820E-012  0.5052887E+02  0.7816164E-02  0.1300439E+00
        -11   -1    0    0    0    0  0.00000000000E+00  0.00000000000E+00  0.45593999997E+02  0.45594000000E+02  0.51100000000E-03 0. -1.
         11   -1    0    0    0    0 -0.00000000000E+00 -0.00000000000E+00 -0.45593999997E+02  0.45594000000E+02  0.51100000000E-03 0.  1.
    9900012    2    1    2    0    0 -0.12898177924E+02 -0.40021716121E+01  0.38350804631E+02  0.50528873260E+02  0.30000040762E+02 0.  0.
        -12    1    1    2    0    0  0.12898177924E+02  0.40021716121E+01 -0.38350804631E+02  0.40659126740E+02  0.00000000000E+00 0.  1.
         11    1    3    3    0    0 -0.33630302743E+01 -0.57219164392E+01  0.10149284277E+02  0.12126758510E+02  0.51100000000E-03 0. -1.
        -11    1    3    3    0    0 -0.24002537156E+01 -0.66414979750E+01 -0.10629746075E+01  0.71414724342E+01  0.51100000000E-03 0.  1.
        -12    1    3    3    0    0 -0.71348939338E+01  0.83612428022E+01  0.29264494962E+02  0.31260642316E+02  0.00000000000E+00 0.  1.
</event>
<event>
 7    1  0.5843820E-012  0.5052885E+02  0.7816164E-02  0.1300439E+00
        -11   -1    0    0    0    0  0.00000000000E+00  0.00000000000E+00  0.45593999997E+02  0.45594000000E+02  0.51100000000E-03 0. -1.
         11   -1    0    0    0    0 -0.00000000000E+00 -0.00000000000E+00 -0.45593999997E+02  0.45594000000E+02  0.51100000000E-03 0.  1.
    9900012    2    1    2    0    0  0.24955965290E+01 -0.16442475010E+02 -0.37102338882E+02  0.50528849283E+02  0.29999967881E+02 0.  0.
         12    1    1    2    0    0 -0.24955965290E+01  0.16442475010E+02  0.37102338882E+02  0.40659150717E+02  0.00000000000E+00 0. -1.
         11    1    3    3    0    0  0.28907155158E+01 -0.26904275829E+00 -0.69703976172E+01  0.75508319676E+01  0.51100000000E-03 0. -1.
        -11    1    3    3    0    0 -0.10429434440E+02 -0.80589270676E+01 -0.39024379632E+01  0.13745851394E+02  0.51100000000E-03 0.  1.
        -12    1    3    3    0    0  0.10034315454E+02 -0.81145051846E+01 -0.26229503302E+02  0.29232165922E+02  0.00000000000E+00 0.  1.
</event>
<event>
 7    1  0.5843820E-012  0.5052886E+02  0.7816164E-02  0.1300439E+00
        -11   -1    0    0    0    0  0.00000000000E+00  0.00000000000E+00  0.45593999997E+02  0.45594000000E+02  0.51100000000E-03 0. -1.
         11   -1    0    0    0    0 -0.00000000000E+00 -0.00000000000E+00 -0.45593999997E+02  0.45594000000E+02  0.51100000000E-03 0.  1.
    9900012    2    1    2    0    0  0.30088513394E+01 -0.12734574435E+02 -0.38496016516E+02  0.50528857608E+02  0.29999993185E+02 0.  0.
         12    1    1    2    0    0 -0.30088513394E+01  0.12734574435E+02  0.38496016516E+02  0.40659142392E+02  0.00000000000E+00 0. -1.
         11    1    3    3    0    0  0.63938041286E+01 -0.13870632102E+02 -0.19176583754E+02  0.24515638496E+02  0.51100000000E-03 0.  1.
        -11    1    3    3    0    0  0.47882953358E+01 -0.42564964908E+01 -0.32212890332E+01  0.71709300580E+01  0.51100000000E-03 0. -1.
         12    1    3    3    0    0 -0.81732481250E+01  0.53925541573E+01 -0.16098143730E+02  0.18842289054E+02  0.00000000000E+00 0. -1.
</event>
<event>
 7    1  0.5843820E-012  0.5052887E+02  0.7816164E-02  0.1300439E+00
        -11   -1    0    0    0    0  0.00000000000E+00  0.00000000000E+00  0.45593999997E+02  0.45594000000E+02  0.51100000000E-03 0. -1.
         11   -1    0    0    0    0 -0.00000000000E+00 -0.00000000000E+00 -0.45593999997E+02  0.45594000000E+02  0.51100000000E-03 0.  1.
    9900012    2    1    2    0    0  0.36324410973E+01  0.16071786681E+02  0.37170797697E+02  0.50528866255E+02  0.30000019468E+02 0.  0.
        -12    1    1    2    0    0 -0.36324410973E+01 -0.16071786681E+02 -0.37170797697E+02  0.40659133745E+02  0.00000000000E+00 0.  1.
         11    1    3    3    0    0  0.12237378380E+02  0.14798532275E+02  0.30378332371E+02  0.35938740448E+02  0.51100000000E-03 0. -1.
        -11    1    3    3    0    0 -0.57969909611E+01  0.48128976192E+01  0.66819521144E+01  0.10070629177E+02  0.51100000000E-03 0.  1.
        -12    1    3    3    0    0 -0.28079463217E+01 -0.35396432124E+01  0.11051321215E+00  0.45194966297E+01  0.00000000000E+00 0.  1.
</event>
<event>
 7    1  0.5843820E-012  0.5052886E+02  0.7816164E-02  0.1300439E+00
        -11   -1    0    0    0    0  0.00000000000E+00  0.00000000000E+00  0.45593999997E+02  0.45594000000E+02  0.51100000000E-03 0. -1.
         11   -1    0    0    0    0 -0.00000000000E+00 -0.00000000000E+00 -0.45593999997E+02  0.45594000000E+02  0.51100000000E-03 0.  1.
    9900012    2    1    2    0    0  0.29879590435E+02  0.23347930104E+02 -0.14671403308E+02  0.50528857858E+02  0.29999993945E+02 0.  0.
         12    1    1    2    0    0 -0.29879590435E+02 -0.23347930104E+02  0.14671403308E+02  0.40659142142E+02  0.00000000000E+00 0. -1.
         11    1    3    3    0    0  0.61718006664E+01  0.63272124792E+01  0.73655524055E+01  0.11505481464E+02  0.51100000000E-03 0. -1.
        -11    1    3    3    0    0  0.52565941957E+01  0.85850148752E+01 -0.15400194241E+01  0.10183610511E+02  0.51100000000E-03 0.  1.
         12    1    3    3    0    0  0.18451195573E+02  0.84357027498E+01 -0.20496936289E+02  0.28839765883E+02  0.00000000000E+00 0. -1.
</event>
<event>
 7    1  0.5843820E-012  0.5052886E+02  0.7816164E-02  0.1300439E+00
        -11   -1    0    0    0    0  0.00000000000E+00  0.00000000000E+00  0.45593999997E+02  0.45594000000E+02  0.51100000000E-03 0. -1.
         11   -1    0    0    0    0 -0.00000000000E+00 -0.00000000000E+00 -0.45593999997E+02  0.45594000000E+02  0.51100000000E-03 0.  1.
    9900012    2    1    2    0    0 -0.98887492268E+01  0.26996288715E+01 -0.39345778630E+02  0.50528860150E+02  0.30000000913E+02 0.  0.
         12    1    1    2    0    0  0.98887492268E+01 -0.26996288715E+01  0.39345778630E+02  0.40659139850E+02  0.00000000000E+00 0. -1.
         11    1    3    3    0    0 -0.12329165456E+01 -0.51484154413E+01 -0.11850851948E+02  0.12979559195E+02  0.51100000000E-03 0. -1.
        -11    1    3    3    0    0 -0.52868727580E+01 -0.51844413339E+01 -0.21637099666E+02  0.22869051964E+02  0.51100000000E-03 0.  1.
         12    1    3    3    0    0 -0.33689599232E+01  0.13032485647E+02 -0.58578270167E+01  0.14680248991E+02  0.00000000000E+00 0. -1.
</event>
<event>
 7    1  0.5843820E-012  0.5052885E+02  0.7816164E-02  0.1300439E+00
        -11   -1    0    0    0    0  0.00000000000E+00  0.00000000000E+00  0.45593999997E+02  0.45594000000E+02  0.51100000000E-03 0. -1.
         11   -1    0    0    0    0 -0.00000000000E+00 -0.00000000000E+00 -0.45593999997E+02  0.45594000000E+02  0.51100000000E-03 0.  1.
    9900012    2    1    2    0    0  0.14275111091E+02  0.14063719435E+02  0.35377946641E+02  0.50528854541E+02  0.29999983861E+02 0.  0.
        -12    1    1    2    0    0 -0.14275111091E+02 -0.14063719435E+02 -0.35377946641E+02  0.40659145459E+02  0.00000000000E+00 0.  1.
         11    1    3    3    0    0  0.77357190867E+01  0.18690801668E+01  0.13549480585E+02  0.15713791231E+02  0.51100000000E-03 0. -1.
        -11    1    3    3    0    0  0.38274724367E+01  0.36128952247E+01  0.24788213335E+02  0.25340838142E+02  0.51100000000E-03 0.  1.
        -12    1    3    3    0    0  0.27119195671E+01  0.85817440435E+01 -0.29597472794E+01  0.94742251675E+01  0.00000000000E+00 0.  1.
</event>
<event>
 7    1  0.5843820E-012  0.5052884E+02  0.7816164E-02  0.1300439E+00
        -11   -1    0    0    0    0  0.00000000000E+00  0.00000000000E+00  0.45593999997E+02  0.45594000000E+02  0.51100000000E-03 0. -1.
         11   -1    0    0    0    0 -0.00000000000E+00 -0.00000000000E+00 -0.45593999997E+02  0.45594000000E+02  0.51100000000E-03 0.  1.
    9900012    2    1    2    0    0  0.24048679882E+01  0.72855226908E+01  0.39928748996E+02  0.50528840794E+02  0.29999942078E+02 0.  0.
        -12    1    1    2    0    0 -0.24048679882E+01 -0.72855226908E+01 -0.39928748996E+02  0.40659159206E+02  0.00000000000E+00 0.  1.
         11    1    3    3    0    0  0.10292037989E+02 -0.76302621014E+01  0.17907133319E+02  0.22018455206E+02  0.51100000000E-03 0. -1.
        -11    1    3    3    0    0 -0.11436936292E+01 -0.15133917597E+00  0.23667794943E+00  0.11776906965E+01  0.51100000000E-03 0.  1.
         12    1    3    3    0    0 -0.67434763714E+01  0.15067123968E+02  0.21784937728E+02  0.27332694892E+02  0.00000000000E+00 0. -1.
</event>
<event>
 7    1  0.5843820E-012  0.5052886E+02  0.7816164E-02  0.1300439E+00
        -11   -1    0    0    0    0  0.00000000000E+00  0.00000000000E+00  0.45593999997E+02  0.45594000000E+02  0.51100000000E-03 0.  1.
         11   -1    0    0    0    0 -0.00000000000E+00 -0.00000000000E+00 -0.45593999997E+02  0.45594000000E+02  0.51100000000E-03 0. -1.
    9900012    2    1    2    0    0 -0.12787875141E+02 -0.32396667919E+02  0.20978360482E+02  0.50528862633E+02  0.30000008460E+02 0.  0.
         12    1    1    2    0    0  0.12787875141E+02  0.32396667919E+02 -0.20978360482E+02  0.40659137367E+02  0.00000000000E+00 0. -1.
         11    1    3    3    0    0  0.33167368991E+00 -0.19493201770E+02  0.55579863789E+01  0.20272792988E+02  0.51100000000E-03 0. -1.
        -11    1    3    3    0    0 -0.46852639992E+01 -0.16074094409E+02  0.12081435412E+02  0.20646774366E+02  0.51100000000E-03 0.  1.
         12    1    3    3    0    0 -0.84342848321E+01  0.31706282601E+01  0.33389386901E+01  0.96092952795E+01  0.00000000000E+00 0. -1.
</event>
<event>
 7    1  0.5843820E-012  0.5052884E+02  0.7816164E-02  0.1300439E+00
        -11   -1    0    0    0    0  0.00000000000E+00  0.00000000000E+00  0.45593999997E+02  0.45594000000E+02  0.51100000000E-03 0. -1.
         11   -1    0    0    0    0 -0.00000000000E+00 -0.00000000000E+00 -0.45593999997E+02  0.45594000000E+02  0.51100000000E-03 0.  1.
    9900012    2    1    2    0    0  0.83961958392E+01 -0.34161711764E+02  0.20387453898E+02  0.50528844430E+02  0.29999953131E+02 0.  0.
        -12    1    1    2    0    0 -0.83961958392E+01  0.34161711764E+02 -0.20387453898E+02  0.40659155570E+02  0.00000000000E+00 0.  1.
         11    1    3    3    0    0  0.13176088268E+02 -0.27961971141E+02  0.22317649951E+02  0.38125564019E+02  0.51100000000E-03 0. -1.
        -11    1    3    3    0    0  0.12806946732E+01 -0.48976348763E+01  0.15499806586E+01  0.52942843266E+01  0.51100000000E-03 0.  1.
        -12    1    3    3    0    0 -0.60605871016E+01 -0.13021057463E+01 -0.34801767121E+01  0.71089960851E+01  0.00000000000E+00 0.  1.
</event>
<event>
 7    1  0.5843820E-012  0.5052886E+02  0.7816164E-02  0.1300439E+00
        -11   -1    0    0    0    0  0.00000000000E+00  0.00000000000E+00  0.45593999997E+02  0.45594000000E+02  0.51100000000E-03 0.  1.
         11   -1    0    0    0    0 -0.00000000000E+00 -0.00000000000E+00 -0.45593999997E+02  0.45594000000E+02  0.51100000000E-03 0. -1.
    9900012    2    1    2    0    0  0.77206950646E+01 -0.20017379208E+02  0.34537823135E+02  0.50528857983E+02  0.29999994326E+02 0.  0.
        -12    1    1    2    0    0 -0.77206950646E+01  0.20017379208E+02 -0.34537823135E+02  0.40659142017E+02  0.00000000000E+00 0.  1.
         11    1    3    3    0    0  0.80346887521E+01 -0.16904131249E+02  0.13387530575E+02  0.23011559091E+02  0.51100000000E-03 0. -1.
        -11    1    3    3    0    0 -0.17840462207E+01  0.51940961589E+01  0.17470329375E+02  0.18313215571E+02  0.51100000000E-03 0.  1.
         12    1    3    3    0    0  0.14700525332E+01 -0.83073441179E+01  0.36799631847E+01  0.92040833212E+01  0.00000000000E+00 0. -1.
</event>
<event>
 7    1  0.5843820E-012  0.5052886E+02  0.7816164E-02  0.1300439E+00
        -11   -1    0    0    0    0  0.00000000000E+00  0.00000000000E+00  0.45593999997E+02  0.45594000000E+02  0.51100000000E-03 0. -1.
         11   -1    0    0    0    0 -0.00000000000E+00 -0.00000000000E+00 -0.45593999997E+02  0.45594000000E+02  0.51100000000E-03 0.  1.
    9900012    2    1    2    0    0  0.75010179709E+01  0.10562175194E+02 -0.38540121505E+02  0.50528858580E+02  0.29999996139E+02 0.  0.
         12    1    1    2    0    0 -0.75010179709E+01 -0.10562175194E+02  0.38540121505E+02  0.40659141420E+02  0.00000000000E+00 0. -1.
         11    1    3    3    0    0  0.14396529950E+02  0.11565177519E+02 -0.12663151004E+02  0.22391266137E+02  0.51100000000E-03 0. -1.
        -11    1    3    3    0    0  0.16162132400E+01  0.14328694856E+01 -0.60406899463E+01  0.64152315225E+01  0.51100000000E-03 0.  1.
        -12    1    3    3    0    0 -0.85117252187E+01 -0.24358718107E+01 -0.19836280555E+02  0.21722360920E+02  0.00000000000E+00 0.  1.
</event>
<event>
 7    1  0.5843820E-012  0.5052885E+02  0.7816164E-02  0.1300439E+00
        -11   -1    0    0    0    0  0.00000000000E+00  0.00000000000E+00  0.45593999997E+02  0.45594000000E+02  0.51100000000E-03 0. -1.
         11   -1    0    0    0    0 -0.00000000000E+00 -0.00000000000E+00 -0.45593999997E+02  0.45594000000E+02  0.51100000000E-03 0.  1.
    9900012    2    1    2    0    0  0.23048435689E+02 -0.65360520453E+01  0.32851424268E+02  0.50528850470E+02  0.29999971488E+02 0.  0.
        -12    1    1    2    0    0 -0.23048435689E+02  0.65360520453E+01 -0.32851424268E+02  0.40659149530E+02  0.00000000000E+00 0.  1.
         11    1    3    3    0    0  0.13276827453E+02 -0.52954374128E+01  0.22507040237E+02  0.26662382960E+02  0.51100000000E-03 0. -1.
        -11    1    3    3    0    0  0.99596830171E+01 -0.81940301171E+01  0.10902819925E+02  0.16888128906E+02  0.51100000000E-03 0.  1.
         12    1    3    3    0    0 -0.18807478130E+00  0.69534154847E+01 -0.55843589357E+00  0.69783386041E+01  0.00000000000E+00 0. -1.
</event>
<event>
 7    1  0.5843820E-012  0.5052887E+02  0.7816164E-02  0.1300439E+00
        -11   -1    0    0    0    0  0.00000000000E+00  0.00000000000E+00  0.45593999997E+02  0.45594000000E+02  0.51100000000E-03 0. -1.
         11   -1    0    0    0    0 -0.00000000000E+00 -0.00000000000E+00 -0.45593999997E+02  0.45594000000E+02  0.51100000000E-03 0.  1.
    9900012    2    1    2    0    0  0.12615711133E+02  0.15354817349E+02 -0.35471656847E+02  0.50528867905E+02  0.30000024485E+02 0.  0.
         12    1    1    2    0    0 -0.12615711133E+02 -0.15354817349E+02  0.35471656847E+02  0.40659132095E+02  0.00000000000E+00 0. -1.
         11    1    3    3    0    0  0.42890545571E+01  0.15789801862E+01 -0.43360501188E+01  0.63000395487E+01  0.51100000000E-03 0. -1.
        -11    1    3    3    0    0  0.22017345798E+01  0.15753581257E+02 -0.33727442834E+02  0.37290258218E+02  0.51100000000E-03 0.  1.
         12    1    3    3    0    0  0.61249219963E+01 -0.19777440945E+01  0.25918361059E+01  0.69385701382E+01  0.00000000000E+00 0. -1.
</event>
<event>
 7    1  0.5843820E-012  0.5052887E+02  0.7816164E-02  0.1300439E+00
        -11   -1    0    0    0    0  0.00000000000E+00  0.00000000000E+00  0.45593999997E+02  0.45594000000E+02  0.51100000000E-03 0. -1.
         11   -1    0    0    0    0 -0.00000000000E+00 -0.00000000000E+00 -0.45593999997E+02  0.45594000000E+02  0.51100000000E-03 0.  1.
    9900012    2    1    2    0    0 -0.95721476872E+01 -0.20687549189E+02  0.33668440600E+02  0.50528873162E+02  0.30000040464E+02 0.  0.
        -12    1    1    2    0    0  0.95721476872E+01  0.20687549189E+02 -0.33668440600E+02  0.40659126838E+02  0.00000000000E+00 0.  1.
         11    1    3    3    0    0 -0.38942123239E+01  0.32501804560E+01  0.94433435923E+01  0.10719389026E+02  0.51100000000E-03 0. -1.
        -11    1    3    3    0    0 -0.45199440043E+01  0.21244803261E+01  0.15083210217E+01  0.52171201849E+01  0.51100000000E-03 0.  1.
        -12    1    3    3    0    0 -0.11579913591E+01 -0.26062209971E+02  0.22716775986E+02  0.34592363952E+02  0.00000000000E+00 0.  1.
</event>
<event>
 7    1  0.5843820E-012  0.5052883E+02  0.7816164E-02  0.1300439E+00
        -11   -1    0    0    0    0  0.00000000000E+00  0.00000000000E+00  0.45593999997E+02  0.45594000000E+02  0.51100000000E-03 0. -1.
         11   -1    0    0    0    0 -0.00000000000E+00 -0.00000000000E+00 -0.45593999997E+02  0.45594000000E+02  0.51100000000E-03 0.  1.
    9900012    2    1    2    0    0  0.17034628810E+02 -0.66443695457E+01  0.36315866514E+02  0.50528826545E+02  0.29999898767E+02 0.  0.
        -12    1    1    2    0    0 -0.17034628810E+02  0.66443695457E+01 -0.36315866514E+02  0.40659173455E+02  0.00000000000E+00 0.  1.
         11    1    3    3    0    0 -0.61439298285E+01 -0.16359409629E+01  0.13286557914E+02  0.14729453420E+02  0.51100000000E-03 0. -1.
        -11    1    3    3    0    0  0.11654969857E+02 -0.31107735320E+01  0.20597778896E+02  0.23870143067E+02  0.51100000000E-03 0.  1.
        -12    1    3    3    0    0  0.11523588781E+02 -0.18976550508E+01  0.24315297039E+01  0.11929230058E+02  0.00000000000E+00 0.  1.
</event>
<event>
 7    1  0.5843820E-012  0.5052886E+02  0.7816164E-02  0.1300439E+00
        -11   -1    0    0    0    0  0.00000000000E+00  0.00000000000E+00  0.45593999997E+02  0.45594000000E+02  0.51100000000E-03 0.  1.
         11   -1    0    0    0    0 -0.00000000000E+00 -0.00000000000E+00 -0.45593999997E+02  0.45594000000E+02  0.51100000000E-03 0. -1.
    9900012    2    1    2    0    0  0.27164922004E+02  0.25348362304E+02  0.16513430321E+02  0.50528857855E+02  0.29999993937E+02 0.  0.
        -12    1    1    2    0    0 -0.27164922004E+02 -0.25348362304E+02 -0.16513430321E+02  0.40659142145E+02  0.00000000000E+00 0.  1.
         11    1    3    3    0    0 -0.34151627458E+00 -0.26510680694E+01  0.34993492225E+01  0.44034350815E+01  0.51100000000E-03 0. -1.
        -11    1    3    3    0    0  0.45070136291E+01  0.13858757372E+01  0.97119865828E+01  0.10796133894E+02  0.51100000000E-03 0.  1.
         12    1    3    3    0    0  0.22999424650E+02  0.26613554636E+02  0.33020945157E+01  0.35329288880E+02  0.00000000000E+00 0. -1.
</event>
<event>
 7    1  0.5843820E-012  0.5052886E+02  0.7816164E-02  0.1300439E+00
        -11   -1    0    0    0    0  0.00000000000E+00  0.00000000000E+00  0.45593999997E+02  0.45594000000E+02  0.51100000000E-03 0. -1.
         11   -1    0    0    0    0 -0.00000000000E+00 -0.00000000000E+00 -0.45593999997E+02  0.45594000000E+02  0.51100000000E-03 0.  1.
    9900012    2    1    2    0    0  0.29091330694E+02  0.14049680253E+01 -0.28370515501E+02  0.50528860726E+02  0.30000002663E+02 0.  0.
         12    1    1    2    0    0 -0.29091330694E+02 -0.14049680253E+01  0.28370515501E+02  0.40659139274E+02  0.00000000000E+00 0. -1.
         11    1    3    3    0    0 -0.42382477370E+01 -0.33738816686E+01 -0.85795830223E+01  0.10146677608E+02  0.51100000000E-03 0. -1.
        -11    1    3    3    0    0  0.81722886369E+01  0.55168464049E+01 -0.38190738257E+01  0.10573893368E+02  0.51100000000E-03 0.  1.
        -12    1    3    3    0    0  0.25157289794E+02 -0.73799671105E+00 -0.15971858653E+02  0.29808289749E+02  0.00000000000E+00 0.  1.
</event>
<event>
 7    1  0.5843820E-012  0.5052886E+02  0.7816164E-02  0.1300439E+00
        -11   -1    0    0    0    0  0.00000000000E+00  0.00000000000E+00  0.45593999997E+02  0.45594000000E+02  0.51100000000E-03 0. -1.
         11   -1    0    0    0    0 -0.00000000000E+00 -0.00000000000E+00 -0.45593999997E+02  0.45594000000E+02  0.51100000000E-03 0.  1.
    9900012    2    1    2    0    0  0.22371090152E+01  0.11154013603E+02 -0.39035223153E+02  0.50528864215E+02  0.30000013267E+02 0.  0.
         12    1    1    2    0    0 -0.22371090152E+01 -0.11154013603E+02  0.39035223153E+02  0.40659135785E+02  0.00000000000E+00 0. -1.
         11    1    3    3    0    0  0.47120477184E+01 -0.48888556883E+01 -0.77355160518E+00  0.68339363465E+01  0.51100000000E-03 0. -1.
        -11    1    3    3    0    0  0.43727239571E+01  0.38999525622E+01 -0.52767790569E+01  0.78850962117E+01  0.51100000000E-03 0.  1.
        -12    1    3    3    0    0 -0.68476626602E+01  0.12142916729E+02 -0.32984892491E+02  0.35809831656E+02  0.00000000000E+00 0.  1.
</event>
<event>
 7    1  0.5843820E-012  0.5052888E+02  0.7816164E-02  0.1300439E+00
        -11   -1    0    0    0    0  0.00000000000E+00  0.00000000000E+00  0.45593999997E+02  0.45594000000E+02  0.51100000000E-03 0. -1.
         11   -1    0    0    0    0 -0.00000000000E+00 -0.00000000000E+00 -0.45593999997E+02  0.45594000000E+02  0.51100000000E-03 0.  1.
    9900012    2    1    2    0    0 -0.31694611745E+01  0.17473633798E+02  0.36575823157E+02  0.50528877999E+02  0.30000055166E+02 0.  0.
        -12    1    1    2    0    0  0.31694611745E+01 -0.17473633798E+02 -0.36575823157E+02  0.40659122001E+02  0.00000000000E+00 0.  1.
         11    1    3    3    0    0  0.15744378651E+01  0.48276116221E+01  0.13584497212E+01  0.52564317242E+01  0.51100000000E-03 0.  1.
        -11    1    3    3    0    0 -0.37630674846E+00  0.18595717482E+02  0.15474573089E+02  0.24195138520E+02  0.51100000000E-03 0. -1.
         12    1    3    3    0    0 -0.43675922912E+01 -0.59496953064E+01  0.19742800347E+02  0.21077307755E+02  0.00000000000E+00 0. -1.
</event>
<event>
 7    1  0.5843820E-012  0.5052886E+02  0.7816164E-02  0.1300439E+00
        -11   -1    0    0    0    0  0.00000000000E+00  0.00000000000E+00  0.45593999997E+02  0.45594000000E+02  0.51100000000E-03 0. -1.
         11   -1    0    0    0    0 -0.00000000000E+00 -0.00000000000E+00 -0.45593999997E+02  0.45594000000E+02  0.51100000000E-03 0.  1.
    9900012    2    1    2    0    0 -0.13035658720E+02 -0.28570366930E+02  0.25825792665E+02  0.50528857958E+02  0.29999994250E+02 0.  0.
        -12    1    1    2    0    0  0.13035658720E+02  0.28570366930E+02 -0.25825792665E+02  0.40659142042E+02  0.00000000000E+00 0.  1.
         11    1    3    3    0    0 -0.60355534868E+01 -0.93337182493E+00  0.72947303370E+01  0.95137889301E+01  0.51100000000E-03 0. -1.
        -11    1    3    3    0    0 -0.16957281976E+01  0.40867722111E+01  0.21278555416E+01  0.49096813229E+01  0.51100000000E-03 0.  1.
         12    1    3    3    0    0 -0.53043770353E+01 -0.31723767316E+02  0.16403206786E+02  0.36105387705E+02  0.00000000000E+00 0. -1.
</event>
<event>
 7    1  0.5843820E-012  0.5052886E+02  0.7816164E-02  0.1300439E+00
        -11   -1    0    0    0    0  0.00000000000E+00  0.00000000000E+00  0.45593999997E+02  0.45594000000E+02  0.51100000000E-03 0. -1.
         11   -1    0    0    0    0 -0.00000000000E+00 -0.00000000000E+00 -0.45593999997E+02  0.45594000000E+02  0.51100000000E-03 0.  1.
    9900012    2    1    2    0    0 -0.19643571746E+02 -0.14610703352E+02  0.32462646099E+02  0.50528856439E+02  0.29999989632E+02 0.  0.
        -12    1    1    2    0    0  0.19643571746E+02  0.14610703352E+02 -0.32462646099E+02  0.40659143561E+02  0.00000000000E+00 0.  1.
         11    1    3    3    0    0 -0.14229354888E+02 -0.48211061134E+01  0.24964776486E+02  0.29136878178E+02  0.51100000000E-03 0. -1.
        -11    1    3    3    0    0  0.17872485835E+01  0.40535450004E+01  0.15901646311E+01  0.47068150999E+01  0.51100000000E-03 0.  1.
         12    1    3    3    0    0 -0.72014654411E+01 -0.13843142239E+02  0.59077049814E+01  0.16685163161E+02  0.00000000000E+00 0. -1.
</event>
<event>
 7    1  0.5843820E-012  0.5052887E+02  0.7816164E-02  0.1300439E+00
        -11   -1    0    0    0    0  0.00000000000E+00  0.00000000000E+00  0.45593999997E+02  0.45594000000E+02  0.51100000000E-03 0. -1.
         11   -1    0    0    0    0 -0.00000000000E+00 -0.00000000000E+00 -0.45593999997E+02  0.45594000000E+02  0.51100000000E-03 0.  1.
    9900012    2    1    2    0    0  0.14314528463E+02  0.37532613223E+02 -0.62898157735E+01  0.50528873559E+02  0.30000041671E+02 0.  0.
         12    1    1    2    0    0 -0.14314528463E+02 -0.37532613223E+02  0.62898157735E+01  0.40659126441E+02  0.00000000000E+00 0. -1.
         11    1    3    3    0    0 -0.50612073308E+01  0.22363830043E+02 -0.48678351666E+01  0.23440403864E+02  0.51100000000E-03 0. -1.
        -11    1    3    3    0    0  0.15296764691E+02  0.16496851855E+02 -0.25806402714E+01  0.22645017898E+02  0.51100000000E-03 0.  1.
        -12    1    3    3    0    0  0.40789711028E+01 -0.13280686746E+01  0.11586596644E+01  0.44434517978E+01  0.00000000000E+00 0.  1.
</event>
<event>
 7    1  0.5843820E-012  0.5052886E+02  0.7816164E-02  0.1300439E+00
        -11   -1    0    0    0    0  0.00000000000E+00  0.00000000000E+00  0.45593999997E+02  0.45594000000E+02  0.51100000000E-03 0. -1.
         11   -1    0    0    0    0 -0.00000000000E+00 -0.00000000000E+00 -0.45593999997E+02  0.45594000000E+02  0.51100000000E-03 0.  1.
    9900012    2    1    2    0    0  0.14521019351E+02 -0.31482797020E+02  0.21240032902E+02  0.50528861926E+02  0.30000006311E+02 0.  0.
        -12    1    1    2    0    0 -0.14521019351E+02  0.31482797020E+02 -0.21240032902E+02  0.40659138074E+02  0.00000000000E+00 0.  1.
         11    1    3    3    0    0  0.44007388673E+01  0.27970185112E+01  0.55725481448E+01  0.76317172522E+01  0.51100000000E-03 0. -1.
        -11    1    3    3    0    0 -0.25886473504E+00 -0.18094168043E+02  0.15250097720E+02  0.23664982756E+02  0.51100000000E-03 0.  1.
         12    1    3    3    0    0  0.10379145219E+02 -0.16185647489E+02  0.41738703802E+00  0.19232161918E+02  0.00000000000E+00 0. -1.
</event>
<event>
 7    1  0.5843820E-012  0.5052886E+02  0.7816164E-02  0.1300439E+00
        -11   -1    0    0    0    0  0.00000000000E+00  0.00000000000E+00  0.45593999997E+02  0.45594000000E+02  0.51100000000E-03 0. -1.
         11   -1    0    0    0    0 -0.00000000000E+00 -0.00000000000E+00 -0.45593999997E+02  0.45594000000E+02  0.51100000000E-03 0.  1.
    9900012    2    1    2    0    0 -0.60750728068E+01 -0.29055138517E+02  0.27785932074E+02  0.50528860743E+02  0.30000002716E+02 0.  0.
        -12    1    1    2    0    0  0.60750728068E+01  0.29055138517E+02 -0.27785932074E+02  0.40659139257E+02  0.00000000000E+00 0.  1.
         11    1    3    3    0    0  0.39280893211E+01 -0.20923576407E+02  0.90825008922E+01  0.23145577506E+02  0.51100000000E-03 0. -1.
        -11    1    3    3    0    0  0.16274639955E+01 -0.47391700936E+01  0.13118080164E+02  0.14042521130E+02  0.51100000000E-03 0.  1.
        -12    1    3    3    0    0 -0.11630626123E+02 -0.33923920162E+01  0.55853510182E+01  0.13340762108E+02  0.00000000000E+00 0.  1.
</event>
<event>
 7    1  0.5843820E-012  0.5052891E+02  0.7816164E-02  0.1300439E+00
        -11   -1    0    0    0    0  0.00000000000E+00  0.00000000000E+00  0.45593999997E+02  0.45594000000E+02  0.51100000000E-03 0. -1.
         11   -1    0    0    0    0 -0.00000000000E+00 -0.00000000000E+00 -0.45593999997E+02  0.45594000000E+02  0.51100000000E-03 0.  1.
    9900012    2    1    2    0    0  0.18581082557E+02 -0.32394042570E+01 -0.36019600709E+02  0.50528905025E+02  0.30000137313E+02 0.  0.
         12    1    1    2    0    0 -0.18581082557E+02  0.32394042570E+01  0.36019600709E+02  0.40659094975E+02  0.00000000000E+00 0. -1.
         11    1    3    3    0    0  0.52836245595E+01  0.19311425043E+01 -0.26336157982E+01  0.62114356063E+01  0.51100000000E-03 0. -1.
        -11    1    3    3    0    0  0.10071839557E+02  0.79127709192E+01 -0.25920912365E+02  0.28912758322E+02  0.51100000000E-03 0.  1.
         12    1    3    3    0    0  0.32256184408E+01 -0.13083317680E+02 -0.74650725457E+01  0.15404711096E+02  0.00000000000E+00 0. -1.
</event>
<event>
 7    1  0.5843820E-012  0.5052886E+02  0.7816164E-02  0.1300439E+00
        -11   -1    0    0    0    0  0.00000000000E+00  0.00000000000E+00  0.45593999997E+02  0.45594000000E+02  0.51100000000E-03 0.  1.
         11   -1    0    0    0    0 -0.00000000000E+00 -0.00000000000E+00 -0.45593999997E+02  0.45594000000E+02  0.51100000000E-03 0. -1.
    9900012    2    1    2    0    0 -0.40524510885E+02 -0.27899817296E+01  0.17736697506E+01  0.50528857303E+02  0.29999992257E+02 0.  0.
         12    1    1    2    0    0  0.40524510885E+02  0.27899817296E+01 -0.17736697506E+01  0.40659142697E+02  0.00000000000E+00 0. -1.
         11    1    3    3    0    0 -0.35735670334E+02 -0.10965696048E+00 -0.23585183623E+01  0.35813583569E+02  0.51100000000E-03 0. -1.
        -11    1    3    3    0    0 -0.92257045202E+01 -0.29176949366E+01  0.26709807726E+01  0.10037963249E+02  0.51100000000E-03 0.  1.
         12    1    3    3    0    0  0.44368639699E+01  0.23737016742E+00  0.14612073404E+01  0.46773104853E+01  0.00000000000E+00 0. -1.
</event>
<event>
 7    1  0.5843820E-012  0.5052886E+02  0.7816164E-02  0.1300439E+00
        -11   -1    0    0    0    0  0.00000000000E+00  0.00000000000E+00  0.45593999997E+02  0.45594000000E+02  0.51100000000E-03 0. -1.
         11   -1    0    0    0    0 -0.00000000000E+00 -0.00000000000E+00 -0.45593999997E+02  0.45594000000E+02  0.51100000000E-03 0.  1.
    9900012    2    1    2    0    0 -0.33199831115E+02 -0.81465692692E+01 -0.22012956431E+02  0.50528860464E+02  0.30000001868E+02 0.  0.
         12    1    1    2    0    0  0.33199831115E+02  0.81465692692E+01  0.22012956431E+02  0.40659139536E+02  0.00000000000E+00 0. -1.
         11    1    3    3    0    0  0.17838294815E+01  0.41268302061E+00 -0.14907889693E+00  0.18370029051E+01  0.51100000000E-03 0. -1.
        -11    1    3    3    0    0 -0.23029350077E+01  0.48145648531E+01  0.23957687524E+01  0.58500643202E+01  0.51100000000E-03 0.  1.
        -12    1    3    3    0    0 -0.32680725589E+02 -0.13373817143E+02 -0.24259646287E+02  0.42841793239E+02  0.00000000000E+00 0.  1.
</event>
<event>
 7    1  0.5843820E-012  0.5052886E+02  0.7816164E-02  0.1300439E+00
        -11   -1    0    0    0    0  0.00000000000E+00  0.00000000000E+00  0.45593999997E+02  0.45594000000E+02  0.51100000000E-03 0.  1.
         11   -1    0    0    0    0 -0.00000000000E+00 -0.00000000000E+00 -0.45593999997E+02  0.45594000000E+02  0.51100000000E-03 0. -1.
    9900012    2    1    2    0    0 -0.12360202250E+02  0.29586151403E+02 -0.25001014157E+02  0.50528860026E+02  0.30000000536E+02 0.  0.
        -12    1    1    2    0    0  0.12360202250E+02 -0.29586151403E+02  0.25001014157E+02  0.40659139974E+02  0.00000000000E+00 0.  1.
         11    1    3    3    0    0 -0.39960147331E+01  0.32660320913E+02 -0.17402810468E+02  0.37222607489E+02  0.51100000000E-03 0.  1.
        -11    1    3    3    0    0  0.89220876147E-01 -0.12188792421E+01 -0.35445980965E+01  0.37493736675E+01  0.51100000000E-03 0. -1.
        -12    1    3    3    0    0 -0.84534083927E+01 -0.18552902672E+01 -0.40536055924E+01  0.95568788695E+01  0.00000000000E+00 0.  1.
</event>
<event>
 7    1  0.5843820E-012  0.5052886E+02  0.7816164E-02  0.1300439E+00
        -11   -1    0    0    0    0  0.00000000000E+00  0.00000000000E+00  0.45593999997E+02  0.45594000000E+02  0.51100000000E-03 0. -1.
         11   -1    0    0    0    0 -0.00000000000E+00 -0.00000000000E+00 -0.45593999997E+02  0.45594000000E+02  0.51100000000E-03 0.  1.
    9900012    2    1    2    0    0 -0.26345766262E+02  0.16928159739E+02  0.25932675466E+02  0.50528860205E+02  0.30000001078E+02 0.  0.
        -12    1    1    2    0    0  0.26345766262E+02 -0.16928159739E+02 -0.25932675466E+02  0.40659139795E+02  0.00000000000E+00 0.  1.
         11    1    3    3    0    0 -0.95119982708E+00  0.11854439033E+02  0.11148351330E+02  0.16300866344E+02  0.51100000000E-03 0. -1.
        -11    1    3    3    0    0 -0.41621768211E+01 -0.51210136558E+01  0.35984543547E+00  0.66089322701E+01  0.51100000000E-03 0.  1.
        -12    1    3    3    0    0 -0.21232389614E+02  0.10194734361E+02  0.14424478700E+02  0.27619061591E+02  0.00000000000E+00 0.  1.
</event>
<event>
 7    1  0.5843820E-012  0.5052884E+02  0.7816164E-02  0.1300439E+00
        -11   -1    0    0    0    0  0.00000000000E+00  0.00000000000E+00  0.45593999997E+02  0.45594000000E+02  0.51100000000E-03 0. -1.
         11   -1    0    0    0    0 -0.00000000000E+00 -0.00000000000E+00 -0.45593999997E+02  0.45594000000E+02  0.51100000000E-03 0.  1.
    9900012    2    1    2    0    0  0.19059487728E+02  0.16491239090E+02 -0.31905203441E+02  0.50528843027E+02  0.29999948864E+02 0.  0.
         12    1    1    2    0    0 -0.19059487728E+02 -0.16491239090E+02  0.31905203441E+02  0.40659156973E+02  0.00000000000E+00 0. -1.
         11    1    3    3    0    0  0.11306681689E+02  0.13566711682E+02 -0.27952769065E+02  0.33064391955E+02  0.51100000000E-03 0. -1.
        -11    1    3    3    0    0  0.26456594563E+01  0.72017404306E+01 -0.67693154257E+01  0.10231725699E+02  0.51100000000E-03 0.  1.
         12    1    3    3    0    0  0.51071465833E+01 -0.42772130225E+01  0.28168810505E+01  0.72327253726E+01  0.00000000000E+00 0. -1.
</event>
<event>
 7    1  0.5843820E-012  0.5052886E+02  0.7816164E-02  0.1300439E+00
        -11   -1    0    0    0    0  0.00000000000E+00  0.00000000000E+00  0.45593999997E+02  0.45594000000E+02  0.51100000000E-03 0. -1.
         11   -1    0    0    0    0 -0.00000000000E+00 -0.00000000000E+00 -0.45593999997E+02  0.45594000000E+02  0.51100000000E-03 0.  1.
    9900012    2    1    2    0    0  0.22844946183E+00 -0.34828292778E+02 -0.20978644291E+02  0.50528859782E+02  0.29999999793E+02 0.  0.
         12    1    1    2    0    0 -0.22844946183E+00  0.34828292778E+02  0.20978644291E+02  0.40659140218E+02  0.00000000000E+00 0. -1.
         11    1    3    3    0    0 -0.26078476637E+01 -0.47773701313E+01  0.16763843429E+01  0.56951206778E+01  0.51100000000E-03 0. -1.
        -11    1    3    3    0    0  0.82798310204E+01 -0.86785181887E+01  0.15423988623E+01  0.12093439304E+02  0.51100000000E-03 0.  1.
         12    1    3    3    0    0 -0.54435338949E+01 -0.21372404458E+02 -0.24197427496E+02  0.32740299800E+02  0.00000000000E+00 0. -1.
</event>
<event>
 7    1  0.5843820E-012  0.5052884E+02  0.7816164E-02  0.1300439E+00
        -11   -1    0    0    0    0  0.00000000000E+00  0.00000000000E+00  0.45593999997E+02  0.45594000000E+02  0.51100000000E-03 0. -1.
         11   -1    0    0    0    0 -0.00000000000E+00 -0.00000000000E+00 -0.45593999997E+02  0.45594000000E+02  0.51100000000E-03 0.  1.
    9900012    2    1    2    0    0 -0.10178535431E+02  0.10410119257E+02 -0.37963059178E+02  0.50528843237E+02  0.29999949505E+02 0.  0.
         12    1    1    2    0    0  0.10178535431E+02 -0.10410119257E+02  0.37963059178E+02  0.40659156763E+02  0.00000000000E+00 0. -1.
         11    1    3    3    0    0  0.30115053363E+01  0.68232039584E+01 -0.33999178087E+02  0.34807605311E+02  0.51100000000E-03 0.  1.
        -11    1    3    3    0    0 -0.55646646179E+01  0.41395454022E+01 -0.41337347714E+01  0.80739762118E+01  0.51100000000E-03 0. -1.
        -12    1    3    3    0    0 -0.76253761497E+01 -0.55263010362E+00  0.16985368032E+00  0.76472617144E+01  0.00000000000E+00 0.  1.
</event>
<event>
 7    1  0.5843820E-012  0.5052885E+02  0.7816164E-02  0.1300439E+00
        -11   -1    0    0    0    0  0.00000000000E+00  0.00000000000E+00  0.45593999997E+02  0.45594000000E+02  0.51100000000E-03 0. -1.
         11   -1    0    0    0    0 -0.00000000000E+00 -0.00000000000E+00 -0.45593999997E+02  0.45594000000E+02  0.51100000000E-03 0.  1.
    9900012    2    1    2    0    0 -0.18761693395E+01 -0.23108501879E+02  0.33401255893E+02  0.50528846471E+02  0.29999959333E+02 0.  0.
        -12    1    1    2    0    0  0.18761693395E+01  0.23108501879E+02 -0.33401255893E+02  0.40659153529E+02  0.00000000000E+00 0.  1.
         11    1    3    3    0    0  0.52474524703E+01 -0.10404589329E+02  0.44342936030E+01  0.12468127227E+02  0.51100000000E-03 0. -1.
        -11    1    3    3    0    0  0.18693395770E+00 -0.51841048846E+01 -0.18504332579E+01  0.55076302765E+01  0.51100000000E-03 0.  1.
         12    1    3    3    0    0 -0.73105557675E+01 -0.75198076652E+01  0.30817395548E+02  0.32553088967E+02  0.00000000000E+00 0. -1.
</event>
<event>
 7    1  0.5843820E-012  0.5052886E+02  0.7816164E-02  0.1300439E+00
        -11   -1    0    0    0    0  0.00000000000E+00  0.00000000000E+00  0.45593999997E+02  0.45594000000E+02  0.51100000000E-03 0. -1.
         11   -1    0    0    0    0 -0.00000000000E+00 -0.00000000000E+00 -0.45593999997E+02  0.45594000000E+02  0.51100000000E-03 0.  1.
    9900012    2    1    2    0    0 -0.28519782993E+02  0.11816702303E+02  0.26460403537E+02  0.50528862888E+02  0.30000009235E+02 0.  0.
        -12    1    1    2    0    0  0.28519782993E+02 -0.11816702303E+02 -0.26460403537E+02  0.40659137112E+02  0.00000000000E+00 0.  1.
         11    1    3    3    0    0 -0.11854937001E+02  0.43444151438E+01  0.59847134050E+01  0.13972482565E+02  0.51100000000E-03 0. -1.
        -11    1    3    3    0    0 -0.13890553714E+02  0.56384725744E+01 -0.80930401026E+00  0.15013155188E+02  0.51100000000E-03 0.  1.
         12    1    3    3    0    0 -0.27742922789E+01  0.18338145852E+01  0.21284994143E+02  0.21543225135E+02  0.00000000000E+00 0. -1.
</event>
<event>
 7    1  0.5843820E-012  0.5052886E+02  0.7816164E-02  0.1300439E+00
        -11   -1    0    0    0    0  0.00000000000E+00  0.00000000000E+00  0.45593999997E+02  0.45594000000E+02  0.51100000000E-03 0. -1.
         11   -1    0    0    0    0 -0.00000000000E+00 -0.00000000000E+00 -0.45593999997E+02  0.45594000000E+02  0.51100000000E-03 0.  1.
    9900012    2    1    2    0    0  0.13276431547E+02  0.23121867694E+02  0.30696595264E+02  0.50528863744E+02  0.30000011837E+02 0.  0.
        -12    1    1    2    0    0 -0.13276431547E+02 -0.23121867694E+02 -0.30696595264E+02  0.40659136256E+02  0.00000000000E+00 0.  1.
         11    1    3    3    0    0  0.34880676947E+01  0.12486980966E+01 -0.29570241755E+00  0.37166252650E+01  0.51100000000E-03 0. -1.
        -11    1    3    3    0    0  0.44224931439E+01 -0.54880872649E+01  0.80907129488E+01  0.10730199612E+02  0.51100000000E-03 0.  1.
         12    1    3    3    0    0  0.53658707086E+01  0.27361256862E+02  0.22901584732E+02  0.36082038867E+02  0.00000000000E+00 0. -1.
</event>
<event>
 7    1  0.5843820E-012  0.5052886E+02  0.7816164E-02  0.1300439E+00
        -11   -1    0    0    0    0  0.00000000000E+00  0.00000000000E+00  0.45593999997E+02  0.45594000000E+02  0.51100000000E-03 0. -1.
         11   -1    0    0    0    0 -0.00000000000E+00 -0.00000000000E+00 -0.45593999997E+02  0.45594000000E+02  0.51100000000E-03 0.  1.
    9900012    2    1    2    0    0 -0.16354035522E+02 -0.22659903267E+02  0.29533702473E+02  0.50528864794E+02  0.30000015029E+02 0.  0.
        -12    1    1    2    0    0  0.16354035522E+02  0.22659903267E+02 -0.29533702473E+02  0.40659135206E+02  0.00000000000E+00 0.  1.
         11    1    3    3    0    0  0.18448735142E+00 -0.21877020264E+02  0.11940958202E+02  0.24924376306E+02  0.51100000000E-03 0. -1.
        -11    1    3    3    0    0 -0.74277747285E+01 -0.45709283229E+01  0.77428763621E+01  0.11662647974E+02  0.51100000000E-03 0.  1.
        -12    1    3    3    0    0 -0.91107481446E+01  0.37880453198E+01  0.98498679086E+01  0.13941840514E+02  0.00000000000E+00 0.  1.
</event>
<event>
 7    1  0.5843820E-012  0.5052885E+02  0.7816164E-02  0.1300439E+00
        -11   -1    0    0    0    0  0.00000000000E+00  0.00000000000E+00  0.45593999997E+02  0.45594000000E+02  0.51100000000E-03 0. -1.
         11   -1    0    0    0    0 -0.00000000000E+00 -0.00000000000E+00 -0.45593999997E+02  0.45594000000E+02  0.51100000000E-03 0.  1.
    9900012    2    1    2    0    0 -0.25597157121E+02 -0.16223940119E+02 -0.27106017373E+02  0.50528845268E+02  0.29999955677E+02 0.  0.
         12    1    1    2    0    0  0.25597157121E+02  0.16223940119E+02  0.27106017373E+02  0.40659154732E+02  0.00000000000E+00 0. -1.
         11    1    3    3    0    0 -0.76208670067E+01 -0.57686953947E+01 -0.98714672570E+01  0.13740499502E+02  0.51100000000E-03 0. -1.
        -11    1    3    3    0    0 -0.95658015473E+01 -0.14905414253E+02 -0.20158862262E+02  0.26833852896E+02  0.51100000000E-03 0.  1.
         12    1    3    3    0    0 -0.84104885675E+01  0.44501695283E+01  0.29243121459E+01  0.99544928701E+01  0.00000000000E+00 0. -1.
</event>
<event>
 7    1  0.5843820E-012  0.5052887E+02  0.7816164E-02  0.1300439E+00
        -11   -1    0    0    0    0  0.00000000000E+00  0.00000000000E+00  0.45593999997E+02  0.45594000000E+02  0.51100000000E-03 0. -1.
         11   -1    0    0    0    0 -0.00000000000E+00 -0.00000000000E+00 -0.45593999997E+02  0.45594000000E+02  0.51100000000E-03 0.  1.
    9900012    2    1    2    0    0 -0.25267053701E+02  0.24356104400E+02  0.20530982839E+02  0.50528867193E+02  0.30000022320E+02 0.  0.
        -12    1    1    2    0    0  0.25267053701E+02 -0.24356104400E+02 -0.20530982839E+02  0.40659132807E+02  0.00000000000E+00 0.  1.
         11    1    3    3    0    0 -0.18755963536E+02  0.10844706145E+02  0.19209585730E+02  0.28955172314E+02  0.51100000000E-03 0. -1.
        -11    1    3    3    0    0 -0.34390514744E+01  0.47892725626E+01  0.81636668771E+01  0.10070236535E+02  0.51100000000E-03 0.  1.
        -12    1    3    3    0    0 -0.30720386903E+01  0.87221256926E+01 -0.68422697679E+01  0.11503458345E+02  0.00000000000E+00 0.  1.
</event>
<event>
 7    1  0.5843820E-012  0.5052886E+02  0.7816164E-02  0.1300439E+00
        -11   -1    0    0    0    0  0.00000000000E+00  0.00000000000E+00  0.45593999997E+02  0.45594000000E+02  0.51100000000E-03 0. -1.
         11   -1    0    0    0    0 -0.00000000000E+00 -0.00000000000E+00 -0.45593999997E+02  0.45594000000E+02  0.51100000000E-03 0.  1.
    9900012    2    1    2    0    0 -0.23804024427E+02  0.13480926613E+02 -0.30079869393E+02  0.50528861987E+02  0.30000006496E+02 0.  0.
         12    1    1    2    0    0  0.23804024427E+02 -0.13480926613E+02  0.30079869393E+02  0.40659138013E+02  0.00000000000E+00 0. -1.
         11    1    3    3    0    0  0.56352084856E+00  0.89112646623E+00  0.19505845574E+01  0.22173052343E+01  0.51100000000E-03 0. -1.
        -11    1    3    3    0    0  0.65057145322E+00 -0.90048804764E+00  0.30007026639E+01  0.31997404079E+01  0.51100000000E-03 0.  1.
        -12    1    3    3    0    0 -0.25018116729E+02  0.13490288194E+02 -0.35031156614E+02  0.45111816345E+02  0.00000000000E+00 0.  1.
</event>
<event>
 7    1  0.5843820E-012  0.5052886E+02  0.7816164E-02  0.1300439E+00
        -11   -1    0    0    0    0  0.00000000000E+00  0.00000000000E+00  0.45593999997E+02  0.45594000000E+02  0.51100000000E-03 0.  1.
         11   -1    0    0    0    0 -0.00000000000E+00 -0.00000000000E+00 -0.45593999997E+02  0.45594000000E+02  0.51100000000E-03 0. -1.
    9900012    2    1    2    0    0 -0.38975881762E+02 -0.90582442471E+01 -0.72107214234E+01  0.50528860174E+02  0.30000000983E+02 0.  0.
        -12    1    1    2    0    0  0.38975881762E+02  0.90582442471E+01  0.72107214234E+01  0.40659139826E+02  0.00000000000E+00 0.  1.
         11    1    3    3    0    0 -0.21510230228E+02 -0.82639425738E+01  0.79628809254E+01  0.24380119446E+02  0.51100000000E-03 0. -1.
        -11    1    3    3    0    0  0.10271851193E+01 -0.69443157325E+00  0.99062693065E+00  0.15870370053E+01  0.51100000000E-03 0.  1.
         12    1    3    3    0    0 -0.18492836654E+02 -0.99870100015E-01 -0.16164229279E+02  0.24561703722E+02  0.00000000000E+00 0. -1.
</event>
<event>
 7    1  0.5843820E-012  0.5052886E+02  0.7816164E-02  0.1300439E+00
        -11   -1    0    0    0    0  0.00000000000E+00  0.00000000000E+00  0.45593999997E+02  0.45594000000E+02  0.51100000000E-03 0. -1.
         11   -1    0    0    0    0 -0.00000000000E+00 -0.00000000000E+00 -0.45593999997E+02  0.45594000000E+02  0.51100000000E-03 0.  1.
    9900012    2    1    2    0    0 -0.39823565392E+01  0.72808634504E+01 -0.39803210147E+02  0.50528859893E+02  0.30000000131E+02 0.  0.
         12    1    1    2    0    0  0.39823565392E+01 -0.72808634504E+01  0.39803210147E+02  0.40659140107E+02  0.00000000000E+00 0. -1.
         11    1    3    3    0    0 -0.78874251872E+01 -0.45950680931E+01 -0.18666197464E+02  0.20778668265E+02  0.51100000000E-03 0. -1.
        -11    1    3    3    0    0  0.67870448773E+01  0.93492519791E+01 -0.22809484153E+02  0.25568438715E+02  0.51100000000E-03 0.  1.
         12    1    3    3    0    0 -0.28819762294E+01  0.25266795644E+01  0.16724714693E+01  0.41817529128E+01  0.00000000000E+00 0. -1.
</event>
<event>
 7    1  0.5843820E-012  0.5052887E+02  0.7816164E-02  0.1300439E+00
        -11   -1    0    0    0    0  0.00000000000E+00  0.00000000000E+00  0.45593999997E+02  0.45594000000E+02  0.51100000000E-03 0. -1.
         11   -1    0    0    0    0 -0.00000000000E+00 -0.00000000000E+00 -0.45593999997E+02  0.45594000000E+02  0.51100000000E-03 0.  1.
    9900012    2    1    2    0    0  0.11990393479E+02 -0.29804968674E+02  0.24921058346E+02  0.50528870121E+02  0.30000031218E+02 0.  0.
        -12    1    1    2    0    0 -0.11990393479E+02  0.29804968674E+02 -0.24921058346E+02  0.40659129879E+02  0.00000000000E+00 0.  1.
         11    1    3    3    0    0  0.22099238962E+01 -0.10373781146E+02  0.40649274444E+00  0.10614345741E+02  0.51100000000E-03 0. -1.
        -11    1    3    3    0    0  0.92363064320E+01 -0.21035582276E+02  0.95918644901E+01  0.24895962380E+02  0.51100000000E-03 0.  1.
        -12    1    3    3    0    0  0.54416315073E+00  0.16043947480E+01  0.14922701112E+02  0.15018561999E+02  0.00000000000E+00 0.  1.
</event>
<event>
 7    1  0.5843820E-012  0.5052886E+02  0.7816164E-02  0.1300439E+00
        -11   -1    0    0    0    0  0.00000000000E+00  0.00000000000E+00  0.45593999997E+02  0.45594000000E+02  0.51100000000E-03 0. -1.
         11   -1    0    0    0    0 -0.00000000000E+00 -0.00000000000E+00 -0.45593999997E+02  0.45594000000E+02  0.51100000000E-03 0.  1.
    9900012    2    1    2    0    0 -0.14678783750E+02 -0.21141471541E+02  0.31475980072E+02  0.50528857943E+02  0.29999994203E+02 0.  0.
        -12    1    1    2    0    0  0.14678783750E+02  0.21141471541E+02 -0.31475980072E+02  0.40659142057E+02  0.00000000000E+00 0.  1.
         11    1    3    3    0    0 -0.18410721083E+01 -0.13706059435E+02  0.12185999325E+02  0.18432151030E+02  0.51100000000E-03 0. -1.
        -11    1    3    3    0    0  0.19622271935E+01 -0.89769062087E+01  0.13051818898E+02  0.15961991023E+02  0.51100000000E-03 0.  1.
        -12    1    3    3    0    0 -0.14799938835E+02  0.15414941030E+01  0.62381618494E+01  0.16134715890E+02  0.00000000000E+00 0.  1.
</event>
<event>
 7    1  0.5843820E-012  0.5052885E+02  0.7816164E-02  0.1300439E+00
        -11   -1    0    0    0    0  0.00000000000E+00  0.00000000000E+00  0.45593999997E+02  0.45594000000E+02  0.51100000000E-03 0. -1.
         11   -1    0    0    0    0 -0.00000000000E+00 -0.00000000000E+00 -0.45593999997E+02  0.45594000000E+02  0.51100000000E-03 0.  1.
    9900012    2    1    2    0    0  0.25337118450E+02 -0.78086539996E+01 -0.30825666830E+02  0.50528851163E+02  0.29999973595E+02 0.  0.
         12    1    1    2    0    0 -0.25337118450E+02  0.78086539996E+01  0.30825666830E+02  0.40659148837E+02  0.00000000000E+00 0. -1.
         11    1    3    3    0    0 -0.36893680852E+01 -0.13582303750E+01 -0.78162383631E+00  0.40083865460E+01  0.51100000000E-03 0.  1.
        -11    1    3    3    0    0 -0.20969875038E+01 -0.29832140391E+01 -0.93371611603E+00  0.37641398275E+01  0.51100000000E-03 0. -1.
         12    1    3    3    0    0  0.31123474039E+02 -0.34672095855E+01 -0.29110326878E+02  0.42756324789E+02  0.00000000000E+00 0. -1.
</event>
<event>
 7    1  0.5843820E-012  0.5052886E+02  0.7816164E-02  0.1300439E+00
        -11   -1    0    0    0    0  0.00000000000E+00  0.00000000000E+00  0.45593999997E+02  0.45594000000E+02  0.51100000000E-03 0. -1.
         11   -1    0    0    0    0 -0.00000000000E+00 -0.00000000000E+00 -0.45593999997E+02  0.45594000000E+02  0.51100000000E-03 0.  1.
    9900012    2    1    2    0    0  0.98567226173E+01 -0.70081071016E+01  0.38818769674E+02  0.50528862959E+02  0.30000009451E+02 0.  0.
        -12    1    1    2    0    0 -0.98567226173E+01  0.70081071016E+01 -0.38818769674E+02  0.40659137041E+02  0.00000000000E+00 0.  1.
         11    1    3    3    0    0  0.64160075082E+00 -0.31546052648E+01  0.53494048664E+01  0.62433419405E+01  0.51100000000E-03 0. -1.
        -11    1    3    3    0    0  0.14784919110E+02 -0.11981051880E+02  0.20121701685E+02  0.27695167741E+02  0.51100000000E-03 0.  1.
         12    1    3    3    0    0 -0.55697972439E+01  0.81275500434E+01  0.13347663123E+02  0.16590353278E+02  0.00000000000E+00 0. -1.
</event>
<event>
 7    1  0.5843820E-012  0.5052887E+02  0.7816164E-02  0.1300439E+00
        -11   -1    0    0    0    0  0.00000000000E+00  0.00000000000E+00  0.45593999997E+02  0.45594000000E+02  0.51100000000E-03 0. -1.
         11   -1    0    0    0    0 -0.00000000000E+00 -0.00000000000E+00 -0.45593999997E+02  0.45594000000E+02  0.51100000000E-03 0.  1.
    9900012    2    1    2    0    0  0.29735983381E+02  0.14919765777E+02 -0.23373852799E+02  0.50528866793E+02  0.30000021104E+02 0.  0.
         12    1    1    2    0    0 -0.29735983381E+02 -0.14919765777E+02  0.23373852799E+02  0.40659133207E+02  0.00000000000E+00 0. -1.
         11    1    3    3    0    0 -0.23446106255E+01  0.31413115560E+00  0.25663964491E+01  0.34903106399E+01  0.51100000000E-03 0. -1.
        -11    1    3    3    0    0  0.22485632065E+02  0.35855454888E+01 -0.85439921282E+01  0.24319942179E+02  0.51100000000E-03 0.  1.
         12    1    3    3    0    0  0.95949619415E+01  0.11020089132E+02 -0.17396257120E+02  0.22718613974E+02  0.00000000000E+00 0. -1.
</event>
<event>
 7    1  0.5843820E-012  0.5052887E+02  0.7816164E-02  0.1300439E+00
        -11   -1    0    0    0    0  0.00000000000E+00  0.00000000000E+00  0.45593999997E+02  0.45594000000E+02  0.51100000000E-03 0. -1.
         11   -1    0    0    0    0 -0.00000000000E+00 -0.00000000000E+00 -0.45593999997E+02  0.45594000000E+02  0.51100000000E-03 0.  1.
    9900012    2    1    2    0    0 -0.11412779300E+02  0.20913458894E+02 -0.32947544400E+02  0.50528868477E+02  0.30000026223E+02 0.  0.
         12    1    1    2    0    0  0.11412779300E+02 -0.20913458894E+02  0.32947544400E+02  0.40659131523E+02  0.00000000000E+00 0. -1.
         11    1    3    3    0    0 -0.13855211241E+02  0.35165483831E+01 -0.54497890069E+01  0.15298143402E+02  0.51100000000E-03 0. -1.
        -11    1    3    3    0    0  0.43045152500E+00  0.18911692393E+01  0.13877597770E+01  0.23848872231E+01  0.51100000000E-03 0.  1.
        -12    1    3    3    0    0  0.20119804168E+01  0.15505741271E+02 -0.28885515170E+02  0.32845837852E+02  0.00000000000E+00 0.  1.
</event>
<event>
 7    1  0.5843820E-012  0.5052886E+02  0.7816164E-02  0.1300439E+00
        -11   -1    0    0    0    0  0.00000000000E+00  0.00000000000E+00  0.45593999997E+02  0.45594000000E+02  0.51100000000E-03 0. -1.
         11   -1    0    0    0    0 -0.00000000000E+00 -0.00000000000E+00 -0.45593999997E+02  0.45594000000E+02  0.51100000000E-03 0.  1.
    9900012    2    1    2    0    0 -0.27943963404E+02 -0.26297749931E+02 -0.13443550720E+02  0.50528858370E+02  0.29999995501E+02 0.  0.
         12    1    1    2    0    0  0.27943963404E+02  0.26297749931E+02  0.13443550720E+02  0.40659141630E+02  0.00000000000E+00 0. -1.
         11    1    3    3    0    0 -0.14984525886E+01  0.12440646560E+00 -0.54477621335E+01  0.56514555341E+01  0.51100000000E-03 0. -1.
        -11    1    3    3    0    0 -0.23824714035E+02 -0.21751561798E+02 -0.15393104649E+02  0.35744861316E+02  0.51100000000E-03 0.  1.
         12    1    3    3    0    0 -0.26207967805E+01 -0.46705945984E+01  0.73973160632E+01  0.91325415195E+01  0.00000000000E+00 0. -1.
</event>
<event>
 7    1  0.5843820E-012  0.5052887E+02  0.7816164E-02  0.1300439E+00
        -11   -1    0    0    0    0  0.00000000000E+00  0.00000000000E+00  0.45593999997E+02  0.45594000000E+02  0.51100000000E-03 0.  1.
         11   -1    0    0    0    0 -0.00000000000E+00 -0.00000000000E+00 -0.45593999997E+02  0.45594000000E+02  0.51100000000E-03 0. -1.
    9900012    2    1    2    0    0  0.37261481503E+02 -0.13400710368E+02 -0.92286521461E+01  0.50528867414E+02  0.30000022992E+02 0.  0.
        -12    1    1    2    0    0 -0.37261481503E+02  0.13400710368E+02  0.92286521461E+01  0.40659132586E+02  0.00000000000E+00 0.  1.
         11    1    3    3    0    0  0.40637648190E+01 -0.11559287077E+01  0.10829337264E+01  0.43615480507E+01  0.51100000000E-03 0. -1.
        -11    1    3    3    0    0  0.14633771798E+02 -0.32695270760E+01  0.93542385164E+01  0.17673111294E+02  0.51100000000E-03 0.  1.
         12    1    3    3    0    0  0.18563944886E+02 -0.89752545842E+01 -0.19665824389E+02  0.28494208069E+02  0.00000000000E+00 0. -1.
</event>
<event>
 7    1  0.5843820E-012  0.5052886E+02  0.7816164E-02  0.1300439E+00
        -11   -1    0    0    0    0  0.00000000000E+00  0.00000000000E+00  0.45593999997E+02  0.45594000000E+02  0.51100000000E-03 0. -1.
         11   -1    0    0    0    0 -0.00000000000E+00 -0.00000000000E+00 -0.45593999997E+02  0.45594000000E+02  0.51100000000E-03 0.  1.
    9900012    2    1    2    0    0 -0.15981668024E+02  0.44902256674E+01  0.37115900590E+02  0.50528856920E+02  0.29999991095E+02 0.  0.
        -12    1    1    2    0    0  0.15981668024E+02 -0.44902256674E+01 -0.37115900590E+02  0.40659143080E+02  0.00000000000E+00 0.  1.
         11    1    3    3    0    0  0.16775907543E+01 -0.39644364205E+01  0.10304683680E+01  0.44263904245E+01  0.51100000000E-03 0. -1.
        -11    1    3    3    0    0 -0.37993402123E+01 -0.69802160942E+01  0.10180410510E+02  0.12915074959E+02  0.51100000000E-03 0.  1.
         12    1    3    3    0    0 -0.13859918566E+02  0.15434878182E+02  0.25905021712E+02  0.33187391537E+02  0.00000000000E+00 0. -1.
</event>
<event>
 7    1  0.5843820E-012  0.5052886E+02  0.7816164E-02  0.1300439E+00
        -11   -1    0    0    0    0  0.00000000000E+00  0.00000000000E+00  0.45593999997E+02  0.45594000000E+02  0.51100000000E-03 0. -1.
         11   -1    0    0    0    0 -0.00000000000E+00 -0.00000000000E+00 -0.45593999997E+02  0.45594000000E+02  0.51100000000E-03 0.  1.
    9900012    2    1    2    0    0 -0.21664203055E+02  0.18205645545E+02  0.29195590198E+02  0.50528859444E+02  0.29999998767E+02 0.  0.
        -12    1    1    2    0    0  0.21664203055E+02 -0.18205645545E+02 -0.29195590198E+02  0.40659140556E+02  0.00000000000E+00 0.  1.
         11    1    3    3    0    0 -0.44225276291E+01  0.19973563625E+02  0.11706104349E+02  0.23569787309E+02  0.51100000000E-03 0.  1.
        -11    1    3    3    0    0 -0.62231721898E+01 -0.24210043495E+01  0.49653495172E+00  0.66959451449E+01  0.51100000000E-03 0. -1.
        -12    1    3    3    0    0 -0.11018503236E+02  0.65308626959E+00  0.16992950897E+02  0.20263126990E+02  0.00000000000E+00 0.  1.
</event>
<event>
 7    1  0.5843820E-012  0.5052885E+02  0.7816164E-02  0.1300439E+00
        -11   -1    0    0    0    0  0.00000000000E+00  0.00000000000E+00  0.45593999997E+02  0.45594000000E+02  0.51100000000E-03 0.  1.
         11   -1    0    0    0    0 -0.00000000000E+00 -0.00000000000E+00 -0.45593999997E+02  0.45594000000E+02  0.51100000000E-03 0. -1.
    9900012    2    1    2    0    0  0.27465166797E+02 -0.29293417018E+02  0.63817430953E+01  0.50528852041E+02  0.29999976265E+02 0.  0.
        -12    1    1    2    0    0 -0.27465166797E+02  0.29293417018E+02 -0.63817430953E+01  0.40659147959E+02  0.00000000000E+00 0.  1.
         11    1    3    3    0    0  0.72153399572E+00  0.98101961465E+00 -0.18329113153E+01  0.22005851363E+01  0.51100000000E-03 0. -1.
        -11    1    3    3    0    0 -0.43292426436E+01 -0.71003018676E+01  0.43172300611E+01  0.93699041692E+01  0.51100000000E-03 0.  1.
        -12    1    3    3    0    0  0.31072875444E+02 -0.23174134765E+02  0.38974243494E+01  0.38958362736E+02  0.00000000000E+00 0.  1.
</event>
<event>
 7    1  0.5843820E-012  0.5052886E+02  0.7816164E-02  0.1300439E+00
        -11   -1    0    0    0    0  0.00000000000E+00  0.00000000000E+00  0.45593999997E+02  0.45594000000E+02  0.51100000000E-03 0. -1.
         11   -1    0    0    0    0 -0.00000000000E+00 -0.00000000000E+00 -0.45593999997E+02  0.45594000000E+02  0.51100000000E-03 0.  1.
    9900012    2    1    2    0    0 -0.15326706700E+02 -0.14339570920E+02 -0.34822906094E+02  0.50528855626E+02  0.29999987160E+02 0.  0.
         12    1    1    2    0    0  0.15326706700E+02  0.14339570920E+02  0.34822906094E+02  0.40659144374E+02  0.00000000000E+00 0. -1.
         11    1    3    3    0    0 -0.95910832422E+00  0.34983060948E+01 -0.11758339817E+02  0.12305144852E+02  0.51100000000E-03 0. -1.
        -11    1    3    3    0    0  0.20177312072E+00  0.41082458110E+01 -0.25931429598E+01  0.48623848786E+01  0.51100000000E-03 0.  1.
        -12    1    3    3    0    0 -0.14569371497E+02 -0.21946122825E+02 -0.20471423317E+02  0.33361325895E+02  0.00000000000E+00 0.  1.
</event>
<event>
 7    1  0.5843820E-012  0.5052889E+02  0.7816164E-02  0.1300439E+00
        -11   -1    0    0    0    0  0.00000000000E+00  0.00000000000E+00  0.45593999997E+02  0.45594000000E+02  0.51100000000E-03 0. -1.
         11   -1    0    0    0    0 -0.00000000000E+00 -0.00000000000E+00 -0.45593999997E+02  0.45594000000E+02  0.51100000000E-03 0.  1.
    9900012    2    1    2    0    0 -0.12057611517E+02 -0.23261214521E+02  0.31091690805E+02  0.50528888677E+02  0.30000087622E+02 0.  0.
        -12    1    1    2    0    0  0.12057611517E+02  0.23261214521E+02 -0.31091690805E+02  0.40659111323E+02  0.00000000000E+00 0.  1.
         11    1    3    3    0    0 -0.89638758324E+01 -0.14252078185E+02  0.59954567808E+01  0.17872277550E+02  0.51100000000E-03 0. -1.
        -11    1    3    3    0    0 -0.10003757650E+02 -0.47787752269E+01  0.77961969220E+01  0.13553322342E+02  0.51100000000E-03 0.  1.
        -12    1    3    3    0    0  0.69100219654E+01 -0.42303611085E+01  0.17300037102E+02  0.19103288785E+02  0.00000000000E+00 0.  1.
</event>
<event>
 7    1  0.5843820E-012  0.5052887E+02  0.7816164E-02  0.1300439E+00
        -11   -1    0    0    0    0  0.00000000000E+00  0.00000000000E+00  0.45593999997E+02  0.45594000000E+02  0.51100000000E-03 0. -1.
         11   -1    0    0    0    0 -0.00000000000E+00 -0.00000000000E+00 -0.45593999997E+02  0.45594000000E+02  0.51100000000E-03 0.  1.
    9900012    2    1    2    0    0 -0.15541801874E+02 -0.26524695576E+02 -0.26609362456E+02  0.50528865095E+02  0.30000015943E+02 0.  0.
         12    1    1    2    0    0  0.15541801874E+02  0.26524695576E+02  0.26609362456E+02  0.40659134905E+02  0.00000000000E+00 0. -1.
         11    1    3    3    0    0 -0.17396011916E+02 -0.15188018908E+02 -0.96809133280E+01  0.25040312140E+02  0.51100000000E-03 0. -1.
        -11    1    3    3    0    0 -0.62038731201E+01 -0.82923078042E+01 -0.80383214665E+01  0.13109730076E+02  0.51100000000E-03 0.  1.
         12    1    3    3    0    0  0.80580831623E+01 -0.30443688638E+01 -0.88901276613E+01  0.12378822879E+02  0.00000000000E+00 0. -1.
</event>
<event>
 7    1  0.5843820E-012  0.5052890E+02  0.7816164E-02  0.1300439E+00
        -11   -1    0    0    0    0  0.00000000000E+00  0.00000000000E+00  0.45593999997E+02  0.45594000000E+02  0.51100000000E-03 0. -1.
         11   -1    0    0    0    0 -0.00000000000E+00 -0.00000000000E+00 -0.45593999997E+02  0.45594000000E+02  0.51100000000E-03 0.  1.
    9900012    2    1    2    0    0  0.17415301900E+02 -0.53566660717E+01 -0.36347980551E+02  0.50528901365E+02  0.30000126189E+02 0.  0.
         12    1    1    2    0    0 -0.17415301900E+02  0.53566660717E+01  0.36347980551E+02  0.40659098635E+02  0.00000000000E+00 0. -1.
         11    1    3    3    0    0  0.15563492905E+02 -0.19553036009E+01 -0.20624420027E+02  0.25911623362E+02  0.51100000000E-03 0. -1.
        -11    1    3    3    0    0 -0.25178292103E+01  0.13372637708E+01 -0.17658629999E+02  0.17887284646E+02  0.51100000000E-03 0.  1.
         12    1    3    3    0    0  0.43696382056E+01 -0.47386262416E+01  0.19350694749E+01  0.67299933565E+01  0.00000000000E+00 0. -1.
</event>
<event>
 7    1  0.5843820E-012  0.5052886E+02  0.7816164E-02  0.1300439E+00
        -11   -1    0    0    0    0  0.00000000000E+00  0.00000000000E+00  0.45593999997E+02  0.45594000000E+02  0.51100000000E-03 0. -1.
         11   -1    0    0    0    0 -0.00000000000E+00 -0.00000000000E+00 -0.45593999997E+02  0.45594000000E+02  0.51100000000E-03 0.  1.
    9900012    2    1    2    0    0 -0.28256439626E+02 -0.13531612209E+02  0.25915914940E+02  0.50528861341E+02  0.30000004533E+02 0.  0.
        -12    1    1    2    0    0  0.28256439626E+02  0.13531612209E+02 -0.25915914940E+02  0.40659138659E+02  0.00000000000E+00 0.  1.
         11    1    3    3    0    0 -0.85143916780E+01 -0.10160034834E+01  0.13296900204E+02  0.15821968399E+02  0.51100000000E-03 0. -1.
        -11    1    3    3    0    0 -0.28821718409E+01 -0.14622943815E+02  0.87427929005E+01  0.17279288998E+02  0.51100000000E-03 0.  1.
         12    1    3    3    0    0 -0.16859876107E+02  0.21073350892E+01  0.38762218362E+01  0.17427603944E+02  0.00000000000E+00 0. -1.
</event>
<event>
 7    1  0.5843820E-012  0.5052886E+02  0.7816164E-02  0.1300439E+00
        -11   -1    0    0    0    0  0.00000000000E+00  0.00000000000E+00  0.45593999997E+02  0.45594000000E+02  0.51100000000E-03 0. -1.
         11   -1    0    0    0    0 -0.00000000000E+00 -0.00000000000E+00 -0.45593999997E+02  0.45594000000E+02  0.51100000000E-03 0.  1.
    9900012    2    1    2    0    0  0.14842308049E+02 -0.24803730330E+02 -0.28594519696E+02  0.50528859537E+02  0.29999999049E+02 0.  0.
         12    1    1    2    0    0 -0.14842308049E+02  0.24803730330E+02  0.28594519696E+02  0.40659140463E+02  0.00000000000E+00 0. -1.
         11    1    3    3    0    0 -0.19480628431E+01  0.18738781007E+01 -0.10064523531E+01  0.28843222040E+01  0.51100000000E-03 0. -1.
        -11    1    3    3    0    0 -0.24876906931E+01 -0.27370048853E+01 -0.13195894860E+02  0.13704431479E+02  0.51100000000E-03 0.  1.
        -12    1    3    3    0    0  0.19278061585E+02 -0.23940603546E+02 -0.14392172483E+02  0.33940105854E+02  0.00000000000E+00 0.  1.
</event>
<event>
 7    1  0.5843820E-012  0.5052886E+02  0.7816164E-02  0.1300439E+00
        -11   -1    0    0    0    0  0.00000000000E+00  0.00000000000E+00  0.45593999997E+02  0.45594000000E+02  0.51100000000E-03 0. -1.
         11   -1    0    0    0    0 -0.00000000000E+00 -0.00000000000E+00 -0.45593999997E+02  0.45594000000E+02  0.51100000000E-03 0.  1.
    9900012    2    1    2    0    0  0.16412548953E+02 -0.44580521555E+01  0.36931285072E+02  0.50528858233E+02  0.29999995086E+02 0.  0.
        -12    1    1    2    0    0 -0.16412548953E+02  0.44580521555E+01 -0.36931285072E+02  0.40659141767E+02  0.00000000000E+00 0.  1.
         11    1    3    3    0    0  0.19726549591E+01  0.10638474368E+01  0.81360503398E+01  0.84391026982E+01  0.51100000000E-03 0.  1.
        -11    1    3    3    0    0  0.39531439829E+01 -0.23139175991E+01  0.30630235321E+02  0.30970839157E+02  0.51100000000E-03 0. -1.
         12    1    3    3    0    0  0.10486750011E+02 -0.32079819931E+01 -0.18350005890E+01  0.11118916378E+02  0.00000000000E+00 0. -1.
</event>
<event>
 7    1  0.5843820E-012  0.5052886E+02  0.7816164E-02  0.1300439E+00
        -11   -1    0    0    0    0  0.00000000000E+00  0.00000000000E+00  0.45593999997E+02  0.45594000000E+02  0.51100000000E-03 0. -1.
         11   -1    0    0    0    0 -0.00000000000E+00 -0.00000000000E+00 -0.45593999997E+02  0.45594000000E+02  0.51100000000E-03 0.  1.
    9900012    2    1    2    0    0  0.33563677616E+02  0.57716550100E+01  0.22211109816E+02  0.50528857659E+02  0.29999993340E+02 0.  0.
        -12    1    1    2    0    0 -0.33563677616E+02 -0.57716550100E+01 -0.22211109816E+02  0.40659142341E+02  0.00000000000E+00 0.  1.
         11    1    3    3    0    0  0.64384421685E+00  0.51594925051E+01  0.24645379613E+01  0.57540286678E+01  0.51100000000E-03 0. -1.
        -11    1    3    3    0    0  0.23633311646E+02  0.71678130979E+01  0.34952417238E+01  0.24942487425E+02  0.51100000000E-03 0.  1.
        -12    1    3    3    0    0  0.92865217529E+01 -0.65556505929E+01  0.16251330131E+02  0.19832341566E+02  0.00000000000E+00 0.  1.
</event>
<event>
 7    1  0.5843820E-012  0.5052886E+02  0.7816164E-02  0.1300439E+00
        -11   -1    0    0    0    0  0.00000000000E+00  0.00000000000E+00  0.45593999997E+02  0.45594000000E+02  0.51100000000E-03 0.  1.
         11   -1    0    0    0    0 -0.00000000000E+00 -0.00000000000E+00 -0.45593999997E+02  0.45594000000E+02  0.51100000000E-03 0. -1.
    9900012    2    1    2    0    0  0.39477435801E+01 -0.31552019186E+02 -0.25338726055E+02  0.50528860410E+02  0.30000001702E+02 0.  0.
         12    1    1    2    0    0 -0.39477435801E+01  0.31552019186E+02  0.25338726055E+02  0.40659139590E+02  0.00000000000E+00 0. -1.
         11    1    3    3    0    0  0.68430972942E+01 -0.38212655606E+01 -0.32023387997E+01  0.84667009580E+01  0.51100000000E-03 0. -1.
        -11    1    3    3    0    0 -0.60943984905E-01 -0.73062284126E+00  0.41849897767E+01  0.42487249379E+01  0.51100000000E-03 0.  1.
        -12    1    3    3    0    0 -0.28344097292E+01 -0.27000130784E+02 -0.26321377032E+02  0.37813434514E+02  0.00000000000E+00 0.  1.
</event>
<event>
 7    1  0.5843820E-012  0.5052887E+02  0.7816164E-02  0.1300439E+00
        -11   -1    0    0    0    0  0.00000000000E+00  0.00000000000E+00  0.45593999997E+02  0.45594000000E+02  0.51100000000E-03 0. -1.
         11   -1    0    0    0    0 -0.00000000000E+00 -0.00000000000E+00 -0.45593999997E+02  0.45594000000E+02  0.51100000000E-03 0.  1.
    9900012    2    1    2    0    0 -0.30646748833E+02  0.43492621649E+01 -0.26363334698E+02  0.50528871728E+02  0.30000036105E+02 0.  0.
         12    1    1    2    0    0  0.30646748833E+02 -0.43492621649E+01  0.26363334698E+02  0.40659128272E+02  0.00000000000E+00 0. -1.
         11    1    3    3    0    0 -0.15893531454E+02  0.28236538846E+00  0.26699995970E+01  0.16118714911E+02  0.51100000000E-03 0. -1.
        -11    1    3    3    0    0  0.58636807381E+00 -0.45223006919E+00  0.45195861304E+00  0.86752890585E+00  0.51100000000E-03 0.  1.
        -12    1    3    3    0    0 -0.15339585453E+02  0.45191268456E+01 -0.29485292908E+02  0.33542627911E+02  0.00000000000E+00 0.  1.
</event>
<event>
 7    1  0.5843820E-012  0.5052887E+02  0.7816164E-02  0.1300439E+00
        -11   -1    0    0    0    0  0.00000000000E+00  0.00000000000E+00  0.45593999997E+02  0.45594000000E+02  0.51100000000E-03 0. -1.
         11   -1    0    0    0    0 -0.00000000000E+00 -0.00000000000E+00 -0.45593999997E+02  0.45594000000E+02  0.51100000000E-03 0.  1.
    9900012    2    1    2    0    0 -0.20719271450E+02 -0.12479062458E+02  0.32682560207E+02  0.50528868788E+02  0.30000027168E+02 0.  0.
        -12    1    1    2    0    0  0.20719271450E+02  0.12479062458E+02 -0.32682560207E+02  0.40659131212E+02  0.00000000000E+00 0.  1.
         11    1    3    3    0    0 -0.77221754552E+01 -0.22935799871E+01  0.87124389394E+01  0.11865879464E+02  0.51100000000E-03 0. -1.
        -11    1    3    3    0    0 -0.19157219374E+02 -0.12291940970E+02  0.22465456571E+02  0.31981050736E+02  0.51100000000E-03 0.  1.
        -12    1    3    3    0    0  0.61601233791E+01  0.21064584987E+01  0.15046646960E+01  0.66819385885E+01  0.00000000000E+00 0.  1.
</event>
<event>
 7    1  0.5843820E-012  0.5052879E+02  0.7816164E-02  0.1300439E+00
        -11   -1    0    0    0    0  0.00000000000E+00  0.00000000000E+00  0.45593999997E+02  0.45594000000E+02  0.51100000000E-03 0. -1.
         11   -1    0    0    0    0 -0.00000000000E+00 -0.00000000000E+00 -0.45593999997E+02  0.45594000000E+02  0.51100000000E-03 0.  1.
    9900012    2    1    2    0    0  0.18979113647E+02 -0.19105295864E+02 -0.30462304774E+02  0.50528793208E+02  0.29999797434E+02 0.  0.
         12    1    1    2    0    0 -0.18979113647E+02  0.19105295864E+02  0.30462304774E+02  0.40659206792E+02  0.00000000000E+00 0. -1.
         11    1    3    3    0    0  0.14464941829E+02 -0.19055717431E+01 -0.16026624796E+02  0.21672988913E+02  0.51100000000E-03 0. -1.
        -11    1    3    3    0    0  0.89272215519E+01 -0.38295535021E+01 -0.10351905674E+02  0.14195869681E+02  0.51100000000E-03 0.  1.
         12    1    3    3    0    0 -0.44130497343E+01 -0.13370170618E+02 -0.40837743034E+01  0.14659934614E+02  0.00000000000E+00 0. -1.
</event>
<event>
 7    1  0.5843820E-012  0.5052889E+02  0.7816164E-02  0.1300439E+00
        -11   -1    0    0    0    0  0.00000000000E+00  0.00000000000E+00  0.45593999997E+02  0.45594000000E+02  0.51100000000E-03 0. -1.
         11   -1    0    0    0    0 -0.00000000000E+00 -0.00000000000E+00 -0.45593999997E+02  0.45594000000E+02  0.51100000000E-03 0.  1.
    9900012    2    1    2    0    0  0.24231432693E+02  0.24183862376E+02  0.21934944569E+02  0.50528888807E+02  0.30000088017E+02 0.  0.
        -12    1    1    2    0    0 -0.24231432693E+02 -0.24183862376E+02 -0.21934944569E+02  0.40659111193E+02  0.00000000000E+00 0.  1.
         11    1    3    3    0    0  0.11521784344E+02  0.42103915425E+01  0.25200547404E+01  0.12523162043E+02  0.51100000000E-03 0. -1.
        -11    1    3    3    0    0  0.14445868013E+02  0.23522955719E+02  0.19892861081E+02  0.34025556140E+02  0.51100000000E-03 0.  1.
        -12    1    3    3    0    0 -0.17362196635E+01 -0.35494848857E+01 -0.47797125264E+00  0.39801706235E+01  0.00000000000E+00 0.  1.
</event>
<event>
 7    1  0.5843820E-012  0.5052886E+02  0.7816164E-02  0.1300439E+00
        -11   -1    0    0    0    0  0.00000000000E+00  0.00000000000E+00  0.45593999997E+02  0.45594000000E+02  0.51100000000E-03 0. -1.
         11   -1    0    0    0    0 -0.00000000000E+00 -0.00000000000E+00 -0.45593999997E+02  0.45594000000E+02  0.51100000000E-03 0.  1.
    9900012    2    1    2    0    0 -0.82442137106E+01 -0.18447717590E+02  0.35282856414E+02  0.50528864487E+02  0.30000014094E+02 0.  0.
        -12    1    1    2    0    0  0.82442137106E+01  0.18447717590E+02 -0.35282856414E+02  0.40659135513E+02  0.00000000000E+00 0.  1.
         11    1    3    3    0    0  0.43797388557E+01 -0.95630411105E+01  0.25977877247E+02  0.28026487013E+02  0.51100000000E-03 0. -1.
        -11    1    3    3    0    0  0.54015245984E+00 -0.55931368458E+00  0.66580231123E+01  0.67032729694E+01  0.51100000000E-03 0.  1.
         12    1    3    3    0    0 -0.13164105026E+02 -0.83253627945E+01  0.26469560542E+01  0.15799104505E+02  0.00000000000E+00 0. -1.
</event>
<event>
 7    1  0.5843820E-012  0.5052887E+02  0.7816164E-02  0.1300439E+00
        -11   -1    0    0    0    0  0.00000000000E+00  0.00000000000E+00  0.45593999997E+02  0.45594000000E+02  0.51100000000E-03 0.  1.
         11   -1    0    0    0    0 -0.00000000000E+00 -0.00000000000E+00 -0.45593999997E+02  0.45594000000E+02  0.51100000000E-03 0. -1.
    9900012    2    1    2    0    0 -0.70959621667E+01  0.37919326519E+02 -0.12842764105E+02  0.50528873195E+02  0.30000040563E+02 0.  0.
         12    1    1    2    0    0  0.70959621667E+01 -0.37919326519E+02  0.12842764105E+02  0.40659126805E+02  0.00000000000E+00 0. -1.
         11    1    3    3    0    0 -0.98714294279E+01  0.14200352944E+02 -0.11708008980E+02  0.20884746042E+02  0.51100000000E-03 0. -1.
        -11    1    3    3    0    0 -0.54932291112E+01  0.12956384874E+02  0.47475527235E+01  0.14852027881E+02  0.51100000000E-03 0.  1.
         12    1    3    3    0    0  0.82686963724E+01  0.10762588701E+02 -0.58823078483E+01  0.14792099272E+02  0.00000000000E+00 0. -1.
</event>
<event>
 7    1  0.5843820E-012  0.5052885E+02  0.7816164E-02  0.1300439E+00
        -11   -1    0    0    0    0  0.00000000000E+00  0.00000000000E+00  0.45593999997E+02  0.45594000000E+02  0.51100000000E-03 0. -1.
         11   -1    0    0    0    0 -0.00000000000E+00 -0.00000000000E+00 -0.45593999997E+02  0.45594000000E+02  0.51100000000E-03 0.  1.
    9900012    2    1    2    0    0 -0.37661606815E+02  0.14892531754E+02  0.36030659397E+01  0.50528853255E+02  0.29999979953E+02 0.  0.
        -12    1    1    2    0    0  0.37661606815E+02 -0.14892531754E+02 -0.36030659397E+01  0.40659146745E+02  0.00000000000E+00 0.  1.
         11    1    3    3    0    0 -0.18684122233E+02  0.16546032178E+02  0.68143828500E+01  0.25870899063E+02  0.51100000000E-03 0. -1.
        -11    1    3    3    0    0 -0.53893073821E+01  0.65529702070E+01 -0.11764083323E+00  0.84852750232E+01  0.51100000000E-03 0.  1.
        -12    1    3    3    0    0 -0.13588177199E+02 -0.82064706306E+01 -0.30936760771E+01  0.16172679168E+02  0.00000000000E+00 0.  1.
</event>
<event>
 7    1  0.5843820E-012  0.5052886E+02  0.7816164E-02  0.1300439E+00
        -11   -1    0    0    0    0  0.00000000000E+00  0.00000000000E+00  0.45593999997E+02  0.45594000000E+02  0.51100000000E-03 0. -1.
         11   -1    0    0    0    0 -0.00000000000E+00 -0.00000000000E+00 -0.45593999997E+02  0.45594000000E+02  0.51100000000E-03 0.  1.
    9900012    2    1    2    0    0  0.14309801504E+02 -0.10541292949E+01 -0.38043181779E+02  0.50528864648E+02  0.30000014586E+02 0.  0.
         12    1    1    2    0    0 -0.14309801504E+02  0.10541292949E+01  0.38043181779E+02  0.40659135352E+02  0.00000000000E+00 0. -1.
         11    1    3    3    0    0  0.15302982769E+02 -0.92507817706E-01 -0.20117121934E+02  0.25276242492E+02  0.51100000000E-03 0. -1.
        -11    1    3    3    0    0  0.65930546407E+01  0.45247146619E+01 -0.11035513188E+02  0.13628057963E+02  0.51100000000E-03 0.  1.
         12    1    3    3    0    0 -0.75862359061E+01 -0.54863361390E+01 -0.68905466571E+01  0.11624564193E+02  0.00000000000E+00 0. -1.
</event>
<event>
 7    1  0.5843820E-012  0.5052886E+02  0.7816164E-02  0.1300439E+00
        -11   -1    0    0    0    0  0.00000000000E+00  0.00000000000E+00  0.45593999997E+02  0.45594000000E+02  0.51100000000E-03 0. -1.
         11   -1    0    0    0    0 -0.00000000000E+00 -0.00000000000E+00 -0.45593999997E+02  0.45594000000E+02  0.51100000000E-03 0.  1.
    9900012    2    1    2    0    0  0.20288865002E+02  0.52985561904E+01 -0.34834653528E+02  0.50528858012E+02  0.29999994414E+02 0.  0.
         12    1    1    2    0    0 -0.20288865002E+02 -0.52985561904E+01  0.34834653528E+02  0.40659141988E+02  0.00000000000E+00 0. -1.
         11    1    3    3    0    0  0.90782801323E+01  0.90139546299E+00 -0.44803223824E+01  0.10163708617E+02  0.51100000000E-03 0. -1.
        -11    1    3    3    0    0  0.16259657363E+02 -0.30408805620E+01 -0.24758560964E+02  0.29775992904E+02  0.51100000000E-03 0.  1.
         12    1    3    3    0    0 -0.50490724934E+01  0.74380412894E+01 -0.55957701816E+01  0.10589156491E+02  0.00000000000E+00 0. -1.
</event>
<event>
 7    1  0.5843820E-012  0.5052885E+02  0.7816164E-02  0.1300439E+00
        -11   -1    0    0    0    0  0.00000000000E+00  0.00000000000E+00  0.45593999997E+02  0.45594000000E+02  0.51100000000E-03 0. -1.
         11   -1    0    0    0    0 -0.00000000000E+00 -0.00000000000E+00 -0.45593999997E+02  0.45594000000E+02  0.51100000000E-03 0.  1.
    9900012    2    1    2    0    0  0.99081180266E+01 -0.11405181733E+02  0.37748081213E+02  0.50528848405E+02  0.29999965212E+02 0.  0.
        -12    1    1    2    0    0 -0.99081180266E+01  0.11405181733E+02 -0.37748081213E+02  0.40659151595E+02  0.00000000000E+00 0.  1.
         11    1    3    3    0    0  0.17650802421E+01  0.40141753627E+01  0.19245196292E+01  0.47888295196E+01  0.51100000000E-03 0.  1.
        -11    1    3    3    0    0 -0.79072124200E+00 -0.13362538775E+02  0.33796835478E+02  0.36351186655E+02  0.51100000000E-03 0. -1.
         12    1    3    3    0    0  0.89337590265E+01 -0.20568183203E+01  0.20267261052E+01  0.93888322305E+01  0.00000000000E+00 0. -1.
</event>
<event>
 7    1  0.5843820E-012  0.5052884E+02  0.7816164E-02  0.1300439E+00
        -11   -1    0    0    0    0  0.00000000000E+00  0.00000000000E+00  0.45593999997E+02  0.45594000000E+02  0.51100000000E-03 0. -1.
         11   -1    0    0    0    0 -0.00000000000E+00 -0.00000000000E+00 -0.45593999997E+02  0.45594000000E+02  0.51100000000E-03 0.  1.
    9900012    2    1    2    0    0  0.30232693961E+02 -0.13356341446E+02  0.23680358792E+02  0.50528843178E+02  0.29999949324E+02 0.  0.
        -12    1    1    2    0    0 -0.30232693961E+02  0.13356341446E+02 -0.23680358792E+02  0.40659156822E+02  0.00000000000E+00 0.  1.
         11    1    3    3    0    0  0.24285579571E+01 -0.11126018984E+02  0.20256014829E+01  0.11566730472E+02  0.51100000000E-03 0. -1.
        -11    1    3    3    0    0 -0.10316780820E+01 -0.33743056916E+01  0.21931220785E+01  0.41545256381E+01  0.51100000000E-03 0.  1.
         12    1    3    3    0    0  0.28835814086E+02  0.11439832297E+01  0.19461635231E+02  0.34807587068E+02  0.00000000000E+00 0. -1.
</event>
<event>
 7    1  0.5843820E-012  0.5052884E+02  0.7816164E-02  0.1300439E+00
        -11   -1    0    0    0    0  0.00000000000E+00  0.00000000000E+00  0.45593999997E+02  0.45594000000E+02  0.51100000000E-03 0. -1.
         11   -1    0    0    0    0 -0.00000000000E+00 -0.00000000000E+00 -0.45593999997E+02  0.45594000000E+02  0.51100000000E-03 0.  1.
    9900012    2    1    2    0    0 -0.34001473097E+02  0.15445536164E+02 -0.16078005861E+02  0.50528843188E+02  0.29999949355E+02 0.  0.
         12    1    1    2    0    0  0.34001473097E+02 -0.15445536164E+02  0.16078005861E+02  0.40659156812E+02  0.00000000000E+00 0. -1.
         11    1    3    3    0    0  0.87976636426E+00 -0.43470867378E+01 -0.28975491833E+01  0.52978244112E+01  0.51100000000E-03 0. -1.
        -11    1    3    3    0    0 -0.14238386252E+01 -0.25960420790E+01 -0.14662086239E+01  0.33040155715E+01  0.51100000000E-03 0.  1.
        -12    1    3    3    0    0 -0.33457400836E+02  0.22388664981E+02 -0.11714248054E+02  0.41927003206E+02  0.00000000000E+00 0.  1.
</event>
<event>
 7    1  0.5843820E-012  0.5052886E+02  0.7816164E-02  0.1300439E+00
        -11   -1    0    0    0    0  0.00000000000E+00  0.00000000000E+00  0.45593999997E+02  0.45594000000E+02  0.51100000000E-03 0.  1.
         11   -1    0    0    0    0 -0.00000000000E+00 -0.00000000000E+00 -0.45593999997E+02  0.45594000000E+02  0.51100000000E-03 0. -1.
    9900012    2    1    2    0    0 -0.37765277589E+02 -0.14804396169E+02 -0.27891271240E+01  0.50528861207E+02  0.30000004125E+02 0.  0.
         12    1    1    2    0    0  0.37765277589E+02  0.14804396169E+02  0.27891271240E+01  0.40659138793E+02  0.00000000000E+00 0. -1.
         11    1    3    3    0    0 -0.21706284041E+02 -0.51270132784E+01  0.68357398279E+01  0.23327588201E+02  0.51100000000E-03 0. -1.
        -11    1    3    3    0    0 -0.74612691082E+01 -0.28655691241E+01  0.46127567433E+01  0.92281931137E+01  0.51100000000E-03 0.  1.
         12    1    3    3    0    0 -0.85977244396E+01 -0.68118137668E+01 -0.14237623695E+02  0.17973079892E+02  0.00000000000E+00 0. -1.
</event>
<event>
 7    1  0.5843820E-012  0.5052886E+02  0.7816164E-02  0.1300439E+00
        -11   -1    0    0    0    0  0.00000000000E+00  0.00000000000E+00  0.45593999997E+02  0.45594000000E+02  0.51100000000E-03 0. -1.
         11   -1    0    0    0    0 -0.00000000000E+00 -0.00000000000E+00 -0.45593999997E+02  0.45594000000E+02  0.51100000000E-03 0.  1.
    9900012    2    1    2    0    0  0.20905684135E+02  0.23696848784E+02 -0.25584714827E+02  0.50528857065E+02  0.29999991535E+02 0.  0.
         12    1    1    2    0    0 -0.20905684135E+02 -0.23696848784E+02  0.25584714827E+02  0.40659142935E+02  0.00000000000E+00 0. -1.
         11    1    3    3    0    0  0.82537846881E+01  0.45473088846E+01 -0.57921496100E+01  0.11061282798E+02  0.51100000000E-03 0. -1.
        -11    1    3    3    0    0  0.14174250285E+02  0.15282961374E+02 -0.17105500666E+01  0.20914211945E+02  0.51100000000E-03 0.  1.
         12    1    3    3    0    0 -0.15223508377E+01  0.38665785251E+01 -0.18082015150E+02  0.18553362322E+02  0.00000000000E+00 0. -1.
</event>
<event>
 7    1  0.5843820E-012  0.5052886E+02  0.7816164E-02  0.1300439E+00
        -11   -1    0    0    0    0  0.00000000000E+00  0.00000000000E+00  0.45593999997E+02  0.45594000000E+02  0.51100000000E-03 0. -1.
         11   -1    0    0    0    0 -0.00000000000E+00 -0.00000000000E+00 -0.45593999997E+02  0.45594000000E+02  0.51100000000E-03 0.  1.
    9900012    2    1    2    0    0 -0.45754608398E+01  0.12512553173E+01 -0.40381491438E+02  0.50528864096E+02  0.30000012905E+02 0.  0.
         12    1    1    2    0    0  0.45754608398E+01 -0.12512553173E+01  0.40381491438E+02  0.40659135904E+02  0.00000000000E+00 0. -1.
         11    1    3    3    0    0  0.65415542718E+01  0.26598045097E+01 -0.25866328543E+02  0.26812934283E+02  0.51100000000E-03 0. -1.
        -11    1    3    3    0    0 -0.63824900576E+01  0.11788621222E-01 -0.17017943437E+02  0.18175442701E+02  0.51100000000E-03 0.  1.
        -12    1    3    3    0    0 -0.47345250540E+01 -0.14203378136E+01  0.25027805419E+01  0.55404871114E+01  0.00000000000E+00 0.  1.
</event>
<event>
 7    1  0.5843820E-012  0.5052886E+02  0.7816164E-02  0.1300439E+00
        -11   -1    0    0    0    0  0.00000000000E+00  0.00000000000E+00  0.45593999997E+02  0.45594000000E+02  0.51100000000E-03 0. -1.
         11   -1    0    0    0    0 -0.00000000000E+00 -0.00000000000E+00 -0.45593999997E+02  0.45594000000E+02  0.51100000000E-03 0.  1.
    9900012    2    1    2    0    0 -0.11718825337E+02 -0.25260864831E+02 -0.29626401748E+02  0.50528857856E+02  0.29999993940E+02 0.  0.
         12    1    1    2    0    0  0.11718825337E+02  0.25260864831E+02  0.29626401748E+02  0.40659142144E+02  0.00000000000E+00 0. -1.
         11    1    3    3    0    0 -0.12753625750E+02 -0.11302308949E+02 -0.80974835516E+01  0.18867071778E+02  0.51100000000E-03 0. -1.
        -11    1    3    3    0    0 -0.39034359552E+01 -0.16859244530E+02 -0.17812025297E+02  0.24834234110E+02  0.51100000000E-03 0.  1.
        -12    1    3    3    0    0  0.49382363679E+01  0.29006886477E+01 -0.37168928994E+01  0.68275519684E+01  0.00000000000E+00 0.  1.
</event>
<event>
 7    1  0.5843820E-012  0.5052886E+02  0.7816164E-02  0.1300439E+00
        -11   -1    0    0    0    0  0.00000000000E+00  0.00000000000E+00  0.45593999997E+02  0.45594000000E+02  0.51100000000E-03 0. -1.
         11   -1    0    0    0    0 -0.00000000000E+00 -0.00000000000E+00 -0.45593999997E+02  0.45594000000E+02  0.51100000000E-03 0.  1.
    9900012    2    1    2    0    0  0.34201560608E+01  0.10508474349E+02 -0.39128506938E+02  0.50528861349E+02  0.30000004557E+02 0.  0.
         12    1    1    2    0    0 -0.34201560608E+01 -0.10508474349E+02  0.39128506938E+02  0.40659138651E+02  0.00000000000E+00 0. -1.
         11    1    3    3    0    0  0.11202850586E+02 -0.31678600649E+01 -0.63485471732E+01  0.13260590112E+02  0.51100000000E-03 0. -1.
        -11    1    3    3    0    0  0.86998610611E+00  0.75913058785E+00 -0.75120753631E+01  0.76002915468E+01  0.51100000000E-03 0.  1.
        -12    1    3    3    0    0 -0.86526806314E+01  0.12917203826E+02 -0.25267884402E+02  0.29667979691E+02  0.00000000000E+00 0.  1.
</event>
<event>
 7    1  0.5843820E-012  0.5052885E+02  0.7816164E-02  0.1300439E+00
        -11   -1    0    0    0    0  0.00000000000E+00  0.00000000000E+00  0.45593999997E+02  0.45594000000E+02  0.51100000000E-03 0. -1.
         11   -1    0    0    0    0 -0.00000000000E+00 -0.00000000000E+00 -0.45593999997E+02  0.45594000000E+02  0.51100000000E-03 0.  1.
    9900012    2    1    2    0    0  0.27917978085E+02  0.90777782973E+01 -0.28130888940E+02  0.50528850086E+02  0.29999970323E+02 0.  0.
         12    1    1    2    0    0 -0.27917978085E+02 -0.90777782973E+01  0.28130888940E+02  0.40659149914E+02  0.00000000000E+00 0. -1.
         11    1    3    3    0    0  0.11563693026E+02  0.10428330563E+02 -0.22360676661E+02  0.27248283170E+02  0.51100000000E-03 0. -1.
        -11    1    3    3    0    0  0.54190609333E+01  0.12654072865E+01 -0.98551468263E+01  0.11317746959E+02  0.51100000000E-03 0.  1.
         12    1    3    3    0    0  0.10935224126E+02 -0.26159595525E+01  0.40849345479E+01  0.11962819957E+02  0.00000000000E+00 0. -1.
</event>
<event>
 7    1  0.5843820E-012  0.5052887E+02  0.7816164E-02  0.1300439E+00
        -11   -1    0    0    0    0  0.00000000000E+00  0.00000000000E+00  0.45593999997E+02  0.45594000000E+02  0.51100000000E-03 0. -1.
         11   -1    0    0    0    0 -0.00000000000E+00 -0.00000000000E+00 -0.45593999997E+02  0.45594000000E+02  0.51100000000E-03 0.  1.
    9900012    2    1    2    0    0 -0.21591596043E+02  0.12854112511E+01  0.34428414529E+02  0.50528867831E+02  0.30000024258E+02 0.  0.
        -12    1    1    2    0    0  0.21591596043E+02 -0.12854112511E+01 -0.34428414529E+02  0.40659132169E+02  0.00000000000E+00 0.  1.
         11    1    3    3    0    0 -0.84879148897E+01 -0.88332821936E+01  0.17343902283E+02  0.21233994446E+02  0.51100000000E-03 0. -1.
        -11    1    3    3    0    0 -0.40710428160E+01 -0.47611902653E+01  0.32336307882E+01  0.70497298309E+01  0.51100000000E-03 0.  1.
         12    1    3    3    0    0 -0.90326383374E+01  0.14879883710E+02  0.13850881458E+02  0.22245143554E+02  0.00000000000E+00 0. -1.
</event>
<event>
 7    1  0.5843820E-012  0.5052887E+02  0.7816164E-02  0.1300439E+00
        -11   -1    0    0    0    0  0.00000000000E+00  0.00000000000E+00  0.45593999997E+02  0.45594000000E+02  0.51100000000E-03 0. -1.
         11   -1    0    0    0    0 -0.00000000000E+00 -0.00000000000E+00 -0.45593999997E+02  0.45594000000E+02  0.51100000000E-03 0.  1.
    9900012    2    1    2    0    0  0.12854137300E+02  0.10277078850E+02  0.37179530914E+02  0.50528871696E+02  0.30000036008E+02 0.  0.
        -12    1    1    2    0    0 -0.12854137300E+02 -0.10277078850E+02 -0.37179530914E+02  0.40659128304E+02  0.00000000000E+00 0.  1.
         11    1    3    3    0    0  0.12840721356E+02 -0.26928969358E+01  0.23744303803E+02  0.27127988908E+02  0.51100000000E-03 0. -1.
        -11    1    3    3    0    0  0.24648301064E+01 -0.24670557453E+01  0.30677592598E+01  0.46446634583E+01  0.51100000000E-03 0.  1.
        -12    1    3    3    0    0 -0.24514141630E+01  0.15437031531E+02  0.10367467852E+02  0.18756219330E+02  0.00000000000E+00 0.  1.
</event>
<event>
 7    1  0.5843820E-012  0.5052885E+02  0.7816164E-02  0.1300439E+00
        -11   -1    0    0    0    0  0.00000000000E+00  0.00000000000E+00  0.45593999997E+02  0.45594000000E+02  0.51100000000E-03 0. -1.
         11   -1    0    0    0    0 -0.00000000000E+00 -0.00000000000E+00 -0.45593999997E+02  0.45594000000E+02  0.51100000000E-03 0.  1.
    9900012    2    1    2    0    0  0.14863942528E+02  0.25813763289E+02 -0.27674526929E+02  0.50528848467E+02  0.29999965400E+02 0.  0.
         12    1    1    2    0    0 -0.14863942528E+02 -0.25813763289E+02  0.27674526929E+02  0.40659151533E+02  0.00000000000E+00 0. -1.
         11    1    3    3    0    0  0.41098145318E+01  0.13271665452E+02 -0.25493004164E+02  0.29033100780E+02  0.51100000000E-03 0. -1.
        -11    1    3    3    0    0  0.42440753846E+01 -0.38444078428E+00 -0.51876685877E+01  0.67135591324E+01  0.51100000000E-03 0.  1.
         12    1    3    3    0    0  0.65100526116E+01  0.12926538622E+02  0.30061458227E+01  0.14782188554E+02  0.00000000000E+00 0. -1.
</event>
<event>
 7    1  0.5843820E-012  0.5052886E+02  0.7816164E-02  0.1300439E+00
        -11   -1    0    0    0    0  0.00000000000E+00  0.00000000000E+00  0.45593999997E+02  0.45594000000E+02  0.51100000000E-03 0. -1.
         11   -1    0    0    0    0 -0.00000000000E+00 -0.00000000000E+00 -0.45593999997E+02  0.45594000000E+02  0.51100000000E-03 0.  1.
    9900012    2    1    2    0    0  0.32895127184E+02  0.21077415432E+02 -0.11261385764E+02  0.50528860277E+02  0.30000001297E+02 0.  0.
         12    1    1    2    0    0 -0.32895127184E+02 -0.21077415432E+02  0.11261385764E+02  0.40659139723E+02  0.00000000000E+00 0. -1.
         11    1    3    3    0    0  0.23459289974E+02  0.12177821208E+02 -0.88034944079E+01  0.27859273672E+02  0.51100000000E-03 0. -1.
        -11    1    3    3    0    0  0.11507564235E+02  0.32823265711E+01 -0.80941201203E+01  0.14446884894E+02  0.51100000000E-03 0.  1.
         12    1    3    3    0    0 -0.20717270253E+01  0.56172676524E+01  0.56362287645E+01  0.82227017113E+01  0.00000000000E+00 0. -1.
</event>
<event>
 7    1  0.5843820E-012  0.5052882E+02  0.7816164E-02  0.1300439E+00
        -11   -1    0    0    0    0  0.00000000000E+00  0.00000000000E+00  0.45593999997E+02  0.45594000000E+02  0.51100000000E-03 0. -1.
         11   -1    0    0    0    0 -0.00000000000E+00 -0.00000000000E+00 -0.45593999997E+02  0.45594000000E+02  0.51100000000E-03 0.  1.
    9900012    2    1    2    0    0 -0.36570969600E+02  0.16236790504E+02  0.72179943351E+01  0.50528823600E+02  0.29999889813E+02 0.  0.
        -12    1    1    2    0    0  0.36570969600E+02 -0.16236790504E+02 -0.72179943351E+01  0.40659176400E+02  0.00000000000E+00 0.  1.
         11    1    3    3    0    0 -0.17899396718E+02 -0.88359039506E+00  0.22030832525E+01  0.18056098995E+02  0.51100000000E-03 0. -1.
        -11    1    3    3    0    0 -0.20924458864E+02  0.17752956691E+02  0.80900125802E+01  0.28608543371E+02  0.51100000000E-03 0.  1.
        -12    1    3    3    0    0  0.22528859822E+01 -0.63257579170E+00 -0.30751014976E+01  0.38641812330E+01  0.00000000000E+00 0.  1.
</event>
<event>
 7    1  0.7217968E-012  0.5052885E+02  0.7816164E-02  0.1300439E+00
        -11   -1    0    0    0    0  0.00000000000E+00  0.00000000000E+00  0.45593999997E+02  0.45594000000E+02  0.51100000000E-03 0. -1.
         11   -1    0    0    0    0 -0.00000000000E+00 -0.00000000000E+00 -0.45593999997E+02  0.45594000000E+02  0.51100000000E-03 0.  1.
    9900012    2    1    2    0    0  0.17774176661E+02  0.18518952362E+02 -0.31532419459E+02  0.50528850605E+02  0.29999971898E+02 0.  0.
         12    1    1    2    0    0 -0.17774176661E+02 -0.18518952362E+02  0.31532419459E+02  0.40659149395E+02  0.00000000000E+00 0. -1.
         11    1    3    3    0    0  0.29147660613E+01 -0.11561919706E+01  0.22877843081E+01  0.38815716361E+01  0.51100000000E-03 0. -1.
        -11    1    3    3    0    0  0.12780557679E+02  0.15679064420E+02 -0.10299702877E+02  0.22699330283E+02  0.51100000000E-03 0.  1.
        -12    1    3    3    0    0  0.20788529212E+01  0.39960799130E+01 -0.23520500890E+02  0.23947948686E+02  0.00000000000E+00 0.  1.
</event>
<event>
 7    1  0.5843820E-012  0.5052885E+02  0.7816164E-02  0.1300439E+00
        -11   -1    0    0    0    0  0.00000000000E+00  0.00000000000E+00  0.45593999997E+02  0.45594000000E+02  0.51100000000E-03 0. -1.
         11   -1    0    0    0    0 -0.00000000000E+00 -0.00000000000E+00 -0.45593999997E+02  0.45594000000E+02  0.51100000000E-03 0.  1.
    9900012    2    1    2    0    0 -0.12226752804E+02  0.85127311242E-01  0.38777126039E+02  0.50528853002E+02  0.29999979185E+02 0.  0.
        -12    1    1    2    0    0  0.12226752804E+02 -0.85127311242E-01 -0.38777126039E+02  0.40659146998E+02  0.00000000000E+00 0.  1.
         11    1    3    3    0    0 -0.59028535208E+01 -0.13652403842E+02  0.18897733602E+02  0.24049036278E+02  0.51100000000E-03 0. -1.
        -11    1    3    3    0    0  0.19815436714E+01  0.34376412051E+01  0.68126070047E+01  0.78838763840E+01  0.51100000000E-03 0.  1.
        -12    1    3    3    0    0 -0.83054429543E+01  0.10299889948E+02  0.13066785432E+02  0.18595940340E+02  0.00000000000E+00 0.  1.
</event>
<event>
 7    1  0.5843820E-012  0.5052886E+02  0.7816164E-02  0.1300439E+00
        -11   -1    0    0    0    0  0.00000000000E+00  0.00000000000E+00  0.45593999997E+02  0.45594000000E+02  0.51100000000E-03 0. -1.
         11   -1    0    0    0    0 -0.00000000000E+00 -0.00000000000E+00 -0.45593999997E+02  0.45594000000E+02  0.51100000000E-03 0.  1.
    9900012    2    1    2    0    0 -0.60353153936E+01 -0.17630275974E+02 -0.36137435008E+02  0.50528857463E+02  0.29999992746E+02 0.  0.
         12    1    1    2    0    0  0.60353153936E+01  0.17630275974E+02  0.36137435008E+02  0.40659142537E+02  0.00000000000E+00 0. -1.
         11    1    3    3    0    0  0.71999544068E+01 -0.36434245944E+01 -0.62307009298E+00  0.80933369408E+01  0.51100000000E-03 0. -1.
        -11    1    3    3    0    0 -0.78862143698E+01 -0.15656515255E+02 -0.25210132983E+02  0.30706182639E+02  0.51100000000E-03 0.  1.
        -12    1    3    3    0    0 -0.53490554306E+01  0.16696638753E+01 -0.10304231933E+02  0.11729337883E+02  0.00000000000E+00 0.  1.
</event>
<event>
 7    1  0.5843820E-012  0.5052886E+02  0.7816164E-02  0.1300439E+00
        -11   -1    0    0    0    0  0.00000000000E+00  0.00000000000E+00  0.45593999997E+02  0.45594000000E+02  0.51100000000E-03 0. -1.
         11   -1    0    0    0    0 -0.00000000000E+00 -0.00000000000E+00 -0.45593999997E+02  0.45594000000E+02  0.51100000000E-03 0.  1.
    9900012    2    1    2    0    0  0.39727090113E+01  0.34273705586E+02  0.21510380122E+02  0.50528858784E+02  0.29999996758E+02 0.  0.
        -12    1    1    2    0    0 -0.39727090113E+01 -0.34273705586E+02 -0.21510380122E+02  0.40659141216E+02  0.00000000000E+00 0.  1.
         11    1    3    3    0    0  0.10086962994E+01  0.15571227948E+02  0.12085534246E+02  0.19736786626E+02  0.51100000000E-03 0. -1.
        -11    1    3    3    0    0 -0.59330438358E+01  0.15498719927E+02  0.12578475505E+02  0.20823769468E+02  0.51100000000E-03 0.  1.
        -12    1    3    3    0    0  0.88970565476E+01  0.32037577104E+01 -0.31536296297E+01  0.99683026901E+01  0.00000000000E+00 0.  1.
</event>
<event>
 7    1  0.5843820E-012  0.5052886E+02  0.7816164E-02  0.1300439E+00
        -11   -1    0    0    0    0  0.00000000000E+00  0.00000000000E+00  0.45593999997E+02  0.45594000000E+02  0.51100000000E-03 0. -1.
         11   -1    0    0    0    0 -0.00000000000E+00 -0.00000000000E+00 -0.45593999997E+02  0.45594000000E+02  0.51100000000E-03 0.  1.
    9900012    2    1    2    0    0 -0.17320056739E+02 -0.13387285350E+02  0.34263130356E+02  0.50528857409E+02  0.29999992579E+02 0.  0.
        -12    1    1    2    0    0  0.17320056739E+02  0.13387285350E+02 -0.34263130356E+02  0.40659142591E+02  0.00000000000E+00 0.  1.
         11    1    3    3    0    0 -0.77113293638E+01 -0.84900833862E+01  0.94788420990E+01  0.14879333462E+02  0.51100000000E-03 0. -1.
        -11    1    3    3    0    0 -0.44257736757E+01 -0.14113661472E+02  0.16907306434E+02  0.22464192038E+02  0.51100000000E-03 0.  1.
        -12    1    3    3    0    0 -0.51829536995E+01  0.92164595087E+01  0.78769818226E+01  0.13185331909E+02  0.00000000000E+00 0.  1.
</event>
<event>
 7    1  0.5843820E-012  0.5052886E+02  0.7816164E-02  0.1300439E+00
        -11   -1    0    0    0    0  0.00000000000E+00  0.00000000000E+00  0.45593999997E+02  0.45594000000E+02  0.51100000000E-03 0. -1.
         11   -1    0    0    0    0 -0.00000000000E+00 -0.00000000000E+00 -0.45593999997E+02  0.45594000000E+02  0.51100000000E-03 0.  1.
    9900012    2    1    2    0    0  0.18581938559E+02  0.78586137591E+01 -0.35300417258E+02  0.50528859461E+02  0.29999998817E+02 0.  0.
         12    1    1    2    0    0 -0.18581938559E+02 -0.78586137591E+01  0.35300417258E+02  0.40659140539E+02  0.00000000000E+00 0. -1.
         11    1    3    3    0    0 -0.88147959936E+00 -0.25091064972E+00  0.13195437280E+01  0.16065983784E+01  0.51100000000E-03 0. -1.
        -11    1    3    3    0    0 -0.58659240377E+01  0.97702094465E-01 -0.70266373596E+01  0.91538103192E+01  0.51100000000E-03 0.  1.
        -12    1    3    3    0    0  0.25329342196E+02  0.80118223144E+01 -0.29593323626E+02  0.39768450763E+02  0.00000000000E+00 0.  1.
</event>
<event>
 7    1  0.5843820E-012  0.5052887E+02  0.7816164E-02  0.1300439E+00
        -11   -1    0    0    0    0  0.00000000000E+00  0.00000000000E+00  0.45593999997E+02  0.45594000000E+02  0.51100000000E-03 0. -1.
         11   -1    0    0    0    0 -0.00000000000E+00 -0.00000000000E+00 -0.45593999997E+02  0.45594000000E+02  0.51100000000E-03 0.  1.
    9900012    2    1    2    0    0  0.14616101091E+02 -0.14811291192E+02  0.34930794000E+02  0.50528866618E+02  0.30000020573E+02 0.  0.
        -12    1    1    2    0    0 -0.14616101091E+02  0.14811291192E+02 -0.34930794000E+02  0.40659133382E+02  0.00000000000E+00 0.  1.
         11    1    3    3    0    0  0.11594578226E+02  0.28801835889E+01  0.17950593056E+02  0.21562780273E+02  0.51100000000E-03 0. -1.
        -11    1    3    3    0    0  0.68376304198E+01 -0.73578517586E+01  0.17910221095E+01  0.10202888450E+02  0.51100000000E-03 0.  1.
         12    1    3    3    0    0 -0.38161075544E+01 -0.10333623022E+02  0.15189178834E+02  0.18763197896E+02  0.00000000000E+00 0. -1.
</event>
<event>
 7    1  0.5843820E-012  0.5052886E+02  0.7816164E-02  0.1300439E+00
        -11   -1    0    0    0    0  0.00000000000E+00  0.00000000000E+00  0.45593999997E+02  0.45594000000E+02  0.51100000000E-03 0. -1.
         11   -1    0    0    0    0 -0.00000000000E+00 -0.00000000000E+00 -0.45593999997E+02  0.45594000000E+02  0.51100000000E-03 0.  1.
    9900012    2    1    2    0    0  0.17984331769E+02 -0.15451154050E+02 -0.33030154566E+02  0.50528862511E+02  0.30000008090E+02 0.  0.
         12    1    1    2    0    0 -0.17984331769E+02  0.15451154050E+02  0.33030154566E+02  0.40659137489E+02  0.00000000000E+00 0. -1.
         11    1    3    3    0    0 -0.11167324990E+01 -0.90698173780E+01 -0.12396261530E+02  0.15400518788E+02  0.51100000000E-03 0. -1.
        -11    1    3    3    0    0  0.14573610557E+02 -0.14003109558E+01 -0.23600129844E+02  0.27772596644E+02  0.51100000000E-03 0.  1.
         12    1    3    3    0    0  0.45274537111E+01 -0.49810257166E+01  0.29662368084E+01  0.73557470796E+01  0.00000000000E+00 0. -1.
</event>
<event>
 7    1  0.5843820E-012  0.5052886E+02  0.7816164E-02  0.1300439E+00
        -11   -1    0    0    0    0  0.00000000000E+00  0.00000000000E+00  0.45593999997E+02  0.45594000000E+02  0.51100000000E-03 0. -1.
         11   -1    0    0    0    0 -0.00000000000E+00 -0.00000000000E+00 -0.45593999997E+02  0.45594000000E+02  0.51100000000E-03 0.  1.
    9900012    2    1    2    0    0 -0.57369401405E+01 -0.54264421130E+01 -0.39884919191E+02  0.50528861605E+02  0.30000005335E+02 0.  0.
         12    1    1    2    0    0  0.57369401405E+01  0.54264421130E+01  0.39884919191E+02  0.40659138395E+02  0.00000000000E+00 0. -1.
         11    1    3    3    0    0 -0.91720871961E+01 -0.99925369282E+01 -0.39629354904E+02  0.41886319344E+02  0.51100000000E-03 0. -1.
        -11    1    3    3    0    0 -0.20408550346E+00 -0.15246550988E+01 -0.16208856625E+00  0.15467698689E+01  0.51100000000E-03 0.  1.
         12    1    3    3    0    0  0.36392325591E+01  0.60907499140E+01 -0.93475720327E-01  0.70957723924E+01  0.00000000000E+00 0. -1.
</event>
<event>
 7    1  0.5843820E-012  0.5052887E+02  0.7816164E-02  0.1300439E+00
        -11   -1    0    0    0    0  0.00000000000E+00  0.00000000000E+00  0.45593999997E+02  0.45594000000E+02  0.51100000000E-03 0. -1.
         11   -1    0    0    0    0 -0.00000000000E+00 -0.00000000000E+00 -0.45593999997E+02  0.45594000000E+02  0.51100000000E-03 0.  1.
    9900012    2    1    2    0    0  0.18067832651E+02 -0.31568787607E+02  0.18169485418E+02  0.50528866610E+02  0.30000020548E+02 0.  0.
        -12    1    1    2    0    0 -0.18067832651E+02  0.31568787607E+02 -0.18169485418E+02  0.40659133390E+02  0.00000000000E+00 0.  1.
         11    1    3    3    0    0  0.16336381775E+02 -0.24624659068E+02  0.82082690830E+01  0.30669641102E+02  0.51100000000E-03 0. -1.
        -11    1    3    3    0    0  0.83467793723E+01 -0.33524274583E+01  0.26779759916E+01  0.93850440289E+01  0.51100000000E-03 0.  1.
         12    1    3    3    0    0 -0.66153284961E+01 -0.35917010804E+01  0.72832403436E+01  0.10474181479E+02  0.00000000000E+00 0. -1.
</event>
<event>
 7    1  0.5843820E-012  0.5052887E+02  0.7816164E-02  0.1300439E+00
        -11   -1    0    0    0    0  0.00000000000E+00  0.00000000000E+00  0.45593999997E+02  0.45594000000E+02  0.51100000000E-03 0. -1.
         11   -1    0    0    0    0 -0.00000000000E+00 -0.00000000000E+00 -0.45593999997E+02  0.45594000000E+02  0.51100000000E-03 0.  1.
    9900012    2    1    2    0    0 -0.30693190286E+02  0.41815432947E+01  0.26336438182E+02  0.50528865598E+02  0.30000017471E+02 0.  0.
        -12    1    1    2    0    0  0.30693190286E+02 -0.41815432947E+01 -0.26336438182E+02  0.40659134402E+02  0.00000000000E+00 0.  1.
         11    1    3    3    0    0 -0.10189352088E+02 -0.89492203815E+01  0.11859518268E+02  0.18015538161E+02  0.51100000000E-03 0. -1.
        -11    1    3    3    0    0 -0.91674030137E+01 -0.22868878620E+01  0.77775964795E+01  0.12237734323E+02  0.51100000000E-03 0.  1.
         12    1    3    3    0    0 -0.11336435184E+02  0.15417651538E+02  0.66993234337E+01  0.20275593113E+02  0.00000000000E+00 0. -1.
</event>
<event>
 7    1  0.5843820E-012  0.5052886E+02  0.7816164E-02  0.1300439E+00
        -11   -1    0    0    0    0  0.00000000000E+00  0.00000000000E+00  0.45593999997E+02  0.45594000000E+02  0.51100000000E-03 0. -1.
         11   -1    0    0    0    0 -0.00000000000E+00 -0.00000000000E+00 -0.45593999997E+02  0.45594000000E+02  0.51100000000E-03 0.  1.
    9900012    2    1    2    0    0  0.38493016658E+02 -0.77219213975E+01  0.10574744376E+02  0.50528860559E+02  0.30000002154E+02 0.  0.
        -12    1    1    2    0    0 -0.38493016658E+02  0.77219213975E+01 -0.10574744376E+02  0.40659139441E+02  0.00000000000E+00 0.  1.
         11    1    3    3    0    0  0.21114746680E+02  0.36140609847E+01  0.12834720982E+02  0.24972465379E+02  0.51100000000E-03 0. -1.
        -11    1    3    3    0    0  0.13915157449E+02 -0.82050523132E+01  0.50129129898E+01  0.16914011564E+02  0.51100000000E-03 0.  1.
        -12    1    3    3    0    0  0.34631125283E+01 -0.31309300689E+01 -0.72728895957E+01  0.86423836151E+01  0.00000000000E+00 0.  1.
</event>
<event>
 7    1  0.5843820E-012  0.5052885E+02  0.7816164E-02  0.1300439E+00
        -11   -1    0    0    0    0  0.00000000000E+00  0.00000000000E+00  0.45593999997E+02  0.45594000000E+02  0.51100000000E-03 0.  1.
         11   -1    0    0    0    0 -0.00000000000E+00 -0.00000000000E+00 -0.45593999997E+02  0.45594000000E+02  0.51100000000E-03 0. -1.
    9900012    2    1    2    0    0  0.19273006789E+02 -0.15784705712E+02 -0.32133477131E+02  0.50528854932E+02  0.29999985052E+02 0.  0.
         12    1    1    2    0    0 -0.19273006789E+02  0.15784705712E+02  0.32133477131E+02  0.40659145068E+02  0.00000000000E+00 0. -1.
         11    1    3    3    0    0  0.28749761183E+01  0.26579342818E+01 -0.15181672342E+02  0.15678433522E+02  0.51100000000E-03 0. -1.
        -11    1    3    3    0    0  0.15252930163E+02 -0.49704789466E+01 -0.13317443179E+02  0.20849744185E+02  0.51100000000E-03 0.  1.
        -12    1    3    3    0    0  0.11451005085E+01 -0.13472161047E+02 -0.36343616095E+01  0.14000677225E+02  0.00000000000E+00 0.  1.
</event>
<event>
 7    1  0.5843820E-012  0.5052885E+02  0.7816164E-02  0.1300439E+00
        -11   -1    0    0    0    0  0.00000000000E+00  0.00000000000E+00  0.45593999997E+02  0.45594000000E+02  0.51100000000E-03 0. -1.
         11   -1    0    0    0    0 -0.00000000000E+00 -0.00000000000E+00 -0.45593999997E+02  0.45594000000E+02  0.51100000000E-03 0.  1.
    9900012    2    1    2    0    0 -0.36770088109E+01  0.26473174684E+02  0.30640124362E+02  0.50528848600E+02  0.29999965804E+02 0.  0.
        -12    1    1    2    0    0  0.36770088109E+01 -0.26473174684E+02 -0.30640124362E+02  0.40659151400E+02  0.00000000000E+00 0.  1.
         11    1    3    3    0    0  0.19569000867E+01  0.19423932935E+02  0.21955370293E+02  0.29379532222E+02  0.51100000000E-03 0. -1.
        -11    1    3    3    0    0 -0.51386487000E+01 -0.49790754179E+01  0.42361070151E+01  0.83151371236E+01  0.51100000000E-03 0.  1.
         12    1    3    3    0    0 -0.49526019757E+00  0.12028317167E+02  0.44486470547E+01  0.12834179255E+02  0.00000000000E+00 0. -1.
</event>
<event>
 7    1  0.5843820E-012  0.5052885E+02  0.7816164E-02  0.1300439E+00
        -11   -1    0    0    0    0  0.00000000000E+00  0.00000000000E+00  0.45593999997E+02  0.45594000000E+02  0.51100000000E-03 0.  1.
         11   -1    0    0    0    0 -0.00000000000E+00 -0.00000000000E+00 -0.45593999997E+02  0.45594000000E+02  0.51100000000E-03 0. -1.
    9900012    2    1    2    0    0  0.85604350829E+01  0.39305252392E+02  0.59145984541E+01  0.50528851100E+02  0.29999973403E+02 0.  0.
        -12    1    1    2    0    0 -0.85604350829E+01 -0.39305252392E+02 -0.59145984541E+01  0.40659148900E+02  0.00000000000E+00 0.  1.
         11    1    3    3    0    0  0.81257750564E+01  0.14036423832E+02 -0.54100004205E+00  0.16227818571E+02  0.51100000000E-03 0. -1.
        -11    1    3    3    0    0  0.89285943985E+01  0.12715206393E+02  0.10328658517E+02  0.18656834098E+02  0.51100000000E-03 0.  1.
        -12    1    3    3    0    0 -0.84939343720E+01  0.12553622167E+02 -0.38730600207E+01  0.15644198431E+02  0.00000000000E+00 0.  1.
</event>
<event>
 7    1  0.5843820E-012  0.5052886E+02  0.7816164E-02  0.1300439E+00
        -11   -1    0    0    0    0  0.00000000000E+00  0.00000000000E+00  0.45593999997E+02  0.45594000000E+02  0.51100000000E-03 0. -1.
         11   -1    0    0    0    0 -0.00000000000E+00 -0.00000000000E+00 -0.45593999997E+02  0.45594000000E+02  0.51100000000E-03 0.  1.
    9900012    2    1    2    0    0 -0.17170498504E+02  0.14847613322E+02  0.33732593555E+02  0.50528861935E+02  0.30000006337E+02 0.  0.
        -12    1    1    2    0    0  0.17170498504E+02 -0.14847613322E+02 -0.33732593555E+02  0.40659138065E+02  0.00000000000E+00 0.  1.
         11    1    3    3    0    0 -0.31341994419E+01 -0.42210528256E+01  0.10174388588E+02  0.11452452860E+02  0.51100000000E-03 0. -1.
        -11    1    3    3    0    0 -0.49088319197E+01 -0.37409240858E+01  0.22950136737E+01  0.65846967929E+01  0.51100000000E-03 0.  1.
        -12    1    3    3    0    0 -0.91274671426E+01  0.22809590234E+02  0.21263191293E+02  0.32491712282E+02  0.00000000000E+00 0.  1.
</event>
<event>
 7    1  0.5843820E-012  0.5052885E+02  0.7816164E-02  0.1300439E+00
        -11   -1    0    0    0    0  0.00000000000E+00  0.00000000000E+00  0.45593999997E+02  0.45594000000E+02  0.51100000000E-03 0. -1.
         11   -1    0    0    0    0 -0.00000000000E+00 -0.00000000000E+00 -0.45593999997E+02  0.45594000000E+02  0.51100000000E-03 0.  1.
    9900012    2    1    2    0    0  0.10678828834E+02 -0.21477960473E+02  0.32830265852E+02  0.50528849404E+02  0.29999968247E+02 0.  0.
        -12    1    1    2    0    0 -0.10678828834E+02  0.21477960473E+02 -0.32830265852E+02  0.40659150596E+02  0.00000000000E+00 0.  1.
         11    1    3    3    0    0  0.77028547776E+01 -0.10054706709E+02  0.28246248109E+02  0.30956124293E+02  0.51100000000E-03 0. -1.
        -11    1    3    3    0    0  0.67684321849E+01  0.12412010759E+00  0.66421533264E+00  0.68020777937E+01  0.51100000000E-03 0.  1.
        -12    1    3    3    0    0 -0.37924581281E+01 -0.11547373871E+02  0.39198024100E+01  0.12770647317E+02  0.00000000000E+00 0.  1.
</event>
<event>
 7    1  0.5843820E-012  0.5052886E+02  0.7816164E-02  0.1300439E+00
        -11   -1    0    0    0    0  0.00000000000E+00  0.00000000000E+00  0.45593999997E+02  0.45594000000E+02  0.51100000000E-03 0. -1.
         11   -1    0    0    0    0 -0.00000000000E+00 -0.00000000000E+00 -0.45593999997E+02  0.45594000000E+02  0.51100000000E-03 0.  1.
    9900012    2    1    2    0    0 -0.65554056496E+01  0.21318718784E+02  0.33995654183E+02  0.50528860595E+02  0.30000002264E+02 0.  0.
        -12    1    1    2    0    0  0.65554056496E+01 -0.21318718784E+02 -0.33995654183E+02  0.40659139405E+02  0.00000000000E+00 0.  1.
         11    1    3    3    0    0  0.63318142616E+01  0.46646543194E+01  0.89866727157E+01  0.11941991397E+02  0.51100000000E-03 0. -1.
        -11    1    3    3    0    0  0.54409389762E+01  0.18998046519E+01  0.61924267616E+01  0.84592685332E+01  0.51100000000E-03 0.  1.
        -12    1    3    3    0    0 -0.18328158887E+02  0.14754259812E+02  0.18816554706E+02  0.30127600665E+02  0.00000000000E+00 0.  1.
</event>
<event>
 7    1  0.5843820E-012  0.5052888E+02  0.7816164E-02  0.1300439E+00
        -11   -1    0    0    0    0  0.00000000000E+00  0.00000000000E+00  0.45593999997E+02  0.45594000000E+02  0.51100000000E-03 0. -1.
         11   -1    0    0    0    0 -0.00000000000E+00 -0.00000000000E+00 -0.45593999997E+02  0.45594000000E+02  0.51100000000E-03 0.  1.
    9900012    2    1    2    0    0 -0.34921487963E+02 -0.62589303836E+01 -0.19861512383E+02  0.50528877958E+02  0.30000055040E+02 0.  0.
         12    1    1    2    0    0  0.34921487963E+02  0.62589303836E+01  0.19861512383E+02  0.40659122042E+02  0.00000000000E+00 0. -1.
         11    1    3    3    0    0 -0.36798918352E+02 -0.55103107070E+01 -0.91757867179E+01  0.38323869561E+02  0.51100000000E-03 0. -1.
        -11    1    3    3    0    0 -0.86520997736E+00 -0.19620110813E+00  0.24624515100E+00  0.92071717442E+00  0.51100000000E-03 0.  1.
         12    1    3    3    0    0  0.27426403667E+01 -0.55241856841E+00 -0.10931970816E+02  0.11284291222E+02  0.00000000000E+00 0. -1.
</event>
<event>
 7    1  0.5843820E-012  0.5052886E+02  0.7816164E-02  0.1300439E+00
        -11   -1    0    0    0    0  0.00000000000E+00  0.00000000000E+00  0.45593999997E+02  0.45594000000E+02  0.51100000000E-03 0. -1.
         11   -1    0    0    0    0 -0.00000000000E+00 -0.00000000000E+00 -0.45593999997E+02  0.45594000000E+02  0.51100000000E-03 0.  1.
    9900012    2    1    2    0    0  0.16190752573E+02 -0.41980194817E+00  0.37294082400E+02  0.50528864685E+02  0.30000014695E+02 0.  0.
        -12    1    1    2    0    0 -0.16190752573E+02  0.41980194817E+00 -0.37294082400E+02  0.40659135315E+02  0.00000000000E+00 0.  1.
         11    1    3    3    0    0  0.11449559676E+02 -0.20652398790E+01  0.41214261314E+02  0.42824910606E+02  0.51100000000E-03 0. -1.
        -11    1    3    3    0    0  0.50531810957E-01  0.10029618064E+01  0.59030140910E+00  0.11648784759E+01  0.51100000000E-03 0.  1.
         12    1    3    3    0    0  0.46906610857E+01  0.64247612446E+00 -0.45104803228E+01  0.65390756024E+01  0.00000000000E+00 0. -1.
</event>
<event>
 7    1  0.5843820E-012  0.5052887E+02  0.7816164E-02  0.1300439E+00
        -11   -1    0    0    0    0  0.00000000000E+00  0.00000000000E+00  0.45593999997E+02  0.45594000000E+02  0.51100000000E-03 0. -1.
         11   -1    0    0    0    0 -0.00000000000E+00 -0.00000000000E+00 -0.45593999997E+02  0.45594000000E+02  0.51100000000E-03 0.  1.
    9900012    2    1    2    0    0 -0.36706663481E+02  0.15407722602E+01 -0.17418719975E+02  0.50528869062E+02  0.30000028000E+02 0.  0.
         12    1    1    2    0    0  0.36706663481E+02 -0.15407722602E+01  0.17418719975E+02  0.40659130938E+02  0.00000000000E+00 0. -1.
         11    1    3    3    0    0 -0.25302833537E+02 -0.13177622452E+01 -0.18519607986E+02  0.31383845567E+02  0.51100000000E-03 0. -1.
        -11    1    3    3    0    0 -0.47955219597E+01  0.21167789827E+01 -0.69485794569E+01  0.87040531282E+01  0.51100000000E-03 0.  1.
         12    1    3    3    0    0 -0.66083079842E+01  0.74175552272E+00  0.80494674685E+01  0.10440970367E+02  0.00000000000E+00 0. -1.
</event>
<event>
 7    1  0.5843820E-012  0.5052886E+02  0.7816164E-02  0.1300439E+00
        -11   -1    0    0    0    0  0.00000000000E+00  0.00000000000E+00  0.45593999997E+02  0.45594000000E+02  0.51100000000E-03 0.  1.
         11   -1    0    0    0    0 -0.00000000000E+00 -0.00000000000E+00 -0.45593999997E+02  0.45594000000E+02  0.51100000000E-03 0. -1.
    9900012    2    1    2    0    0  0.83087867357E+01  0.26629813238E+02  0.29580101924E+02  0.50528864250E+02  0.30000013374E+02 0.  0.
        -12    1    1    2    0    0 -0.83087867357E+01 -0.26629813238E+02 -0.29580101924E+02  0.40659135750E+02  0.00000000000E+00 0.  1.
         11    1    3    3    0    0 -0.14212813987E+01  0.14909714021E+01  0.43950166486E+00  0.21062285039E+01  0.51100000000E-03 0. -1.
        -11    1    3    3    0    0 -0.96355990944E+00  0.21362899239E+02  0.53142898791E+01  0.22035053637E+02  0.51100000000E-03 0.  1.
         12    1    3    3    0    0  0.10693628044E+02  0.37759425972E+01  0.23826310380E+02  0.26387582109E+02  0.00000000000E+00 0. -1.
</event>
<event>
 7    1  0.5843820E-012  0.5052886E+02  0.7816164E-02  0.1300439E+00
        -11   -1    0    0    0    0  0.00000000000E+00  0.00000000000E+00  0.45593999997E+02  0.45594000000E+02  0.51100000000E-03 0.  1.
         11   -1    0    0    0    0 -0.00000000000E+00 -0.00000000000E+00 -0.45593999997E+02  0.45594000000E+02  0.51100000000E-03 0. -1.
    9900012    2    1    2    0    0 -0.56598860406E+01  0.39679640394E+02 -0.68306171855E+01  0.50528862000E+02  0.30000006534E+02 0.  0.
        -12    1    1    2    0    0  0.56598860406E+01 -0.39679640394E+02  0.68306171855E+01  0.40659138000E+02  0.00000000000E+00 0.  1.
         11    1    3    3    0    0 -0.11887851986E+01  0.33836840908E+01  0.55127122139E+01  0.65766651495E+01  0.51100000000E-03 0. -1.
        -11    1    3    3    0    0  0.47073636401E+01  0.68373834586E+01 -0.10016570272E+02  0.13009256907E+02  0.51100000000E-03 0.  1.
         12    1    3    3    0    0 -0.91784644821E+01  0.29458572845E+02 -0.23267591274E+01  0.30942939943E+02  0.00000000000E+00 0. -1.
</event>
<event>
 7    1  0.5843820E-012  0.5052886E+02  0.7816164E-02  0.1300439E+00
        -11   -1    0    0    0    0  0.00000000000E+00  0.00000000000E+00  0.45593999997E+02  0.45594000000E+02  0.51100000000E-03 0.  1.
         11   -1    0    0    0    0 -0.00000000000E+00 -0.00000000000E+00 -0.45593999997E+02  0.45594000000E+02  0.51100000000E-03 0. -1.
    9900012    2    1    2    0    0 -0.35529308233E+02 -0.17473018918E+02 -0.92481218869E+01  0.50528857214E+02  0.29999991988E+02 0.  0.
         12    1    1    2    0    0  0.35529308233E+02  0.17473018918E+02  0.92481218869E+01  0.40659142786E+02  0.00000000000E+00 0. -1.
         11    1    3    3    0    0  0.29651558585E+00 -0.83186050919E+01  0.20834196056E+01  0.85806613779E+01  0.51100000000E-03 0.  1.
        -11    1    3    3    0    0 -0.15300334973E+01  0.27857296928E+01 -0.36316899077E+01  0.48260195058E+01  0.51100000000E-03 0. -1.
        -12    1    3    3    0    0 -0.34295790322E+02 -0.11940143519E+02 -0.76998515849E+01  0.37122176330E+02  0.00000000000E+00 0.  1.
</event>
<event>
 7    1  0.5843820E-012  0.5052886E+02  0.7816164E-02  0.1300439E+00
        -11   -1    0    0    0    0  0.00000000000E+00  0.00000000000E+00  0.45593999997E+02  0.45594000000E+02  0.51100000000E-03 0. -1.
         11   -1    0    0    0    0 -0.00000000000E+00 -0.00000000000E+00 -0.45593999997E+02  0.45594000000E+02  0.51100000000E-03 0.  1.
    9900012    2    1    2    0    0  0.21482373355E+02  0.55894712988E+01  0.34065102305E+02  0.50528858969E+02  0.29999997322E+02 0.  0.
        -12    1    1    2    0    0 -0.21482373355E+02 -0.55894712988E+01 -0.34065102305E+02  0.40659141031E+02  0.00000000000E+00 0.  1.
         11    1    3    3    0    0 -0.22840814432E+01  0.26408836197E+01  0.10800635371E+02  0.11350991984E+02  0.51100000000E-03 0. -1.
        -11    1    3    3    0    0  0.28946955057E+01  0.78360617913E+00  0.17023600614E+02  0.17285724713E+02  0.51100000000E-03 0.  1.
        -12    1    3    3    0    0  0.20871759292E+02  0.21649814999E+01  0.62408663196E+01  0.21892142272E+02  0.00000000000E+00 0.  1.
</event>
<event>
 7    1  0.5843820E-012  0.5052887E+02  0.7816164E-02  0.1300439E+00
        -11   -1    0    0    0    0  0.00000000000E+00  0.00000000000E+00  0.45593999997E+02  0.45594000000E+02  0.51100000000E-03 0. -1.
         11   -1    0    0    0    0 -0.00000000000E+00 -0.00000000000E+00 -0.45593999997E+02  0.45594000000E+02  0.51100000000E-03 0.  1.
    9900012    2    1    2    0    0  0.16058064599E+02 -0.96307731779E+01  0.36090881391E+02  0.50528868796E+02  0.30000027192E+02 0.  0.
        -12    1    1    2    0    0 -0.16058064599E+02  0.96307731779E+01 -0.36090881391E+02  0.40659131204E+02  0.00000000000E+00 0.  1.
         11    1    3    3    0    0  0.14284681410E+02  0.16580286692E+00  0.16943933065E+02  0.22162501698E+02  0.51100000000E-03 0. -1.
        -11    1    3    3    0    0  0.22615806779E+01  0.21288024728E+01  0.15612822602E+02  0.15918755511E+02  0.51100000000E-03 0.  1.
         12    1    3    3    0    0 -0.48819748909E+00 -0.11925378518E+02  0.35341257244E+01  0.12447611587E+02  0.00000000000E+00 0. -1.
</event>
<event>
 7    1  0.5843820E-012  0.5052886E+02  0.7816164E-02  0.1300439E+00
        -11   -1    0    0    0    0  0.00000000000E+00  0.00000000000E+00  0.45593999997E+02  0.45594000000E+02  0.51100000000E-03 0. -1.
         11   -1    0    0    0    0 -0.00000000000E+00 -0.00000000000E+00 -0.45593999997E+02  0.45594000000E+02  0.51100000000E-03 0.  1.
    9900012    2    1    2    0    0  0.47333228064E+01 -0.43403779339E+01 -0.40148757758E+02  0.50528856196E+02  0.29999988893E+02 0.  0.
         12    1    1    2    0    0 -0.47333228064E+01  0.43403779339E+01  0.40148757758E+02  0.40659143804E+02  0.00000000000E+00 0. -1.
         11    1    3    3    0    0 -0.10215412783E+02  0.55055329409E+01 -0.10391327365E+02  0.15577074050E+02  0.51100000000E-03 0.  1.
        -11    1    3    3    0    0  0.47750464410E+01 -0.49568309723E+01 -0.13596324701E+02  0.15239136702E+02  0.51100000000E-03 0. -1.
        -12    1    3    3    0    0  0.10173689149E+02 -0.48890799025E+01 -0.16161105692E+02  0.19712645443E+02  0.00000000000E+00 0.  1.
</event>
<event>
 7    1  0.5843820E-012  0.5052887E+02  0.7816164E-02  0.1300439E+00
        -11   -1    0    0    0    0  0.00000000000E+00  0.00000000000E+00  0.45593999997E+02  0.45594000000E+02  0.51100000000E-03 0.  1.
         11   -1    0    0    0    0 -0.00000000000E+00 -0.00000000000E+00 -0.45593999997E+02  0.45594000000E+02  0.51100000000E-03 0. -1.
    9900012    2    1    2    0    0  0.35657319025E+02  0.17657145463E+02 -0.83633523041E+01  0.50528870057E+02  0.30000031025E+02 0.  0.
         12    1    1    2    0    0 -0.35657319025E+02 -0.17657145463E+02  0.83633523041E+01  0.40659129943E+02  0.00000000000E+00 0. -1.
         11    1    3    3    0    0  0.47109645062E+01 -0.27706490339E+00  0.44658794005E+00  0.47401890879E+01  0.51100000000E-03 0. -1.
        -11    1    3    3    0    0  0.27502659016E+02  0.38092062713E+01 -0.13000443725E+02  0.30658079566E+02  0.51100000000E-03 0.  1.
         12    1    3    3    0    0  0.34436955037E+01  0.14125004095E+02  0.41905034811E+01  0.15130601403E+02  0.00000000000E+00 0. -1.
</event>
<event>
 7    1  0.5843820E-012  0.5052878E+02  0.7816164E-02  0.1300439E+00
        -11   -1    0    0    0    0  0.00000000000E+00  0.00000000000E+00  0.45593999997E+02  0.45594000000E+02  0.51100000000E-03 0. -1.
         11   -1    0    0    0    0 -0.00000000000E+00 -0.00000000000E+00 -0.45593999997E+02  0.45594000000E+02  0.51100000000E-03 0.  1.
    9900012    2    1    2    0    0  0.25629095738E+02 -0.57418240442E+01  0.31037929277E+02  0.50528780314E+02  0.29999758241E+02 0.  0.
        -12    1    1    2    0    0 -0.25629095738E+02  0.57418240442E+01 -0.31037929277E+02  0.40659219686E+02  0.00000000000E+00 0.  1.
         11    1    3    3    0    0  0.83634030897E+01 -0.59982613447E+00  0.23337368704E+02  0.24797965257E+02  0.51100000000E-03 0. -1.
        -11    1    3    3    0    0  0.19516671334E+02 -0.95147251829E+00  0.76206453749E+01  0.20973316287E+02  0.51100000000E-03 0.  1.
         12    1    3    3    0    0 -0.22509786856E+01 -0.41905253915E+01  0.79915198093E-01  0.47574987691E+01  0.00000000000E+00 0. -1.
</event>
<event>
 7    1  0.5843820E-012  0.5052886E+02  0.7816164E-02  0.1300439E+00
        -11   -1    0    0    0    0  0.00000000000E+00  0.00000000000E+00  0.45593999997E+02  0.45594000000E+02  0.51100000000E-03 0. -1.
         11   -1    0    0    0    0 -0.00000000000E+00 -0.00000000000E+00 -0.45593999997E+02  0.45594000000E+02  0.51100000000E-03 0.  1.
    9900012    2    1    2    0    0  0.20994420723E+02  0.51417197428E+01 -0.34437809195E+02  0.50528859753E+02  0.29999999707E+02 0.  0.
         12    1    1    2    0    0 -0.20994420723E+02 -0.51417197428E+01  0.34437809195E+02  0.40659140247E+02  0.00000000000E+00 0. -1.
         11    1    3    3    0    0  0.24648228989E+01  0.75906750691E+01 -0.72494520786E-01  0.79811625497E+01  0.51100000000E-03 0. -1.
        -11    1    3    3    0    0  0.18240003319E+01  0.60255060633E+01 -0.99485893080E+01  0.11773195404E+02  0.51100000000E-03 0.  1.
        -12    1    3    3    0    0  0.16705597493E+02 -0.84744613897E+01 -0.24416725366E+02  0.30774501800E+02  0.00000000000E+00 0.  1.
</event>
<event>
 7    1  0.5843820E-012  0.5052884E+02  0.7816164E-02  0.1300439E+00
        -11   -1    0    0    0    0  0.00000000000E+00  0.00000000000E+00  0.45593999997E+02  0.45594000000E+02  0.51100000000E-03 0. -1.
         11   -1    0    0    0    0 -0.00000000000E+00 -0.00000000000E+00 -0.45593999997E+02  0.45594000000E+02  0.51100000000E-03 0.  1.
    9900012    2    1    2    0    0 -0.25437240471E+02 -0.19783199691E+02  0.24793939140E+02  0.50528836078E+02  0.29999927742E+02 0.  0.
        -12    1    1    2    0    0  0.25437240471E+02  0.19783199691E+02 -0.24793939140E+02  0.40659163922E+02  0.00000000000E+00 0.  1.
         11    1    3    3    0    0 -0.49773605909E+01  0.28828384930E+01  0.10874100823E+02  0.12301664327E+02  0.51100000000E-03 0.  1.
        -11    1    3    3    0    0  0.23258514380E+01 -0.29049331272E+01  0.59718936697E+01  0.70364576065E+01  0.51100000000E-03 0. -1.
        -12    1    3    3    0    0 -0.22785731318E+02 -0.19761105056E+02  0.79479446466E+01  0.31190714145E+02  0.00000000000E+00 0.  1.
</event>
<event>
 7    1  0.5843820E-012  0.5052887E+02  0.7816164E-02  0.1300439E+00
        -11   -1    0    0    0    0  0.00000000000E+00  0.00000000000E+00  0.45593999997E+02  0.45594000000E+02  0.51100000000E-03 0. -1.
         11   -1    0    0    0    0 -0.00000000000E+00 -0.00000000000E+00 -0.45593999997E+02  0.45594000000E+02  0.51100000000E-03 0.  1.
    9900012    2    1    2    0    0 -0.13987773816E+02  0.27892960652E+02 -0.26067026600E+02  0.50528868848E+02  0.30000027350E+02 0.  0.
         12    1    1    2    0    0  0.13987773816E+02 -0.27892960652E+02  0.26067026600E+02  0.40659131152E+02  0.00000000000E+00 0. -1.
         11    1    3    3    0    0 -0.39715052070E+01  0.17755384178E+02 -0.10884543383E+02  0.21201410468E+02  0.51100000000E-03 0.  1.
        -11    1    3    3    0    0 -0.73983307289E+00  0.14462954980E+02 -0.63691518472E+01  0.15820572532E+02  0.51100000000E-03 0. -1.
         12    1    3    3    0    0 -0.92764355361E+01 -0.43253785054E+01 -0.88133313703E+01  0.13506885848E+02  0.00000000000E+00 0. -1.
</event>
<event>
 7    1  0.5965913E-012  0.5052887E+02  0.7816164E-02  0.1300439E+00
        -11   -1    0    0    0    0  0.00000000000E+00  0.00000000000E+00  0.45593999997E+02  0.45594000000E+02  0.51100000000E-03 0. -1.
         11   -1    0    0    0    0 -0.00000000000E+00 -0.00000000000E+00 -0.45593999997E+02  0.45594000000E+02  0.51100000000E-03 0.  1.
    9900012    2    1    2    0    0  0.27095553929E+02  0.19895374851E+02 -0.22872914319E+02  0.50528865815E+02  0.30000018133E+02 0.  0.
         12    1    1    2    0    0 -0.27095553929E+02 -0.19895374851E+02  0.22872914319E+02  0.40659134185E+02  0.00000000000E+00 0. -1.
         11    1    3    3    0    0  0.55613204857E+00  0.54755891176E+01  0.44481068714E+01  0.70765114316E+01  0.51100000000E-03 0. -1.
        -11    1    3    3    0    0  0.26074748713E+01  0.24682958579E+01 -0.12214548739E+02  0.12731324000E+02  0.51100000000E-03 0.  1.
        -12    1    3    3    0    0  0.23931947009E+02  0.11951489876E+02 -0.15106472452E+02  0.30721030384E+02  0.00000000000E+00 0.  1.
</event>
<event>
 7    1  0.5843820E-012  0.5052892E+02  0.7816164E-02  0.1300439E+00
        -11   -1    0    0    0    0  0.00000000000E+00  0.00000000000E+00  0.45593999997E+02  0.45594000000E+02  0.51100000000E-03 0. -1.
         11   -1    0    0    0    0 -0.00000000000E+00 -0.00000000000E+00 -0.45593999997E+02  0.45594000000E+02  0.51100000000E-03 0.  1.
    9900012    2    1    2    0    0 -0.28510046606E+02  0.21630823253E+02  0.19298843737E+02  0.50528921781E+02  0.30000188243E+02 0.  0.
        -12    1    1    2    0    0  0.28510046606E+02 -0.21630823253E+02 -0.19298843737E+02  0.40659078219E+02  0.00000000000E+00 0.  1.
         11    1    3    3    0    0  0.28346159861E+01 -0.15035394489E+01  0.54797363149E+01  0.63500542521E+01  0.51100000000E-03 0. -1.
        -11    1    3    3    0    0 -0.15503886317E+02  0.71023537178E+01 -0.11995032484E+01  0.17095400772E+02  0.51100000000E-03 0.  1.
         12    1    3    3    0    0 -0.15840776276E+02  0.16032008984E+02  0.15018610670E+02  0.27083466756E+02  0.00000000000E+00 0. -1.
</event>
<event>
 7    1  0.5843820E-012  0.5052893E+02  0.7816164E-02  0.1300439E+00
        -11   -1    0    0    0    0  0.00000000000E+00  0.00000000000E+00  0.45593999997E+02  0.45594000000E+02  0.51100000000E-03 0.  1.
         11   -1    0    0    0    0 -0.00000000000E+00 -0.00000000000E+00 -0.45593999997E+02  0.45594000000E+02  0.51100000000E-03 0. -1.
    9900012    2    1    2    0    0  0.26251311736E+01  0.21411958403E+02 -0.34464431521E+02  0.50528925780E+02  0.30000200402E+02 0.  0.
         12    1    1    2    0    0 -0.26251311736E+01 -0.21411958403E+02  0.34464431521E+02  0.40659074220E+02  0.00000000000E+00 0. -1.
         11    1    3    3    0    0  0.18064180527E+01 -0.16898354361E+01  0.49971797330E+00  0.25235705451E+01  0.51100000000E-03 0. -1.
        -11    1    3    3    0    0 -0.63176161030E+00 -0.26518945543E+01  0.16731205673E+01  0.31985934648E+01  0.51100000000E-03 0.  1.
         12    1    3    3    0    0  0.14504747313E+01  0.25753688393E+02 -0.36637270061E+02  0.44806761771E+02  0.00000000000E+00 0. -1.
</event>
<event>
 7    1  0.5843820E-012  0.5052887E+02  0.7816164E-02  0.1300439E+00
        -11   -1    0    0    0    0  0.00000000000E+00  0.00000000000E+00  0.45593999997E+02  0.45594000000E+02  0.51100000000E-03 0. -1.
         11   -1    0    0    0    0 -0.00000000000E+00 -0.00000000000E+00 -0.45593999997E+02  0.45594000000E+02  0.51100000000E-03 0.  1.
    9900012    2    1    2    0    0 -0.20373766851E+02 -0.56605430634E+01  0.34727979900E+02  0.50528871734E+02  0.30000036122E+02 0.  0.
        -12    1    1    2    0    0  0.20373766851E+02  0.56605430634E+01 -0.34727979900E+02  0.40659128266E+02  0.00000000000E+00 0.  1.
         11    1    3    3    0    0 -0.54292887088E+00 -0.79641406644E+01  0.65555293747E+01  0.10329437251E+02  0.51100000000E-03 0. -1.
        -11    1    3    3    0    0  0.41251899618E+01 -0.11709565071E+01  0.59858781479E+01  0.73633598869E+01  0.51100000000E-03 0.  1.
         12    1    3    3    0    0 -0.23956027942E+02  0.34745541081E+01  0.22186572377E+02  0.32836074596E+02  0.00000000000E+00 0. -1.
</event>
<event>
 7    1  0.5843820E-012  0.5052889E+02  0.7816164E-02  0.1300439E+00
        -11   -1    0    0    0    0  0.00000000000E+00  0.00000000000E+00  0.45593999997E+02  0.45594000000E+02  0.51100000000E-03 0. -1.
         11   -1    0    0    0    0 -0.00000000000E+00 -0.00000000000E+00 -0.45593999997E+02  0.45594000000E+02  0.51100000000E-03 0.  1.
    9900012    2    1    2    0    0  0.22897289052E+02 -0.25961147872E+02 -0.21328304009E+02  0.50528885442E+02  0.30000077788E+02 0.  0.
         12    1    1    2    0    0 -0.22897289052E+02  0.25961147872E+02  0.21328304009E+02  0.40659114558E+02  0.00000000000E+00 0. -1.
         11    1    3    3    0    0 -0.30726306701E+01 -0.29081407697E+01 -0.62162616184E+01  0.75193251520E+01  0.51100000000E-03 0. -1.
        -11    1    3    3    0    0  0.10862714379E+02 -0.22687164065E+02 -0.92363214310E+01  0.26795813308E+02  0.51100000000E-03 0.  1.
        -12    1    3    3    0    0  0.15107205343E+02 -0.36584303742E+00 -0.58757209595E+01  0.16213746982E+02  0.00000000000E+00 0.  1.
</event>
<event>
 7    1  0.5843820E-012  0.5052885E+02  0.7816164E-02  0.1300439E+00
        -11   -1    0    0    0    0  0.00000000000E+00  0.00000000000E+00  0.45593999997E+02  0.45594000000E+02  0.51100000000E-03 0. -1.
         11   -1    0    0    0    0 -0.00000000000E+00 -0.00000000000E+00 -0.45593999997E+02  0.45594000000E+02  0.51100000000E-03 0.  1.
    9900012    2    1    2    0    0  0.24879526109E+02  0.21273299239E+02  0.24116852112E+02  0.50528848069E+02  0.29999964191E+02 0.  0.
        -12    1    1    2    0    0 -0.24879526109E+02 -0.21273299239E+02 -0.24116852112E+02  0.40659151931E+02  0.00000000000E+00 0.  1.
         11    1    3    3    0    0  0.11584954127E+02  0.15266657045E+02  0.15172076508E+02  0.24443278939E+02  0.51100000000E-03 0. -1.
        -11    1    3    3    0    0  0.42572119382E+01  0.88620989351E+01 -0.35058823203E+01  0.10438000868E+02  0.51100000000E-03 0.  1.
         12    1    3    3    0    0  0.90373600435E+01 -0.28554567410E+01  0.12450657924E+02  0.15647568262E+02  0.00000000000E+00 0. -1.
</event>
<event>
 7    1  0.5843820E-012  0.5052888E+02  0.7816164E-02  0.1300439E+00
        -11   -1    0    0    0    0  0.00000000000E+00  0.00000000000E+00  0.45593999997E+02  0.45594000000E+02  0.51100000000E-03 0. -1.
         11   -1    0    0    0    0 -0.00000000000E+00 -0.00000000000E+00 -0.45593999997E+02  0.45594000000E+02  0.51100000000E-03 0.  1.
    9900012    2    1    2    0    0 -0.17210613322E+02 -0.28014453238E+02  0.23919648979E+02  0.50528875459E+02  0.30000047445E+02 0.  0.
        -12    1    1    2    0    0  0.17210613322E+02  0.28014453238E+02 -0.23919648979E+02  0.40659124541E+02  0.00000000000E+00 0.  1.
         11    1    3    3    0    0 -0.76648504491E+01 -0.14943654154E+02 -0.10372017144E+01  0.16826720404E+02  0.51100000000E-03 0. -1.
        -11    1    3    3    0    0 -0.28875467987E+01  0.21583951213E+01  0.12280734579E+02  0.12798946757E+02  0.51100000000E-03 0.  1.
        -12    1    3    3    0    0 -0.66582160746E+01 -0.15229194205E+02  0.12676116114E+02  0.20903208299E+02  0.00000000000E+00 0.  1.
</event>
<event>
 7    1  0.5843820E-012  0.5052885E+02  0.7816164E-02  0.1300439E+00
        -11   -1    0    0    0    0  0.00000000000E+00  0.00000000000E+00  0.45593999997E+02  0.45594000000E+02  0.51100000000E-03 0. -1.
         11   -1    0    0    0    0 -0.00000000000E+00 -0.00000000000E+00 -0.45593999997E+02  0.45594000000E+02  0.51100000000E-03 0.  1.
    9900012    2    1    2    0    0  0.29749148404E+02  0.98405390939E+01 -0.25909817362E+02  0.50528847572E+02  0.29999962681E+02 0.  0.
         12    1    1    2    0    0 -0.29749148404E+02 -0.98405390939E+01  0.25909817362E+02  0.40659152428E+02  0.00000000000E+00 0. -1.
         11    1    3    3    0    0  0.17469666252E+02  0.10333734209E+02 -0.48013602310E+01  0.20857333531E+02  0.51100000000E-03 0. -1.
        -11    1    3    3    0    0  0.52207736891E+01  0.43001986693E+01  0.14921670525E+00  0.67653863448E+01  0.51100000000E-03 0.  1.
        -12    1    3    3    0    0  0.70587084620E+01 -0.47933937849E+01 -0.21257673836E+02  0.22906127697E+02  0.00000000000E+00 0.  1.
</event>
<event>
 7    1  0.5843820E-012  0.5052886E+02  0.7816164E-02  0.1300439E+00
        -11   -1    0    0    0    0  0.00000000000E+00  0.00000000000E+00  0.45593999997E+02  0.45594000000E+02  0.51100000000E-03 0. -1.
         11   -1    0    0    0    0 -0.00000000000E+00 -0.00000000000E+00 -0.45593999997E+02  0.45594000000E+02  0.51100000000E-03 0.  1.
    9900012    2    1    2    0    0  0.56684415351E+01  0.21346690772E+02  0.34137266601E+02  0.50528863175E+02  0.30000010108E+02 0.  0.
        -12    1    1    2    0    0 -0.56684415351E+01 -0.21346690772E+02 -0.34137266601E+02  0.40659136825E+02  0.00000000000E+00 0.  1.
         11    1    3    3    0    0 -0.43593462588E+00  0.38638117656E+01  0.61532648814E+01  0.72788563195E+01  0.51100000000E-03 0. -1.
        -11    1    3    3    0    0  0.93294375210E+01  0.13382791171E+02  0.32490730090E+02  0.36356361837E+02  0.51100000000E-03 0.  1.
        -12    1    3    3    0    0 -0.32250613600E+01  0.41000878358E+01 -0.45067283708E+01  0.68936450188E+01  0.00000000000E+00 0.  1.
</event>
<event>
 7    1  0.5843820E-012  0.5052886E+02  0.7816164E-02  0.1300439E+00
        -11   -1    0    0    0    0  0.00000000000E+00  0.00000000000E+00  0.45593999997E+02  0.45594000000E+02  0.51100000000E-03 0. -1.
         11   -1    0    0    0    0 -0.00000000000E+00 -0.00000000000E+00 -0.45593999997E+02  0.45594000000E+02  0.51100000000E-03 0.  1.
    9900012    2    1    2    0    0  0.33120652945E+02  0.17391401570E+02 -0.15928824576E+02  0.50528856472E+02  0.29999989732E+02 0.  0.
         12    1    1    2    0    0 -0.33120652945E+02 -0.17391401570E+02  0.15928824576E+02  0.40659143528E+02  0.00000000000E+00 0. -1.
         11    1    3    3    0    0  0.11353545526E+02 -0.51716939319E+01  0.14350728653E+01  0.12558218366E+02  0.51100000000E-03 0. -1.
        -11    1    3    3    0    0  0.28848025575E+01  0.54383562565E+01 -0.94518131657E+01  0.11279830537E+02  0.51100000000E-03 0.  1.
        -12    1    3    3    0    0  0.18882304861E+02  0.17124739245E+02 -0.79120842757E+01  0.26690807569E+02  0.00000000000E+00 0.  1.
</event>
<event>
 7    1  0.5843820E-012  0.5052886E+02  0.7816164E-02  0.1300439E+00
        -11   -1    0    0    0    0  0.00000000000E+00  0.00000000000E+00  0.45593999997E+02  0.45594000000E+02  0.51100000000E-03 0. -1.
         11   -1    0    0    0    0 -0.00000000000E+00 -0.00000000000E+00 -0.45593999997E+02  0.45594000000E+02  0.51100000000E-03 0.  1.
    9900012    2    1    2    0    0 -0.30751291715E+01  0.15317516849E+02  0.37537754831E+02  0.50528858597E+02  0.29999996192E+02 0.  0.
        -12    1    1    2    0    0  0.30751291715E+01 -0.15317516849E+02 -0.37537754831E+02  0.40659141403E+02  0.00000000000E+00 0.  1.
         11    1    3    3    0    0  0.20628892504E+00 -0.67176816743E+00  0.73218393256E+01  0.73554849577E+01  0.51100000000E-03 0. -1.
        -11    1    3    3    0    0 -0.10192540760E+02 -0.22956550481E+01  0.59847568178E+01  0.12040566169E+02  0.51100000000E-03 0.  1.
         12    1    3    3    0    0  0.69111226635E+01  0.18284940065E+02  0.24231158688E+02  0.31132807470E+02  0.00000000000E+00 0. -1.
</event>
<event>
 7    1  0.5843820E-012  0.5052886E+02  0.7816164E-02  0.1300439E+00
        -11   -1    0    0    0    0  0.00000000000E+00  0.00000000000E+00  0.45593999997E+02  0.45594000000E+02  0.51100000000E-03 0. -1.
         11   -1    0    0    0    0 -0.00000000000E+00 -0.00000000000E+00 -0.45593999997E+02  0.45594000000E+02  0.51100000000E-03 0.  1.
    9900012    2    1    2    0    0  0.17573638948E+02  0.28628667035E+01 -0.36553205850E+02  0.50528860197E+02  0.30000001055E+02 0.  0.
         12    1    1    2    0    0 -0.17573638948E+02 -0.28628667035E+01  0.36553205850E+02  0.40659139803E+02  0.00000000000E+00 0. -1.
         11    1    3    3    0    0  0.90354339614E+01  0.51541759680E+01 -0.29272020343E+02  0.31065346803E+02  0.51100000000E-03 0. -1.
        -11    1    3    3    0    0  0.11929849426E+02 -0.50751980522E+01 -0.76616197044E+01  0.15059195176E+02  0.51100000000E-03 0.  1.
         12    1    3    3    0    0 -0.33916444393E+01  0.27838887876E+01  0.38043419755E+00  0.44043182178E+01  0.00000000000E+00 0. -1.
</event>
<event>
 7    1  0.5843820E-012  0.5052887E+02  0.7816164E-02  0.1300439E+00
        -11   -1    0    0    0    0  0.00000000000E+00  0.00000000000E+00  0.45593999997E+02  0.45594000000E+02  0.51100000000E-03 0. -1.
         11   -1    0    0    0    0 -0.00000000000E+00 -0.00000000000E+00 -0.45593999997E+02  0.45594000000E+02  0.51100000000E-03 0.  1.
    9900012    2    1    2    0    0  0.34643516646E+01  0.33060600705E+02  0.23412819788E+02  0.50528865948E+02  0.30000018535E+02 0.  0.
        -12    1    1    2    0    0 -0.34643516646E+01 -0.33060600705E+02 -0.23412819788E+02  0.40659134052E+02  0.00000000000E+00 0.  1.
         11    1    3    3    0    0 -0.60091258639E+01  0.13320971626E+02  0.92877634397E+01  0.17315323522E+02  0.51100000000E-03 0. -1.
        -11    1    3    3    0    0  0.76855719491E+01  0.20205724516E+02  0.18507098488E+02  0.28457898975E+02  0.51100000000E-03 0.  1.
        -12    1    3    3    0    0  0.17879055794E+01 -0.46609543623E+00 -0.43820421396E+01  0.47556434506E+01  0.00000000000E+00 0.  1.
</event>
<event>
 7    1  0.5843820E-012  0.5052887E+02  0.7816164E-02  0.1300439E+00
        -11   -1    0    0    0    0  0.00000000000E+00  0.00000000000E+00  0.45593999997E+02  0.45594000000E+02  0.51100000000E-03 0. -1.
         11   -1    0    0    0    0 -0.00000000000E+00 -0.00000000000E+00 -0.45593999997E+02  0.45594000000E+02  0.51100000000E-03 0.  1.
    9900012    2    1    2    0    0 -0.27253424079E+00 -0.10988026726E+02 -0.39145292519E+02  0.50528869012E+02  0.30000027849E+02 0.  0.
         12    1    1    2    0    0  0.27253424079E+00  0.10988026726E+02  0.39145292519E+02  0.40659130988E+02  0.00000000000E+00 0. -1.
         11    1    3    3    0    0  0.25757645031E+01 -0.10132309379E+02 -0.83576354814E+01  0.13384630261E+02  0.51100000000E-03 0. -1.
        -11    1    3    3    0    0 -0.50421804744E+01  0.15715211361E+01 -0.32853190821E+02  0.33274996769E+02  0.51100000000E-03 0.  1.
         12    1    3    3    0    0  0.21938817305E+01 -0.24272384832E+01  0.20655337830E+01  0.38692419814E+01  0.00000000000E+00 0. -1.
</event>
<event>
 7    1  0.5843820E-012  0.5052886E+02  0.7816164E-02  0.1300439E+00
        -11   -1    0    0    0    0  0.00000000000E+00  0.00000000000E+00  0.45593999997E+02  0.45594000000E+02  0.51100000000E-03 0. -1.
         11   -1    0    0    0    0 -0.00000000000E+00 -0.00000000000E+00 -0.45593999997E+02  0.45594000000E+02  0.51100000000E-03 0.  1.
    9900012    2    1    2    0    0 -0.14468068514E+02 -0.13658245254E+02 -0.35458327043E+02  0.50528860478E+02  0.30000001909E+02 0.  0.
         12    1    1    2    0    0  0.14468068514E+02  0.13658245254E+02  0.35458327043E+02  0.40659139522E+02  0.00000000000E+00 0. -1.
         11    1    3    3    0    0  0.48118100322E+01 -0.75955250730E+01 -0.75607750158E+01  0.11747801327E+02  0.51100000000E-03 0. -1.
        -11    1    3    3    0    0 -0.11460974247E+01 -0.81381046046E+01 -0.55031933742E+01  0.98907746632E+01  0.51100000000E-03 0.  1.
         12    1    3    3    0    0 -0.18133781122E+02  0.20753844234E+01 -0.22394358653E+02  0.28890284488E+02  0.00000000000E+00 0. -1.
</event>
<event>
 7    1  0.5843820E-012  0.5052886E+02  0.7816164E-02  0.1300439E+00
        -11   -1    0    0    0    0  0.00000000000E+00  0.00000000000E+00  0.45593999997E+02  0.45594000000E+02  0.51100000000E-03 0. -1.
         11   -1    0    0    0    0 -0.00000000000E+00 -0.00000000000E+00 -0.45593999997E+02  0.45594000000E+02  0.51100000000E-03 0.  1.
    9900012    2    1    2    0    0 -0.91808926193E+01  0.32786944674E+02  0.22223698048E+02  0.50528864676E+02  0.30000014669E+02 0.  0.
        -12    1    1    2    0    0  0.91808926193E+01 -0.32786944674E+02 -0.22223698048E+02  0.40659135324E+02  0.00000000000E+00 0.  1.
         11    1    3    3    0    0 -0.12391024530E+02  0.27045770485E+02  0.96690703858E+01  0.31281018405E+02  0.51100000000E-03 0. -1.
        -11    1    3    3    0    0  0.51039062125E+01  0.70458848795E+01  0.26722090129E+01  0.91013764690E+01  0.51100000000E-03 0.  1.
        -12    1    3    3    0    0 -0.18937743015E+01 -0.13047106904E+01  0.98824186493E+01  0.10146469802E+02  0.00000000000E+00 0.  1.
</event>
<event>
 7    1  0.5843820E-012  0.5052886E+02  0.7816164E-02  0.1300439E+00
        -11   -1    0    0    0    0  0.00000000000E+00  0.00000000000E+00  0.45593999997E+02  0.45594000000E+02  0.51100000000E-03 0. -1.
         11   -1    0    0    0    0 -0.00000000000E+00 -0.00000000000E+00 -0.45593999997E+02  0.45594000000E+02  0.51100000000E-03 0.  1.
    9900012    2    1    2    0    0  0.12041271234E+01 -0.44008273904E+01  0.40402329825E+02  0.50528862539E+02  0.30000008172E+02 0.  0.
        -12    1    1    2    0    0 -0.12041271234E+01  0.44008273904E+01 -0.40402329825E+02  0.40659137461E+02  0.00000000000E+00 0.  1.
         11    1    3    3    0    0 -0.76822004706E+01 -0.14788407500E+00  0.36901384165E+01  0.85238017084E+01  0.51100000000E-03 0. -1.
        -11    1    3    3    0    0  0.11422345105E+01 -0.78491414552E+01  0.30316536395E+02  0.31336976570E+02  0.51100000000E-03 0.  1.
        -12    1    3    3    0    0  0.77440930835E+01  0.35961981398E+01  0.63956550127E+01  0.10668084260E+02  0.00000000000E+00 0.  1.
</event>
<event>
 7    1  0.5843820E-012  0.5052885E+02  0.7816164E-02  0.1300439E+00
        -11   -1    0    0    0    0  0.00000000000E+00  0.00000000000E+00  0.45593999997E+02  0.45594000000E+02  0.51100000000E-03 0. -1.
         11   -1    0    0    0    0 -0.00000000000E+00 -0.00000000000E+00 -0.45593999997E+02  0.45594000000E+02  0.51100000000E-03 0.  1.
    9900012    2    1    2    0    0  0.26112481914E+02 -0.21709732555E+02  0.22360500705E+02  0.50528853537E+02  0.29999980812E+02 0.  0.
        -12    1    1    2    0    0 -0.26112481914E+02  0.21709732555E+02 -0.22360500705E+02  0.40659146463E+02  0.00000000000E+00 0.  1.
         11    1    3    3    0    0  0.13867336428E+02 -0.15817619889E+02  0.49987676743E+01  0.21621466118E+02  0.51100000000E-03 0.  1.
        -11    1    3    3    0    0  0.33517912122E+01 -0.10806645271E+02  0.37466171684E+01  0.11918692328E+02  0.51100000000E-03 0. -1.
        -12    1    3    3    0    0  0.88933542731E+01  0.49145326051E+01  0.13615115862E+02  0.16988695091E+02  0.00000000000E+00 0.  1.
</event>
<event>
 7    1  0.8448731E-012  0.5052888E+02  0.7816164E-02  0.1300439E+00
        -11   -1    0    0    0    0  0.00000000000E+00  0.00000000000E+00  0.45593999997E+02  0.45594000000E+02  0.51100000000E-03 0. -1.
         11   -1    0    0    0    0 -0.00000000000E+00 -0.00000000000E+00 -0.45593999997E+02  0.45594000000E+02  0.51100000000E-03 0.  1.
    9900012    2    1    2    0    0 -0.47076866136E+01  0.84675685128E+01 -0.39488002582E+02  0.50528875837E+02  0.30000048594E+02 0.  0.
         12    1    1    2    0    0  0.47076866136E+01 -0.84675685128E+01  0.39488002582E+02  0.40659124163E+02  0.00000000000E+00 0. -1.
         11    1    3    3    0    0  0.44057731591E+01 -0.15196371187E+00 -0.47971780866E+01  0.65151245540E+01  0.51100000000E-03 0. -1.
        -11    1    3    3    0    0 -0.77165167937E-01 -0.42193937090E+01  0.15678474866E+01  0.45019311119E+01  0.51100000000E-03 0.  1.
        -12    1    3    3    0    0 -0.90362946047E+01  0.12838925934E+02 -0.36258671982E+02  0.39511820171E+02  0.00000000000E+00 0.  1.
</event>
<event>
 7    1  0.5843820E-012  0.5052886E+02  0.7816164E-02  0.1300439E+00
        -11   -1    0    0    0    0  0.00000000000E+00  0.00000000000E+00  0.45593999997E+02  0.45594000000E+02  0.51100000000E-03 0. -1.
         11   -1    0    0    0    0 -0.00000000000E+00 -0.00000000000E+00 -0.45593999997E+02  0.45594000000E+02  0.51100000000E-03 0.  1.
    9900012    2    1    2    0    0 -0.18028926738E+02  0.82947557703E+01 -0.35486905992E+02  0.50528859951E+02  0.30000000307E+02 0.  0.
         12    1    1    2    0    0  0.18028926738E+02 -0.82947557703E+01  0.35486905992E+02  0.40659140049E+02  0.00000000000E+00 0. -1.
         11    1    3    3    0    0 -0.96863649454E+01 -0.17219003474E+01 -0.69484621396E+01  0.12044572762E+02  0.51100000000E-03 0. -1.
        -11    1    3    3    0    0 -0.52637180833E+01  0.14048285481E+02 -0.73664217515E+01  0.16713025540E+02  0.51100000000E-03 0.  1.
         12    1    3    3    0    0 -0.30788437094E+01 -0.40316293633E+01 -0.21172022101E+02  0.21771261648E+02  0.00000000000E+00 0. -1.
</event>
<event>
 7    1  0.5843820E-012  0.5052886E+02  0.7816164E-02  0.1300439E+00
        -11   -1    0    0    0    0  0.00000000000E+00  0.00000000000E+00  0.45593999997E+02  0.45594000000E+02  0.51100000000E-03 0.  1.
         11   -1    0    0    0    0 -0.00000000000E+00 -0.00000000000E+00 -0.45593999997E+02  0.45594000000E+02  0.51100000000E-03 0. -1.
    9900012    2    1    2    0    0  0.35947795324E+02 -0.35672997561E+01 -0.18660019099E+02  0.50528856760E+02  0.29999990608E+02 0.  0.
        -12    1    1    2    0    0 -0.35947795324E+02  0.35672997561E+01  0.18660019099E+02  0.40659143240E+02  0.00000000000E+00 0.  1.
         11    1    3    3    0    0  0.19609950353E+02 -0.32365026873E+01 -0.96650049927E+01  0.22100620450E+02  0.51100000000E-03 0. -1.
        -11    1    3    3    0    0  0.53314727735E+01  0.54385624536E+01 -0.13258653356E+02  0.15290338537E+02  0.51100000000E-03 0.  1.
        -12    1    3    3    0    0  0.11006372198E+02 -0.57693595224E+01  0.42636392498E+01  0.13137897773E+02  0.00000000000E+00 0.  1.
</event>
<event>
 7    1  0.6757963E-012  0.5052887E+02  0.7816164E-02  0.1300439E+00
        -11   -1    0    0    0    0  0.00000000000E+00  0.00000000000E+00  0.45593999997E+02  0.45594000000E+02  0.51100000000E-03 0. -1.
         11   -1    0    0    0    0 -0.00000000000E+00 -0.00000000000E+00 -0.45593999997E+02  0.45594000000E+02  0.51100000000E-03 0.  1.
    9900012    2    1    2    0    0  0.78732570001E+01 -0.57676815593E+01 -0.39470376198E+02  0.50528869124E+02  0.30000028190E+02 0.  0.
         12    1    1    2    0    0 -0.78732570001E+01  0.57676815593E+01  0.39470376198E+02  0.40659130876E+02  0.00000000000E+00 0. -1.
         11    1    3    3    0    0  0.14088089981E+02 -0.44245558649E+01 -0.12219190421E+02  0.19166626952E+02  0.51100000000E-03 0. -1.
        -11    1    3    3    0    0 -0.37640383188E+01  0.54123725683E+01 -0.59465890613E+01  0.88782702712E+01  0.51100000000E-03 0.  1.
        -12    1    3    3    0    0 -0.24507946618E+01 -0.67554982627E+01 -0.21304596715E+02  0.22483971901E+02  0.00000000000E+00 0.  1.
</event>
<event>
 7    1  0.5843820E-012  0.5052886E+02  0.7816164E-02  0.1300439E+00
        -11   -1    0    0    0    0  0.00000000000E+00  0.00000000000E+00  0.45593999997E+02  0.45594000000E+02  0.51100000000E-03 0. -1.
         11   -1    0    0    0    0 -0.00000000000E+00 -0.00000000000E+00 -0.45593999997E+02  0.45594000000E+02  0.51100000000E-03 0.  1.
    9900012    2    1    2    0    0 -0.28453297559E+02 -0.61633233785E+01 -0.28382898990E+02  0.50528860165E+02  0.30000000957E+02 0.  0.
         12    1    1    2    0    0  0.28453297559E+02  0.61633233785E+01  0.28382898990E+02  0.40659139835E+02  0.00000000000E+00 0. -1.
         11    1    3    3    0    0  0.80063633746E+00 -0.19687181071E+00 -0.60649035589E+01  0.61206888905E+01  0.51100000000E-03 0. -1.
        -11    1    3    3    0    0  0.63432074084E+00 -0.83776190336E+01 -0.45712039449E+01  0.95646625262E+01  0.51100000000E-03 0.  1.
         12    1    3    3    0    0 -0.29888254637E+02  0.24111674658E+01 -0.17746791486E+02  0.34843508748E+02  0.00000000000E+00 0. -1.
</event>
<event>
 7    1  0.5843820E-012  0.5052878E+02  0.7816164E-02  0.1300439E+00
        -11   -1    0    0    0    0  0.00000000000E+00  0.00000000000E+00  0.45593999997E+02  0.45594000000E+02  0.51100000000E-03 0. -1.
         11   -1    0    0    0    0 -0.00000000000E+00 -0.00000000000E+00 -0.45593999997E+02  0.45594000000E+02  0.51100000000E-03 0.  1.
    9900012    2    1    2    0    0 -0.19002030772E+02 -0.62017616808E+01  0.35406685880E+02  0.50528776859E+02  0.29999747740E+02 0.  0.
        -12    1    1    2    0    0  0.19002030772E+02  0.62017616808E+01 -0.35406685880E+02  0.40659223141E+02  0.00000000000E+00 0.  1.
         11    1    3    3    0    0 -0.10302681460E+02 -0.10157056072E+02  0.17317953233E+02  0.22565959713E+02  0.51100000000E-03 0. -1.
        -11    1    3    3    0    0 -0.87283197538E+01  0.24141843221E+00 -0.74781111508E+00  0.87636219857E+01  0.51100000000E-03 0.  1.
        -12    1    3    3    0    0  0.28970441880E-01  0.37138759589E+01  0.18836543762E+02  0.19199195161E+02  0.00000000000E+00 0.  1.
</event>
<event>
 7    1  0.5843820E-012  0.5052887E+02  0.7816164E-02  0.1300439E+00
        -11   -1    0    0    0    0  0.00000000000E+00  0.00000000000E+00  0.45593999997E+02  0.45594000000E+02  0.51100000000E-03 0. -1.
         11   -1    0    0    0    0 -0.00000000000E+00 -0.00000000000E+00 -0.45593999997E+02  0.45594000000E+02  0.51100000000E-03 0.  1.
    9900012    2    1    2    0    0 -0.14266832948E+02  0.29938952363E+02 -0.23521939597E+02  0.50528867774E+02  0.30000024086E+02 0.  0.
         12    1    1    2    0    0  0.14266832948E+02 -0.29938952363E+02  0.23521939597E+02  0.40659132226E+02  0.00000000000E+00 0. -1.
         11    1    3    3    0    0 -0.34192823292E+01  0.19097795818E+00  0.24212042190E+01  0.41940665658E+01  0.51100000000E-03 0. -1.
        -11    1    3    3    0    0 -0.10916291360E+02  0.27265080751E+01 -0.93129266208E+01  0.14605816165E+02  0.51100000000E-03 0.  1.
        -12    1    3    3    0    0  0.68740741195E-01  0.27021466330E+02 -0.16630217195E+02  0.31728985043E+02  0.00000000000E+00 0.  1.
</event>
<event>
 7    1  0.5843820E-012  0.5052887E+02  0.7816164E-02  0.1300439E+00
        -11   -1    0    0    0    0  0.00000000000E+00  0.00000000000E+00  0.45593999997E+02  0.45594000000E+02  0.51100000000E-03 0. -1.
         11   -1    0    0    0    0 -0.00000000000E+00 -0.00000000000E+00 -0.45593999997E+02  0.45594000000E+02  0.51100000000E-03 0.  1.
    9900012    2    1    2    0    0 -0.21302642129E+02  0.12234519354E+01  0.34610196723E+02  0.50528866788E+02  0.30000021090E+02 0.  0.
        -12    1    1    2    0    0  0.21302642129E+02 -0.12234519354E+01 -0.34610196723E+02  0.40659133212E+02  0.00000000000E+00 0.  1.
         11    1    3    3    0    0  0.29468545814E+00  0.40364581993E+00 -0.12609039188E+01  0.13563363966E+01  0.51100000000E-03 0.  1.
        -11    1    3    3    0    0  0.28029245523E+01 -0.30418664000E+01  0.18539272478E+02  0.18995103620E+02  0.51100000000E-03 0. -1.
         12    1    3    3    0    0 -0.24400252140E+02  0.38616725155E+01  0.17331828163E+02  0.30177426772E+02  0.00000000000E+00 0. -1.
</event>
<event>
 7    1  0.5843820E-012  0.5052885E+02  0.7816164E-02  0.1300439E+00
        -11   -1    0    0    0    0  0.00000000000E+00  0.00000000000E+00  0.45593999997E+02  0.45594000000E+02  0.51100000000E-03 0. -1.
         11   -1    0    0    0    0 -0.00000000000E+00 -0.00000000000E+00 -0.45593999997E+02  0.45594000000E+02  0.51100000000E-03 0.  1.
    9900012    2    1    2    0    0  0.24384698471E+02  0.15207789759E+02  0.28762410411E+02  0.50528847998E+02  0.29999963976E+02 0.  0.
        -12    1    1    2    0    0 -0.24384698471E+02 -0.15207789759E+02 -0.28762410411E+02  0.40659152002E+02  0.00000000000E+00 0.  1.
         11    1    3    3    0    0  0.98043518396E+01  0.90423883076E+01  0.40656382540E+01  0.13943439890E+02  0.51100000000E-03 0. -1.
        -11    1    3    3    0    0  0.57421488588E+01  0.12288216692E+02  0.21405571209E+02  0.25341093544E+02  0.51100000000E-03 0.  1.
        -12    1    3    3    0    0  0.88381977724E+01 -0.61228152404E+01  0.32912009477E+01  0.11244314564E+02  0.00000000000E+00 0.  1.
</event>
<event>
 7    1  0.5843820E-012  0.5052885E+02  0.7816164E-02  0.1300439E+00
        -11   -1    0    0    0    0  0.00000000000E+00  0.00000000000E+00  0.45593999997E+02  0.45594000000E+02  0.51100000000E-03 0. -1.
         11   -1    0    0    0    0 -0.00000000000E+00 -0.00000000000E+00 -0.45593999997E+02  0.45594000000E+02  0.51100000000E-03 0.  1.
    9900012    2    1    2    0    0  0.11827862491E+02 -0.18205532928E+02  0.34377707616E+02  0.50528849231E+02  0.29999967724E+02 0.  0.
        -12    1    1    2    0    0 -0.11827862491E+02  0.18205532928E+02 -0.34377707616E+02  0.40659150769E+02  0.00000000000E+00 0.  1.
         11    1    3    3    0    0  0.10632289395E+02 -0.18871676457E+02  0.35755080539E+02  0.41804443959E+02  0.51100000000E-03 0. -1.
        -11    1    3    3    0    0  0.91711272959E+00 -0.16963710017E+01  0.31019911979E+01  0.36525497926E+01  0.51100000000E-03 0.  1.
        -12    1    3    3    0    0  0.27846036575E+00  0.23625145314E+01 -0.44793641206E+01  0.50718554802E+01  0.00000000000E+00 0.  1.
</event>
<event>
 7    1  0.5843820E-012  0.5052887E+02  0.7816164E-02  0.1300439E+00
        -11   -1    0    0    0    0  0.00000000000E+00  0.00000000000E+00  0.45593999997E+02  0.45594000000E+02  0.51100000000E-03 0.  1.
         11   -1    0    0    0    0 -0.00000000000E+00 -0.00000000000E+00 -0.45593999997E+02  0.45594000000E+02  0.51100000000E-03 0. -1.
    9900012    2    1    2    0    0 -0.25879026943E+02 -0.18356713044E+02 -0.25425816364E+02  0.50528867114E+02  0.30000022078E+02 0.  0.
         12    1    1    2    0    0  0.25879026943E+02  0.18356713044E+02  0.25425816364E+02  0.40659132886E+02  0.00000000000E+00 0. -1.
         11    1    3    3    0    0 -0.21954043786E+02 -0.98301369803E+01 -0.15382562766E+02  0.28552318104E+02  0.51100000000E-03 0. -1.
        -11    1    3    3    0    0 -0.78068965492E+01 -0.10070252750E+02 -0.11872612090E+02  0.17415985251E+02  0.51100000000E-03 0.  1.
        -12    1    3    3    0    0  0.38819133922E+01  0.15436766869E+01  0.18293584917E+01  0.45605637578E+01  0.00000000000E+00 0.  1.
</event>
<event>
 7    1  0.5843820E-012  0.5052886E+02  0.7816164E-02  0.1300439E+00
        -11   -1    0    0    0    0  0.00000000000E+00  0.00000000000E+00  0.45593999997E+02  0.45594000000E+02  0.51100000000E-03 0. -1.
         11   -1    0    0    0    0 -0.00000000000E+00 -0.00000000000E+00 -0.45593999997E+02  0.45594000000E+02  0.51100000000E-03 0.  1.
    9900012    2    1    2    0    0 -0.19693579592E+01  0.33666803459E+02  0.22711966215E+02  0.50528862832E+02  0.30000009064E+02 0.  0.
        -12    1    1    2    0    0  0.19693579592E+01 -0.33666803459E+02 -0.22711966215E+02  0.40659137168E+02  0.00000000000E+00 0.  1.
         11    1    3    3    0    0  0.41190026173E+01  0.70271735200E+01  0.80754057200E+01  0.11469940194E+02  0.51100000000E-03 0. -1.
        -11    1    3    3    0    0  0.83598183353E+01  0.37987835153E+01  0.34765317134E+01  0.98185330784E+01  0.51100000000E-03 0.  1.
         12    1    3    3    0    0 -0.14448178912E+02  0.22840846423E+02  0.11160028782E+02  0.29240389560E+02  0.00000000000E+00 0. -1.
</event>
<event>
 7    1  0.5843820E-012  0.5052887E+02  0.7816164E-02  0.1300439E+00
        -11   -1    0    0    0    0  0.00000000000E+00  0.00000000000E+00  0.45593999997E+02  0.45594000000E+02  0.51100000000E-03 0. -1.
         11   -1    0    0    0    0 -0.00000000000E+00 -0.00000000000E+00 -0.45593999997E+02  0.45594000000E+02  0.51100000000E-03 0.  1.
    9900012    2    1    2    0    0 -0.26942594459E+02 -0.18873660520E+02  0.23896576416E+02  0.50528870373E+02  0.30000031987E+02 0.  0.
        -12    1    1    2    0    0  0.26942594459E+02  0.18873660520E+02 -0.23896576416E+02  0.40659129627E+02  0.00000000000E+00 0.  1.
         11    1    3    3    0    0 -0.18943050856E+02 -0.19725620050E+01  0.48539760073E+01  0.19654293677E+02  0.51100000000E-03 0. -1.
        -11    1    3    3    0    0 -0.16456129536E+01  0.29812975056E+01  0.31648577713E+01  0.46489247987E+01  0.51100000000E-03 0.  1.
         12    1    3    3    0    0 -0.63539306492E+01 -0.19882396020E+02  0.15877742637E+02  0.26225651898E+02  0.00000000000E+00 0. -1.
</event>
<event>
 7    1  0.5843820E-012  0.5052887E+02  0.7816164E-02  0.1300439E+00
        -11   -1    0    0    0    0  0.00000000000E+00  0.00000000000E+00  0.45593999997E+02  0.45594000000E+02  0.51100000000E-03 0. -1.
         11   -1    0    0    0    0 -0.00000000000E+00 -0.00000000000E+00 -0.45593999997E+02  0.45594000000E+02  0.51100000000E-03 0.  1.
    9900012    2    1    2    0    0 -0.55134132210E+01  0.38347965909E+02  0.12336973895E+02  0.50528866468E+02  0.30000020117E+02 0.  0.
        -12    1    1    2    0    0  0.55134132210E+01 -0.38347965909E+02 -0.12336973895E+02  0.40659133532E+02  0.00000000000E+00 0.  1.
         11    1    3    3    0    0  0.16517140957E+01 -0.10794853402E+01  0.18163821333E+00  0.19815248561E+01  0.51100000000E-03 0. -1.
        -11    1    3    3    0    0 -0.15620457091E+02  0.19297229160E+02  0.35531607876E+01  0.25080005678E+02  0.51100000000E-03 0.  1.
         12    1    3    3    0    0  0.84553297740E+01  0.20130222088E+02  0.86021748941E+01  0.23467335934E+02  0.00000000000E+00 0. -1.
</event>
<event>
 7    1  0.5843820E-012  0.5052886E+02  0.7816164E-02  0.1300439E+00
        -11   -1    0    0    0    0  0.00000000000E+00  0.00000000000E+00  0.45593999997E+02  0.45594000000E+02  0.51100000000E-03 0. -1.
         11   -1    0    0    0    0 -0.00000000000E+00 -0.00000000000E+00 -0.45593999997E+02  0.45594000000E+02  0.51100000000E-03 0.  1.
    9900012    2    1    2    0    0 -0.24404343003E+02  0.44048632303E+01 -0.32220968831E+02  0.50528860685E+02  0.30000002537E+02 0.  0.
         12    1    1    2    0    0  0.24404343003E+02 -0.44048632303E+01  0.32220968831E+02  0.40659139315E+02  0.00000000000E+00 0. -1.
         11    1    3    3    0    0 -0.11181913051E+02  0.78767060028E+01 -0.21564149777E+02  0.25536057503E+02  0.51100000000E-03 0. -1.
        -11    1    3    3    0    0 -0.12840543213E+02 -0.11404056074E+01 -0.15164632239E+02  0.19903420463E+02  0.51100000000E-03 0.  1.
         12    1    3    3    0    0 -0.38188673927E+00 -0.23314371651E+01  0.45078131853E+01  0.50893827180E+01  0.00000000000E+00 0. -1.
</event>
<event>
 7    1  0.5843820E-012  0.5052885E+02  0.7816164E-02  0.1300439E+00
        -11   -1    0    0    0    0  0.00000000000E+00  0.00000000000E+00  0.45593999997E+02  0.45594000000E+02  0.51100000000E-03 0. -1.
         11   -1    0    0    0    0 -0.00000000000E+00 -0.00000000000E+00 -0.45593999997E+02  0.45594000000E+02  0.51100000000E-03 0.  1.
    9900012    2    1    2    0    0 -0.19158371300E+02  0.14262221993E+02 -0.32904595318E+02  0.50528848999E+02  0.29999967019E+02 0.  0.
         12    1    1    2    0    0  0.19158371300E+02 -0.14262221993E+02  0.32904595318E+02  0.40659151001E+02  0.00000000000E+00 0. -1.
         11    1    3    3    0    0 -0.52085237191E-01  0.12584889208E+02 -0.87225222752E+00  0.12615188205E+02  0.51100000000E-03 0.  1.
        -11    1    3    3    0    0 -0.21943571234E+01 -0.20045859852E+01 -0.48923131084E+01  0.57243598742E+01  0.51100000000E-03 0. -1.
        -12    1    3    3    0    0 -0.16911928939E+02  0.36819187702E+01 -0.27140029982E+02  0.32189300920E+02  0.00000000000E+00 0.  1.
</event>
<event>
 7    1  0.5843820E-012  0.5052885E+02  0.7816164E-02  0.1300439E+00
        -11   -1    0    0    0    0  0.00000000000E+00  0.00000000000E+00  0.45593999997E+02  0.45594000000E+02  0.51100000000E-03 0. -1.
         11   -1    0    0    0    0 -0.00000000000E+00 -0.00000000000E+00 -0.45593999997E+02  0.45594000000E+02  0.51100000000E-03 0.  1.
    9900012    2    1    2    0    0 -0.32132746690E+02  0.17058279575E+02 -0.18156756719E+02  0.50528854332E+02  0.29999983228E+02 0.  0.
        -12    1    1    2    0    0  0.32132746690E+02 -0.17058279575E+02  0.18156756719E+02  0.40659145668E+02  0.00000000000E+00 0.  1.
         11    1    3    3    0    0 -0.27913246472E+02  0.23008301495E+02 -0.97837424435E+01  0.37473362309E+02  0.51100000000E-03 0. -1.
        -11    1    3    3    0    0 -0.24437195934E+01 -0.20674572653E+01 -0.81774552034E+01  0.87816239306E+01  0.51100000000E-03 0.  1.
        -12    1    3    3    0    0 -0.17757806239E+01 -0.38825646542E+01 -0.19555907178E+00  0.42738680921E+01  0.00000000000E+00 0.  1.
</event>
<event>
 7    1  0.5843820E-012  0.5052886E+02  0.7816164E-02  0.1300439E+00
        -11   -1    0    0    0    0  0.00000000000E+00  0.00000000000E+00  0.45593999997E+02  0.45594000000E+02  0.51100000000E-03 0. -1.
         11   -1    0    0    0    0 -0.00000000000E+00 -0.00000000000E+00 -0.45593999997E+02  0.45594000000E+02  0.51100000000E-03 0.  1.
    9900012    2    1    2    0    0  0.11288756742E+02  0.15556929832E-01 -0.39060582792E+02  0.50528863280E+02  0.30000010426E+02 0.  0.
         12    1    1    2    0    0 -0.11288756742E+02 -0.15556929832E-01  0.39060582792E+02  0.40659136720E+02  0.00000000000E+00 0. -1.
         11    1    3    3    0    0 -0.66467308552E+01  0.23469688408E+01 -0.15336932458E+02  0.16879241431E+02  0.51100000000E-03 0. -1.
        -11    1    3    3    0    0 -0.24648183601E+01 -0.23564893263E+01 -0.42264740664E+01  0.54306035381E+01  0.51100000000E-03 0.  1.
         12    1    3    3    0    0  0.20400305958E+02  0.25077415398E-01 -0.19497176267E+02  0.28219018311E+02  0.00000000000E+00 0. -1.
</event>
<event>
 7    1  0.5843820E-012  0.5052885E+02  0.7816164E-02  0.1300439E+00
        -11   -1    0    0    0    0  0.00000000000E+00  0.00000000000E+00  0.45593999997E+02  0.45594000000E+02  0.51100000000E-03 0.  1.
         11   -1    0    0    0    0 -0.00000000000E+00 -0.00000000000E+00 -0.45593999997E+02  0.45594000000E+02  0.51100000000E-03 0. -1.
    9900012    2    1    2    0    0  0.13687775871E+02 -0.36629483823E+02  0.11139649984E+02  0.50528854717E+02  0.29999984397E+02 0.  0.
         12    1    1    2    0    0 -0.13687775871E+02  0.36629483823E+02 -0.11139649984E+02  0.40659145283E+02  0.00000000000E+00 0. -1.
         11    1    3    3    0    0 -0.19496251726E+01 -0.42342028594E+01 -0.19592018936E+00  0.46656079079E+01  0.51100000000E-03 0. -1.
        -11    1    3    3    0    0  0.22463333668E+01 -0.21275537264E+01  0.12368359444E+02  0.12749463285E+02  0.51100000000E-03 0.  1.
        -12    1    3    3    0    0  0.13391067677E+02 -0.30267727237E+02 -0.10327892705E+01  0.33113783524E+02  0.00000000000E+00 0.  1.
</event>
<event>
 7    1  0.5843820E-012  0.5052889E+02  0.7816164E-02  0.1300439E+00
        -11   -1    0    0    0    0  0.00000000000E+00  0.00000000000E+00  0.45593999997E+02  0.45594000000E+02  0.51100000000E-03 0. -1.
         11   -1    0    0    0    0 -0.00000000000E+00 -0.00000000000E+00 -0.45593999997E+02  0.45594000000E+02  0.51100000000E-03 0.  1.
    9900012    2    1    2    0    0  0.35973410521E+02 -0.40511917405E+01 -0.18511208066E+02  0.50528889789E+02  0.30000091003E+02 0.  0.
         12    1    1    2    0    0 -0.35973410521E+02  0.40511917405E+01  0.18511208066E+02  0.40659110211E+02  0.00000000000E+00 0. -1.
         11    1    3    3    0    0  0.77066127103E+01  0.29092068358E+01 -0.95054928978E+01  0.12578146102E+02  0.51100000000E-03 0. -1.
        -11    1    3    3    0    0  0.64730572597E+00  0.84676281262E+00 -0.91868414033E+01  0.92484629638E+01  0.51100000000E-03 0.  1.
         12    1    3    3    0    0  0.27619492085E+02 -0.78071613890E+01  0.18112623474E+00  0.28702280723E+02  0.00000000000E+00 0. -1.
</event>
<event>
 7    1  0.5843820E-012  0.5052886E+02  0.7816164E-02  0.1300439E+00
        -11   -1    0    0    0    0  0.00000000000E+00  0.00000000000E+00  0.45593999997E+02  0.45594000000E+02  0.51100000000E-03 0. -1.
         11   -1    0    0    0    0 -0.00000000000E+00 -0.00000000000E+00 -0.45593999997E+02  0.45594000000E+02  0.51100000000E-03 0.  1.
    9900012    2    1    2    0    0  0.32316477148E+01  0.21083531567E+02  0.34615129635E+02  0.50528855273E+02  0.29999986087E+02 0.  0.
        -12    1    1    2    0    0 -0.32316477148E+01 -0.21083531567E+02 -0.34615129635E+02  0.40659144727E+02  0.00000000000E+00 0.  1.
         11    1    3    3    0    0 -0.18252990492E+01  0.65520069069E+01  0.10453524448E+02  0.12471434752E+02  0.51100000000E-03 0. -1.
        -11    1    3    3    0    0 -0.11350413692E+01  0.19142464885E+02  0.93045211277E+01  0.21314229859E+02  0.51100000000E-03 0.  1.
        -12    1    3    3    0    0  0.61919881332E+01 -0.46109402252E+01  0.14857084060E+02  0.16743190663E+02  0.00000000000E+00 0.  1.
</event>
<event>
 7    1  0.5843820E-012  0.5052886E+02  0.7816164E-02  0.1300439E+00
        -11   -1    0    0    0    0  0.00000000000E+00  0.00000000000E+00  0.45593999997E+02  0.45594000000E+02  0.51100000000E-03 0. -1.
         11   -1    0    0    0    0 -0.00000000000E+00 -0.00000000000E+00 -0.45593999997E+02  0.45594000000E+02  0.51100000000E-03 0.  1.
    9900012    2    1    2    0    0  0.31684442700E+02 -0.23690312597E+02 -0.93824629505E+01  0.50528862882E+02  0.30000009217E+02 0.  0.
         12    1    1    2    0    0 -0.31684442700E+02  0.23690312597E+02  0.93824629505E+01  0.40659137118E+02  0.00000000000E+00 0. -1.
         11    1    3    3    0    0  0.22972690503E+01  0.63593284036E+00  0.57253012043E+01  0.62016876581E+01  0.51100000000E-03 0. -1.
        -11    1    3    3    0    0 -0.72182115730E+00 -0.64580944369E+01 -0.97688022232E+00  0.65713244304E+01  0.51100000000E-03 0.  1.
         12    1    3    3    0    0  0.30108994807E+02 -0.17868151000E+02 -0.14130883933E+02  0.37755850794E+02  0.00000000000E+00 0. -1.
</event>
<event>
 7    1  0.5843820E-012  0.5052885E+02  0.7816164E-02  0.1300439E+00
        -11   -1    0    0    0    0  0.00000000000E+00  0.00000000000E+00  0.45593999997E+02  0.45594000000E+02  0.51100000000E-03 0.  1.
         11   -1    0    0    0    0 -0.00000000000E+00 -0.00000000000E+00 -0.45593999997E+02  0.45594000000E+02  0.51100000000E-03 0. -1.
    9900012    2    1    2    0    0  0.26404168771E+02  0.24615316358E+02  0.18710220049E+02  0.50528852663E+02  0.29999978154E+02 0.  0.
        -12    1    1    2    0    0 -0.26404168771E+02 -0.24615316358E+02 -0.18710220049E+02  0.40659147337E+02  0.00000000000E+00 0.  1.
         11    1    3    3    0    0  0.22360704371E+02  0.85838260916E+01  0.16620597254E+02  0.29153514774E+02  0.51100000000E-03 0. -1.
        -11    1    3    3    0    0  0.73156092018E+01  0.74876584606E+01 -0.30214220439E+01  0.10895510940E+02  0.51100000000E-03 0.  1.
        -12    1    3    3    0    0 -0.32721448019E+01  0.85438318059E+01  0.51110448388E+01  0.10479826949E+02  0.00000000000E+00 0.  1.
</event>
<event>
 7    1  0.5843820E-012  0.5052886E+02  0.7816164E-02  0.1300439E+00
        -11   -1    0    0    0    0  0.00000000000E+00  0.00000000000E+00  0.45593999997E+02  0.45594000000E+02  0.51100000000E-03 0. -1.
         11   -1    0    0    0    0 -0.00000000000E+00 -0.00000000000E+00 -0.45593999997E+02  0.45594000000E+02  0.51100000000E-03 0.  1.
    9900012    2    1    2    0    0  0.29992238218E+02  0.87658280365E+00  0.27438349601E+02  0.50528858598E+02  0.29999996195E+02 0.  0.
        -12    1    1    2    0    0 -0.29992238218E+02 -0.87658280365E+00 -0.27438349601E+02  0.40659141402E+02  0.00000000000E+00 0.  1.
         11    1    3    3    0    0  0.44591073872E+00  0.41886208704E+01 -0.19191492651E+01  0.46288784112E+01  0.51100000000E-03 0.  1.
        -11    1    3    3    0    0  0.39709175900E+01  0.29354533543E+01 -0.16654911866E+01  0.52114234193E+01  0.51100000000E-03 0. -1.
         12    1    3    3    0    0  0.25575409889E+02 -0.62474914210E+01  0.31022990053E+02  0.40688556768E+02  0.00000000000E+00 0. -1.
</event>
<event>
 7    1  0.5843820E-012  0.5052886E+02  0.7816164E-02  0.1300439E+00
        -11   -1    0    0    0    0  0.00000000000E+00  0.00000000000E+00  0.45593999997E+02  0.45594000000E+02  0.51100000000E-03 0. -1.
         11   -1    0    0    0    0 -0.00000000000E+00 -0.00000000000E+00 -0.45593999997E+02  0.45594000000E+02  0.51100000000E-03 0.  1.
    9900012    2    1    2    0    0 -0.63394660689E+01  0.31385837748E+01  0.40039058316E+02  0.50528859220E+02  0.29999998085E+02 0.  0.
        -12    1    1    2    0    0  0.63394660689E+01 -0.31385837748E+01 -0.40039058316E+02  0.40659140780E+02  0.00000000000E+00 0.  1.
         11    1    3    3    0    0 -0.87980688285E+01  0.60060830899E+01  0.57713665318E+00  0.10668277095E+02  0.51100000000E-03 0.  1.
        -11    1    3    3    0    0  0.24433726388E+01  0.16469129195E+00  0.22166678885E+02  0.22301543582E+02  0.51100000000E-03 0. -1.
        -12    1    3    3    0    0  0.15230120793E-01 -0.30321906070E+01  0.17295242777E+02  0.17559038543E+02  0.00000000000E+00 0.  1.
</event>
<event>
 7    1  0.5843820E-012  0.5052886E+02  0.7816164E-02  0.1300439E+00
        -11   -1    0    0    0    0  0.00000000000E+00  0.00000000000E+00  0.45593999997E+02  0.45594000000E+02  0.51100000000E-03 0.  1.
         11   -1    0    0    0    0 -0.00000000000E+00 -0.00000000000E+00 -0.45593999997E+02  0.45594000000E+02  0.51100000000E-03 0. -1.
    9900012    2    1    2    0    0 -0.33777041358E+02 -0.26395788652E+01  0.22479087354E+02  0.50528864891E+02  0.30000015323E+02 0.  0.
        -12    1    1    2    0    0  0.33777041358E+02  0.26395788652E+01 -0.22479087354E+02  0.40659135109E+02  0.00000000000E+00 0.  1.
         11    1    3    3    0    0 -0.38329213265E+01  0.20527705649E+01  0.31464813104E+01  0.53670753474E+01  0.51100000000E-03 0.  1.
        -11    1    3    3    0    0  0.27671464670E+01  0.58270716471E+01  0.28620048294E+01  0.70571194871E+01  0.51100000000E-03 0. -1.
         12    1    3    3    0    0 -0.32711266499E+02 -0.10519421077E+02  0.16470601214E+02  0.38104670057E+02  0.00000000000E+00 0. -1.
</event>
<event>
 7    1  0.5843820E-012  0.5052884E+02  0.7816164E-02  0.1300439E+00
        -11   -1    0    0    0    0  0.00000000000E+00  0.00000000000E+00  0.45593999997E+02  0.45594000000E+02  0.51100000000E-03 0. -1.
         11   -1    0    0    0    0 -0.00000000000E+00 -0.00000000000E+00 -0.45593999997E+02  0.45594000000E+02  0.51100000000E-03 0.  1.
    9900012    2    1    2    0    0 -0.27049936679E+02  0.21732799679E+02  0.21193239396E+02  0.50528842946E+02  0.29999948619E+02 0.  0.
        -12    1    1    2    0    0  0.27049936679E+02 -0.21732799679E+02 -0.21193239396E+02  0.40659157054E+02  0.00000000000E+00 0.  1.
         11    1    3    3    0    0 -0.30586418731E+01 -0.15783791582E+01 -0.65741874510E+00  0.35041076671E+01  0.51100000000E-03 0.  1.
        -11    1    3    3    0    0  0.16266842519E+01  0.10101010126E+02  0.13647575051E+02  0.17056752688E+02  0.51100000000E-03 0. -1.
         12    1    3    3    0    0 -0.25617979058E+02  0.13210168712E+02  0.82030830894E+01  0.29967982591E+02  0.00000000000E+00 0. -1.
</event>
<event>
 7    1  0.5843820E-012  0.5052891E+02  0.7816164E-02  0.1300439E+00
        -11   -1    0    0    0    0  0.00000000000E+00  0.00000000000E+00  0.45593999997E+02  0.45594000000E+02  0.51100000000E-03 0. -1.
         11   -1    0    0    0    0 -0.00000000000E+00 -0.00000000000E+00 -0.45593999997E+02  0.45594000000E+02  0.51100000000E-03 0.  1.
    9900012    2    1    2    0    0  0.10077216824E+02 -0.18339382317E+02  0.34860840003E+02  0.50528912352E+02  0.30000159585E+02 0.  0.
        -12    1    1    2    0    0 -0.10077216824E+02  0.18339382317E+02 -0.34860840003E+02  0.40659087648E+02  0.00000000000E+00 0.  1.
         11    1    3    3    0    0  0.27196292975E+01 -0.95522516327E+01  0.29028901358E+02  0.30680922560E+02  0.51100000000E-03 0. -1.
        -11    1    3    3    0    0 -0.16594719916E+01  0.29984693916E+01 -0.91455346783E+00  0.35469810106E+01  0.51100000000E-03 0.  1.
        -12    1    3    3    0    0  0.90170595177E+01 -0.11785600076E+02  0.67464921123E+01  0.16301008782E+02  0.00000000000E+00 0.  1.
</event>
<event>
 7    1  0.5843820E-012  0.5052886E+02  0.7816164E-02  0.1300439E+00
        -11   -1    0    0    0    0  0.00000000000E+00  0.00000000000E+00  0.45593999997E+02  0.45594000000E+02  0.51100000000E-03 0. -1.
         11   -1    0    0    0    0 -0.00000000000E+00 -0.00000000000E+00 -0.45593999997E+02  0.45594000000E+02  0.51100000000E-03 0.  1.
    9900012    2    1    2    0    0  0.10301032500E+02  0.42962889340E+01  0.39097270736E+02  0.50528856524E+02  0.29999989890E+02 0.  0.
        -12    1    1    2    0    0 -0.10301032500E+02 -0.42962889340E+01 -0.39097270736E+02  0.40659143476E+02  0.00000000000E+00 0.  1.
         11    1    3    3    0    0  0.12584090142E+01 -0.52012953299E+01  0.13790331624E+01  0.55261920958E+01  0.51100000000E-03 0. -1.
        -11    1    3    3    0    0 -0.25121165338E+01 -0.51677497774E+01  0.70089307142E+01  0.90631935463E+01  0.51100000000E-03 0.  1.
         12    1    3    3    0    0  0.11554740020E+02  0.14665334041E+02  0.30709306860E+02  0.35939470882E+02  0.00000000000E+00 0. -1.
</event>
<event>
 7    1  0.5843820E-012  0.5052888E+02  0.7816164E-02  0.1300439E+00
        -11   -1    0    0    0    0  0.00000000000E+00  0.00000000000E+00  0.45593999997E+02  0.45594000000E+02  0.51100000000E-03 0. -1.
         11   -1    0    0    0    0 -0.00000000000E+00 -0.00000000000E+00 -0.45593999997E+02  0.45594000000E+02  0.51100000000E-03 0.  1.
    9900012    2    1    2    0    0 -0.11119386400E+02  0.27028369992E+02  0.28266415656E+02  0.50528883035E+02  0.30000070474E+02 0.  0.
        -12    1    1    2    0    0  0.11119386400E+02 -0.27028369992E+02 -0.28266415656E+02  0.40659116965E+02  0.00000000000E+00 0.  1.
         11    1    3    3    0    0 -0.66591112113E+01  0.25533371098E+01  0.83465268864E+01  0.10978515558E+02  0.51100000000E-03 0. -1.
        -11    1    3    3    0    0 -0.12881202522E+02  0.72097475300E+01  0.65705166003E+01  0.16157893629E+02  0.51100000000E-03 0.  1.
         12    1    3    3    0    0  0.84209273337E+01  0.17265285352E+02  0.13349372169E+02  0.23392473849E+02  0.00000000000E+00 0. -1.
</event>
<event>
 7    1  0.5843820E-012  0.5052886E+02  0.7816164E-02  0.1300439E+00
        -11   -1    0    0    0    0  0.00000000000E+00  0.00000000000E+00  0.45593999997E+02  0.45594000000E+02  0.51100000000E-03 0. -1.
         11   -1    0    0    0    0 -0.00000000000E+00 -0.00000000000E+00 -0.45593999997E+02  0.45594000000E+02  0.51100000000E-03 0.  1.
    9900012    2    1    2    0    0  0.23887607779E+02  0.56421603525E+01 -0.32414717813E+02  0.50528859457E+02  0.29999998805E+02 0.  0.
         12    1    1    2    0    0 -0.23887607779E+02 -0.56421603525E+01  0.32414717813E+02  0.40659140543E+02  0.00000000000E+00 0. -1.
         11    1    3    3    0    0  0.52069353532E+01 -0.41640985307E+01 -0.89145846544E+01  0.11132012943E+02  0.51100000000E-03 0.  1.
        -11    1    3    3    0    0  0.16145472384E+02  0.31869152412E+01 -0.26900492584E+02  0.31535205863E+02  0.51100000000E-03 0. -1.
         12    1    3    3    0    0  0.25352000411E+01  0.66193436420E+01  0.34003594260E+01  0.78616406510E+01  0.00000000000E+00 0. -1.
</event>
<event>
 7    1  0.5843820E-012  0.5052886E+02  0.7816164E-02  0.1300439E+00
        -11   -1    0    0    0    0  0.00000000000E+00  0.00000000000E+00  0.45593999997E+02  0.45594000000E+02  0.51100000000E-03 0. -1.
         11   -1    0    0    0    0 -0.00000000000E+00 -0.00000000000E+00 -0.45593999997E+02  0.45594000000E+02  0.51100000000E-03 0.  1.
    9900012    2    1    2    0    0  0.13069012815E+02  0.32855614620E+02 -0.20071743877E+02  0.50528863139E+02  0.30000009996E+02 0.  0.
         12    1    1    2    0    0 -0.13069012815E+02 -0.32855614620E+02  0.20071743877E+02  0.40659136861E+02  0.00000000000E+00 0. -1.
         11    1    3    3    0    0  0.12014805209E+02  0.12574532475E+02  0.85169289798E+00  0.17412633121E+02  0.51100000000E-03 0. -1.
        -11    1    3    3    0    0  0.62478186652E+01  0.67719966874E+01 -0.14728539308E+02  0.17373112778E+02  0.51100000000E-03 0.  1.
         12    1    3    3    0    0 -0.51936110598E+01  0.13509085458E+02 -0.61948974674E+01  0.15743117239E+02  0.00000000000E+00 0. -1.
</event>
<event>
 7    1  0.5843820E-012  0.5052885E+02  0.7816164E-02  0.1300439E+00
        -11   -1    0    0    0    0  0.00000000000E+00  0.00000000000E+00  0.45593999997E+02  0.45594000000E+02  0.51100000000E-03 0. -1.
         11   -1    0    0    0    0 -0.00000000000E+00 -0.00000000000E+00 -0.45593999997E+02  0.45594000000E+02  0.51100000000E-03 0.  1.
    9900012    2    1    2    0    0 -0.35880401608E+01 -0.14134936487E+02 -0.37953865163E+02  0.50528851675E+02  0.29999975152E+02 0.  0.
         12    1    1    2    0    0  0.35880401608E+01  0.14134936487E+02  0.37953865163E+02  0.40659148325E+02  0.00000000000E+00 0. -1.
         11    1    3    3    0    0 -0.83140752466E+01 -0.17470531292E+01  0.13882022027E+01  0.86083185036E+01  0.51100000000E-03 0.  1.
        -11    1    3    3    0    0  0.23508645257E+01 -0.35436068712E+01 -0.60711739405E+01  0.74123455770E+01  0.51100000000E-03 0. -1.
         12    1    3    3    0    0  0.23751705601E+01 -0.88442764862E+01 -0.33270893425E+02  0.34508187595E+02  0.00000000000E+00 0. -1.
</event>
<event>
 7    1  0.5843820E-012  0.5052886E+02  0.7816164E-02  0.1300439E+00
        -11   -1    0    0    0    0  0.00000000000E+00  0.00000000000E+00  0.45593999997E+02  0.45594000000E+02  0.51100000000E-03 0.  1.
         11   -1    0    0    0    0 -0.00000000000E+00 -0.00000000000E+00 -0.45593999997E+02  0.45594000000E+02  0.51100000000E-03 0. -1.
    9900012    2    1    2    0    0 -0.84857387799E+01  0.34386354743E+02  0.19968394512E+02  0.50528856692E+02  0.29999990402E+02 0.  0.
        -12    1    1    2    0    0  0.84857387799E+01 -0.34386354743E+02 -0.19968394512E+02  0.40659143308E+02  0.00000000000E+00 0.  1.
         11    1    3    3    0    0 -0.45003199487E+01  0.15090131564E+02  0.66832107854E+01  0.17106439049E+02  0.51100000000E-03 0. -1.
        -11    1    3    3    0    0 -0.11291469212E+02  0.20363497541E+02  0.10164753704E+02  0.25406525288E+02  0.51100000000E-03 0.  1.
         12    1    3    3    0    0  0.73060503812E+01 -0.10672743621E+01  0.31204300228E+01  0.80158923561E+01  0.00000000000E+00 0. -1.
</event>
<event>
 7    1  0.5843820E-012  0.5052889E+02  0.7816164E-02  0.1300439E+00
        -11   -1    0    0    0    0  0.00000000000E+00  0.00000000000E+00  0.45593999997E+02  0.45594000000E+02  0.51100000000E-03 0.  1.
         11   -1    0    0    0    0 -0.00000000000E+00 -0.00000000000E+00 -0.45593999997E+02  0.45594000000E+02  0.51100000000E-03 0. -1.
    9900012    2    1    2    0    0 -0.24546923653E+02 -0.16699007908E+02 -0.27780483858E+02  0.50528885285E+02  0.30000077313E+02 0.  0.
         12    1    1    2    0    0  0.24546923653E+02  0.16699007908E+02  0.27780483858E+02  0.40659114715E+02  0.00000000000E+00 0. -1.
         11    1    3    3    0    0 -0.21893494819E+01 -0.44512697083E+00 -0.92085465071E+01  0.94756909093E+01  0.51100000000E-03 0. -1.
        -11    1    3    3    0    0 -0.15567891279E+02 -0.11696855432E+01 -0.18892496997E+02  0.24508240373E+02  0.51100000000E-03 0.  1.
        -12    1    3    3    0    0 -0.67896828929E+01 -0.15084195394E+02  0.32055964560E+00  0.16544954003E+02  0.00000000000E+00 0.  1.
</event>
<event>
 7    1  0.5843820E-012  0.5052885E+02  0.7816164E-02  0.1300439E+00
        -11   -1    0    0    0    0  0.00000000000E+00  0.00000000000E+00  0.45593999997E+02  0.45594000000E+02  0.51100000000E-03 0. -1.
         11   -1    0    0    0    0 -0.00000000000E+00 -0.00000000000E+00 -0.45593999997E+02  0.45594000000E+02  0.51100000000E-03 0.  1.
    9900012    2    1    2    0    0  0.18083932887E+02 -0.50390431812E+01 -0.36065854532E+02  0.50528850379E+02  0.29999971211E+02 0.  0.
         12    1    1    2    0    0 -0.18083932887E+02  0.50390431812E+01  0.36065854532E+02  0.40659149621E+02  0.00000000000E+00 0. -1.
         11    1    3    3    0    0  0.50345910888E+01 -0.48554957030E+01 -0.99633669347E+01  0.12173398330E+02  0.51100000000E-03 0. -1.
        -11    1    3    3    0    0  0.11308221349E+02 -0.65590032879E+01 -0.28475907806E+02  0.31333268579E+02  0.51100000000E-03 0.  1.
         12    1    3    3    0    0  0.17411204489E+01  0.63754558098E+01  0.23734202090E+01  0.70221834701E+01  0.00000000000E+00 0. -1.
</event>
<event>
 7    1  0.5843820E-012  0.5052887E+02  0.7816164E-02  0.1300439E+00
        -11   -1    0    0    0    0  0.00000000000E+00  0.00000000000E+00  0.45593999997E+02  0.45594000000E+02  0.51100000000E-03 0. -1.
         11   -1    0    0    0    0 -0.00000000000E+00 -0.00000000000E+00 -0.45593999997E+02  0.45594000000E+02  0.51100000000E-03 0.  1.
    9900012    2    1    2    0    0 -0.22745170404E+02 -0.25400396431E+02  0.22150444434E+02  0.50528866903E+02  0.30000021439E+02 0.  0.
        -12    1    1    2    0    0  0.22745170404E+02  0.25400396431E+02 -0.22150444434E+02  0.40659133097E+02  0.00000000000E+00 0.  1.
         11    1    3    3    0    0 -0.21010672771E+02 -0.14103964237E+02  0.18963165609E+02  0.31622331155E+02  0.51100000000E-03 0. -1.
        -11    1    3    3    0    0 -0.78674904210E+01 -0.92246519875E+01  0.26542721497E+01  0.12411155092E+02  0.51100000000E-03 0.  1.
        -12    1    3    3    0    0  0.61329927877E+01 -0.20717802068E+01  0.53300667494E+00  0.64953806566E+01  0.00000000000E+00 0.  1.
</event>
<event>
 7    1  0.5843820E-012  0.5052883E+02  0.7816164E-02  0.1300439E+00
        -11   -1    0    0    0    0  0.00000000000E+00  0.00000000000E+00  0.45593999997E+02  0.45594000000E+02  0.51100000000E-03 0. -1.
         11   -1    0    0    0    0 -0.00000000000E+00 -0.00000000000E+00 -0.45593999997E+02  0.45594000000E+02  0.51100000000E-03 0.  1.
    9900012    2    1    2    0    0  0.28297544790E+00  0.40658169005E+02 -0.41477442874E-01  0.50528825115E+02  0.29999894421E+02 0.  0.
        -12    1    1    2    0    0 -0.28297544790E+00 -0.40658169005E+02  0.41477442874E-01  0.40659174885E+02  0.00000000000E+00 0.  1.
         11    1    3    3    0    0  0.96721605673E+01  0.13146128033E+02  0.22441009542E+01  0.16474445716E+02  0.51100000000E-03 0. -1.
        -11    1    3    3    0    0  0.31098332535E+01  0.14810379148E+02 -0.51910630681E+01  0.15998922758E+02  0.51100000000E-03 0.  1.
        -12    1    3    3    0    0 -0.12499018373E+02  0.12701661824E+02  0.29054846710E+01  0.18055456642E+02  0.00000000000E+00 0.  1.
</event>
<event>
 7    1  0.5843820E-012  0.5052886E+02  0.7816164E-02  0.1300439E+00
        -11   -1    0    0    0    0  0.00000000000E+00  0.00000000000E+00  0.45593999997E+02  0.45594000000E+02  0.51100000000E-03 0. -1.
         11   -1    0    0    0    0 -0.00000000000E+00 -0.00000000000E+00 -0.45593999997E+02  0.45594000000E+02  0.51100000000E-03 0.  1.
    9900012    2    1    2    0    0 -0.24988101389E+02 -0.10211978136E+02 -0.30405201862E+02  0.50528855779E+02  0.29999987626E+02 0.  0.
         12    1    1    2    0    0  0.24988101389E+02  0.10211978136E+02  0.30405201862E+02  0.40659144221E+02  0.00000000000E+00 0. -1.
         11    1    3    3    0    0 -0.11329444042E+02 -0.10578343133E+02 -0.18569782297E+02  0.24188725898E+02  0.51100000000E-03 0.  1.
        -11    1    3    3    0    0 -0.82215182602E+01 -0.83768560568E+01 -0.10872497502E+02  0.15999258798E+02  0.51100000000E-03 0. -1.
         12    1    3    3    0    0 -0.54371390867E+01  0.87432210544E+01 -0.96292206342E+00  0.10340871083E+02  0.00000000000E+00 0. -1.
</event>
<event>
 7    1  0.5843820E-012  0.5052888E+02  0.7816164E-02  0.1300439E+00
        -11   -1    0    0    0    0  0.00000000000E+00  0.00000000000E+00  0.45593999997E+02  0.45594000000E+02  0.51100000000E-03 0. -1.
         11   -1    0    0    0    0 -0.00000000000E+00 -0.00000000000E+00 -0.45593999997E+02  0.45594000000E+02  0.51100000000E-03 0.  1.
    9900012    2    1    2    0    0  0.30914248162E+02 -0.75047007755E+01  0.25321001930E+02  0.50528875416E+02  0.30000047315E+02 0.  0.
        -12    1    1    2    0    0 -0.30914248162E+02  0.75047007755E+01 -0.25321001930E+02  0.40659124584E+02  0.00000000000E+00 0.  1.
         11    1    3    3    0    0  0.87886844721E+01 -0.38111719910E+01  0.80084393396E+01  0.12486036505E+02  0.51100000000E-03 0. -1.
        -11    1    3    3    0    0  0.19621311516E+02 -0.37032441294E+01  0.23812929669E+02  0.31076767888E+02  0.51100000000E-03 0.  1.
        -12    1    3    3    0    0  0.25042521746E+01  0.97153448698E-02 -0.65003670786E+01  0.69660710230E+01  0.00000000000E+00 0.  1.
</event>
<event>
 7    1  0.5843820E-012  0.5052890E+02  0.7816164E-02  0.1300439E+00
        -11   -1    0    0    0    0  0.00000000000E+00  0.00000000000E+00  0.45593999997E+02  0.45594000000E+02  0.51100000000E-03 0.  1.
         11   -1    0    0    0    0 -0.00000000000E+00 -0.00000000000E+00 -0.45593999997E+02  0.45594000000E+02  0.51100000000E-03 0. -1.
    9900012    2    1    2    0    0 -0.10727285818E+02 -0.38144355367E+02  0.91157141413E+01  0.50528895833E+02  0.30000109373E+02 0.  0.
        -12    1    1    2    0    0  0.10727285818E+02  0.38144355367E+02 -0.91157141413E+01  0.40659104167E+02  0.00000000000E+00 0.  1.
         11    1    3    3    0    0 -0.94589161102E+01 -0.15778873468E+02 -0.49803031672E+01  0.19059049342E+02  0.51100000000E-03 0. -1.
        -11    1    3    3    0    0 -0.33011055847E+01 -0.45130030307E+00  0.79493652847E+01  0.86193606918E+01  0.51100000000E-03 0.  1.
        -12    1    3    3    0    0  0.20327358769E+01 -0.21914181596E+02  0.61466520238E+01  0.22850485799E+02  0.00000000000E+00 0.  1.
</event>
<event>
 7    1  0.5843820E-012  0.5052886E+02  0.7816164E-02  0.1300439E+00
        -11   -1    0    0    0    0  0.00000000000E+00  0.00000000000E+00  0.45593999997E+02  0.45594000000E+02  0.51100000000E-03 0. -1.
         11   -1    0    0    0    0 -0.00000000000E+00 -0.00000000000E+00 -0.45593999997E+02  0.45594000000E+02  0.51100000000E-03 0.  1.
    9900012    2    1    2    0    0 -0.20302566516E+02 -0.27399483394E+02 -0.22141358365E+02  0.50528860220E+02  0.30000001126E+02 0.  0.
         12    1    1    2    0    0  0.20302566516E+02  0.27399483394E+02  0.22141358365E+02  0.40659139780E+02  0.00000000000E+00 0. -1.
         11    1    3    3    0    0  0.72780369895E+00 -0.86793749006E+01 -0.59390604110E+01  0.10541996287E+02  0.51100000000E-03 0. -1.
        -11    1    3    3    0    0 -0.87994643023E+01 -0.18898451486E+02 -0.15563369194E+01  0.20904646025E+02  0.51100000000E-03 0.  1.
        -12    1    3    3    0    0 -0.12230905913E+02  0.17834299280E+00 -0.14645961034E+02  0.19082217908E+02  0.00000000000E+00 0.  1.
</event>
<event>
 7    1  0.5843820E-012  0.5052886E+02  0.7816164E-02  0.1300439E+00
        -11   -1    0    0    0    0  0.00000000000E+00  0.00000000000E+00  0.45593999997E+02  0.45594000000E+02  0.51100000000E-03 0.  1.
         11   -1    0    0    0    0 -0.00000000000E+00 -0.00000000000E+00 -0.45593999997E+02  0.45594000000E+02  0.51100000000E-03 0. -1.
    9900012    2    1    2    0    0 -0.22822053222E+02 -0.32635431560E+02  0.82004853410E+01  0.50528862451E+02  0.30000007907E+02 0.  0.
         12    1    1    2    0    0  0.22822053222E+02  0.32635431560E+02 -0.82004853410E+01  0.40659137549E+02  0.00000000000E+00 0. -1.
         11    1    3    3    0    0 -0.10878349114E+02  0.21795157960E+01  0.17226917926E+00  0.11095875156E+02  0.51100000000E-03 0. -1.
        -11    1    3    3    0    0 -0.16662582705E+01 -0.10501337161E+02 -0.26507131871E+01  0.10958137591E+02  0.51100000000E-03 0.  1.
         12    1    3    3    0    0 -0.10277445838E+02 -0.24313610195E+02  0.10678929349E+02  0.28474849704E+02  0.00000000000E+00 0. -1.
</event>
<event>
 7    1  0.5843820E-012  0.5052885E+02  0.7816164E-02  0.1300439E+00
        -11   -1    0    0    0    0  0.00000000000E+00  0.00000000000E+00  0.45593999997E+02  0.45594000000E+02  0.51100000000E-03 0. -1.
         11   -1    0    0    0    0 -0.00000000000E+00 -0.00000000000E+00 -0.45593999997E+02  0.45594000000E+02  0.51100000000E-03 0.  1.
    9900012    2    1    2    0    0 -0.33683972503E+02 -0.59742542269E+01 -0.21974183924E+02  0.50528850030E+02  0.29999970152E+02 0.  0.
         12    1    1    2    0    0  0.33683972503E+02  0.59742542269E+01  0.21974183924E+02  0.40659149970E+02  0.00000000000E+00 0. -1.
         11    1    3    3    0    0 -0.54433114283E+01  0.21436919732E+00 -0.32486666539E+01  0.63426673212E+01  0.51100000000E-03 0. -1.
        -11    1    3    3    0    0 -0.12837903099E+02  0.70638806228E+00 -0.23378552404E+02  0.26680844305E+02  0.51100000000E-03 0.  1.
         12    1    3    3    0    0 -0.15402757976E+02 -0.68950114865E+01  0.46530351342E+01  0.17505338403E+02  0.00000000000E+00 0. -1.
</event>
<event>
 7    1  0.5843820E-012  0.5052886E+02  0.7816164E-02  0.1300439E+00
        -11   -1    0    0    0    0  0.00000000000E+00  0.00000000000E+00  0.45593999997E+02  0.45594000000E+02  0.51100000000E-03 0. -1.
         11   -1    0    0    0    0 -0.00000000000E+00 -0.00000000000E+00 -0.45593999997E+02  0.45594000000E+02  0.51100000000E-03 0.  1.
    9900012    2    1    2    0    0 -0.95364335025E+01  0.71152822418E+01  0.38879229264E+02  0.50528864822E+02  0.30000015112E+02 0.  0.
        -12    1    1    2    0    0  0.95364335025E+01 -0.71152822418E+01 -0.38879229264E+02  0.40659135178E+02  0.00000000000E+00 0.  1.
         11    1    3    3    0    0 -0.74469798782E+01  0.28450951316E+01 -0.27083755629E+01  0.84194640011E+01  0.51100000000E-03 0.  1.
        -11    1    3    3    0    0  0.18468476827E+00  0.30834156826E+00  0.21736245577E+02  0.21739216983E+02  0.51100000000E-03 0. -1.
        -12    1    3    3    0    0 -0.22741383926E+01  0.39618455419E+01  0.19851359250E+02  0.20370183838E+02  0.00000000000E+00 0.  1.
</event>
<event>
 7    1  0.5843820E-012  0.5052888E+02  0.7816164E-02  0.1300439E+00
        -11   -1    0    0    0    0  0.00000000000E+00  0.00000000000E+00  0.45593999997E+02  0.45594000000E+02  0.51100000000E-03 0.  1.
         11   -1    0    0    0    0 -0.00000000000E+00 -0.00000000000E+00 -0.45593999997E+02  0.45594000000E+02  0.51100000000E-03 0. -1.
    9900012    2    1    2    0    0 -0.17763736166E+02 -0.32414536780E+02  0.16938469901E+02  0.50528877040E+02  0.30000052251E+02 0.  0.
        -12    1    1    2    0    0  0.17763736166E+02  0.32414536780E+02 -0.16938469901E+02  0.40659122960E+02  0.00000000000E+00 0.  1.
         11    1    3    3    0    0 -0.75665399694E+01 -0.20860834511E+02  0.83344732229E+01  0.23704227213E+02  0.51100000000E-03 0. -1.
        -11    1    3    3    0    0 -0.12750898600E+02 -0.12979765101E+02  0.12410236220E+02  0.22024388311E+02  0.51100000000E-03 0.  1.
        -12    1    3    3    0    0  0.25537024036E+01  0.14260628323E+01 -0.38062395414E+01  0.48002615152E+01  0.00000000000E+00 0.  1.
</event>
<event>
 7    1  0.5843820E-012  0.5052887E+02  0.7816164E-02  0.1300439E+00
        -11   -1    0    0    0    0  0.00000000000E+00  0.00000000000E+00  0.45593999997E+02  0.45594000000E+02  0.51100000000E-03 0. -1.
         11   -1    0    0    0    0 -0.00000000000E+00 -0.00000000000E+00 -0.45593999997E+02  0.45594000000E+02  0.51100000000E-03 0.  1.
    9900012    2    1    2    0    0  0.15986277390E+02 -0.29514404377E+02 -0.22945666884E+02  0.50528871145E+02  0.30000034332E+02 0.  0.
         12    1    1    2    0    0 -0.15986277390E+02  0.29514404377E+02  0.22945666884E+02  0.40659128855E+02  0.00000000000E+00 0. -1.
         11    1    3    3    0    0  0.71366503471E+01 -0.19675949109E+02 -0.14959009959E+02  0.25726381998E+02  0.51100000000E-03 0. -1.
        -11    1    3    3    0    0  0.14622364013E+02 -0.38869847378E+01 -0.43057909890E+01  0.15730925465E+02  0.51100000000E-03 0.  1.
         12    1    3    3    0    0 -0.57727369702E+01 -0.59514705301E+01 -0.36808659358E+01  0.90715636820E+01  0.00000000000E+00 0. -1.
</event>
<event>
 7    1  0.6746914E-012  0.5052886E+02  0.7816164E-02  0.1300439E+00
        -11   -1    0    0    0    0  0.00000000000E+00  0.00000000000E+00  0.45593999997E+02  0.45594000000E+02  0.51100000000E-03 0. -1.
         11   -1    0    0    0    0 -0.00000000000E+00 -0.00000000000E+00 -0.45593999997E+02  0.45594000000E+02  0.51100000000E-03 0.  1.
    9900012    2    1    2    0    0 -0.85809554385E+01 -0.31164249403E+01 -0.39620964133E+02  0.50528859583E+02  0.29999999187E+02 0.  0.
         12    1    1    2    0    0  0.85809554385E+01  0.31164249403E+01  0.39620964133E+02  0.40659140417E+02  0.00000000000E+00 0. -1.
         11    1    3    3    0    0  0.79495348518E+01 -0.60373866787E+01 -0.86557095024E+01  0.13212359726E+02  0.51100000000E-03 0. -1.
        -11    1    3    3    0    0 -0.52908163092E+01  0.68235011079E+01 -0.16168322342E+02  0.18329417672E+02  0.51100000000E-03 0.  1.
        -12    1    3    3    0    0 -0.11239673981E+02 -0.39025393695E+01 -0.14796932289E+02  0.18987082185E+02  0.00000000000E+00 0.  1.
</event>
<event>
 7    1  0.5843820E-012  0.5052884E+02  0.7816164E-02  0.1300439E+00
        -11   -1    0    0    0    0  0.00000000000E+00  0.00000000000E+00  0.45593999997E+02  0.45594000000E+02  0.51100000000E-03 0.  1.
         11   -1    0    0    0    0 -0.00000000000E+00 -0.00000000000E+00 -0.45593999997E+02  0.45594000000E+02  0.51100000000E-03 0. -1.
    9900012    2    1    2    0    0 -0.39358547697E+02 -0.77669221572E+01 -0.66141490943E+01  0.50528839595E+02  0.29999938433E+02 0.  0.
        -12    1    1    2    0    0  0.39358547697E+02  0.77669221572E+01  0.66141490943E+01  0.40659160405E+02  0.00000000000E+00 0.  1.
         11    1    3    3    0    0 -0.11415451555E+02  0.69934921209E+00  0.19103212558E+01  0.11595298663E+02  0.51100000000E-03 0. -1.
        -11    1    3    3    0    0 -0.15085340379E+02 -0.86955462856E+01  0.70071036530E+01  0.18769110832E+02  0.51100000000E-03 0.  1.
         12    1    3    3    0    0 -0.12857755763E+02  0.22927491631E+00 -0.15531574003E+02  0.20164430100E+02  0.00000000000E+00 0. -1.
</event>
<event>
 7    1  0.5843820E-012  0.5052886E+02  0.7816164E-02  0.1300439E+00
        -11   -1    0    0    0    0  0.00000000000E+00  0.00000000000E+00  0.45593999997E+02  0.45594000000E+02  0.51100000000E-03 0. -1.
         11   -1    0    0    0    0 -0.00000000000E+00 -0.00000000000E+00 -0.45593999997E+02  0.45594000000E+02  0.51100000000E-03 0.  1.
    9900012    2    1    2    0    0  0.34025478026E+01  0.95803221498E+01 -0.39367571884E+02  0.50528860559E+02  0.30000002154E+02 0.  0.
         12    1    1    2    0    0 -0.34025478026E+01 -0.95803221498E+01  0.39367571884E+02  0.40659139441E+02  0.00000000000E+00 0. -1.
         11    1    3    3    0    0 -0.46747403573E+01 -0.28260859662E+01 -0.22689885390E+00  0.54673067087E+01  0.51100000000E-03 0. -1.
        -11    1    3    3    0    0  0.54951926634E+01  0.13634706326E+02 -0.15933891047E+02  0.21679281427E+02  0.51100000000E-03 0.  1.
         12    1    3    3    0    0  0.25820954964E+01 -0.12282982104E+01 -0.23206781984E+02  0.23382272423E+02  0.00000000000E+00 0. -1.
</event>
<event>
 7    1  0.5843820E-012  0.5052885E+02  0.7816164E-02  0.1300439E+00
        -11   -1    0    0    0    0  0.00000000000E+00  0.00000000000E+00  0.45593999997E+02  0.45594000000E+02  0.51100000000E-03 0. -1.
         11   -1    0    0    0    0 -0.00000000000E+00 -0.00000000000E+00 -0.45593999997E+02  0.45594000000E+02  0.51100000000E-03 0.  1.
    9900012    2    1    2    0    0 -0.20760161836E+02 -0.34770945349E+02  0.36281084331E+01  0.50528854279E+02  0.29999983067E+02 0.  0.
        -12    1    1    2    0    0  0.20760161836E+02  0.34770945349E+02 -0.36281084331E+01  0.40659145721E+02  0.00000000000E+00 0.  1.
         11    1    3    3    0    0 -0.32758941943E+01 -0.96907216568E+01 -0.27966872602E+01  0.10604858740E+02  0.51100000000E-03 0. -1.
        -11    1    3    3    0    0 -0.13841200370E+02 -0.27050802922E+02 -0.20871208575E+01  0.30457853505E+02  0.51100000000E-03 0.  1.
        -12    1    3    3    0    0 -0.36430672719E+01  0.19705792293E+01  0.85119165508E+01  0.94661420343E+01  0.00000000000E+00 0.  1.
</event>
<event>
 7    1  0.5843820E-012  0.5052886E+02  0.7816164E-02  0.1300439E+00
        -11   -1    0    0    0    0  0.00000000000E+00  0.00000000000E+00  0.45593999997E+02  0.45594000000E+02  0.51100000000E-03 0. -1.
         11   -1    0    0    0    0 -0.00000000000E+00 -0.00000000000E+00 -0.45593999997E+02  0.45594000000E+02  0.51100000000E-03 0.  1.
    9900012    2    1    2    0    0 -0.12069706079E+02 -0.13037741492E+02  0.36571917609E+02  0.50528859999E+02  0.30000000452E+02 0.  0.
        -12    1    1    2    0    0  0.12069706079E+02  0.13037741492E+02 -0.36571917609E+02  0.40659140001E+02  0.00000000000E+00 0.  1.
         11    1    3    3    0    0 -0.27166920328E+00  0.96943428950E-01  0.64272824930E+01  0.64337518363E+01  0.51100000000E-03 0. -1.
        -11    1    3    3    0    0 -0.95430906966E+01  0.47354441495E+01  0.21758749858E+02  0.24226807611E+02  0.51100000000E-03 0.  1.
         12    1    3    3    0    0 -0.22549461788E+01 -0.17870129071E+02  0.83858852575E+01  0.19868300552E+02  0.00000000000E+00 0. -1.
</event>
<event>
 7    1  0.5843820E-012  0.5052886E+02  0.7816164E-02  0.1300439E+00
        -11   -1    0    0    0    0  0.00000000000E+00  0.00000000000E+00  0.45593999997E+02  0.45594000000E+02  0.51100000000E-03 0.  1.
         11   -1    0    0    0    0 -0.00000000000E+00 -0.00000000000E+00 -0.45593999997E+02  0.45594000000E+02  0.51100000000E-03 0. -1.
    9900012    2    1    2    0    0  0.33498015901E+02  0.30927151920E+01  0.22836022903E+02  0.50528857134E+02  0.29999991746E+02 0.  0.
        -12    1    1    2    0    0 -0.33498015901E+02 -0.30927151920E+01 -0.22836022903E+02  0.40659142866E+02  0.00000000000E+00 0.  1.
         11    1    3    3    0    0  0.23783682557E+01 -0.60503135685E+01  0.37234076844E+01  0.74917751490E+01  0.51100000000E-03 0. -1.
        -11    1    3    3    0    0  0.60737483809E+01 -0.65349094304E+01  0.32114812428E+01  0.94820394795E+01  0.51100000000E-03 0.  1.
        -12    1    3    3    0    0  0.25045899264E+02  0.15677938191E+02  0.15901133975E+02  0.33555042506E+02  0.00000000000E+00 0.  1.
</event>
<event>
 7    1  0.5843820E-012  0.5052886E+02  0.7816164E-02  0.1300439E+00
        -11   -1    0    0    0    0  0.00000000000E+00  0.00000000000E+00  0.45593999997E+02  0.45594000000E+02  0.51100000000E-03 0. -1.
         11   -1    0    0    0    0 -0.00000000000E+00 -0.00000000000E+00 -0.45593999997E+02  0.45594000000E+02  0.51100000000E-03 0.  1.
    9900012    2    1    2    0    0  0.34186978941E+01 -0.19828148393E+02 -0.35331611440E+02  0.50528859196E+02  0.29999998013E+02 0.  0.
         12    1    1    2    0    0 -0.34186978941E+01  0.19828148393E+02  0.35331611440E+02  0.40659140804E+02  0.00000000000E+00 0. -1.
         11    1    3    3    0    0  0.52903770689E+01 -0.15579790114E+01  0.26543382061E+01  0.61205309985E+01  0.51100000000E-03 0. -1.
        -11    1    3    3    0    0  0.35293109812E+01 -0.13895561372E+01 -0.19848064501E+01  0.42809297081E+01  0.51100000000E-03 0.  1.
        -12    1    3    3    0    0 -0.54009901559E+01 -0.16880613244E+02 -0.36001143196E+02  0.40127398490E+02  0.00000000000E+00 0.  1.
</event>
<event>
 7    1  0.5843820E-012  0.5052886E+02  0.7816164E-02  0.1300439E+00
        -11   -1    0    0    0    0  0.00000000000E+00  0.00000000000E+00  0.45593999997E+02  0.45594000000E+02  0.51100000000E-03 0. -1.
         11   -1    0    0    0    0 -0.00000000000E+00 -0.00000000000E+00 -0.45593999997E+02  0.45594000000E+02  0.51100000000E-03 0.  1.
    9900012    2    1    2    0    0 -0.11267562430E+02  0.18589200009E+01  0.39022457157E+02  0.50528859463E+02  0.29999998823E+02 0.  0.
        -12    1    1    2    0    0  0.11267562430E+02 -0.18589200009E+01 -0.39022457157E+02  0.40659140537E+02  0.00000000000E+00 0.  1.
         11    1    3    3    0    0 -0.55955889758E+01 -0.54194421767E+01  0.54235029589E+01  0.94918572523E+01  0.51100000000E-03 0. -1.
        -11    1    3    3    0    0 -0.73269030715E+01  0.10807607892E+02  0.83718107315E+01  0.15510483943E+02  0.51100000000E-03 0.  1.
        -12    1    3    3    0    0  0.16549296175E+01 -0.35292457146E+01  0.25227143467E+02  0.25526518267E+02  0.00000000000E+00 0.  1.
</event>
<event>
 7    1  0.5843820E-012  0.5052886E+02  0.7816164E-02  0.1300439E+00
        -11   -1    0    0    0    0  0.00000000000E+00  0.00000000000E+00  0.45593999997E+02  0.45594000000E+02  0.51100000000E-03 0. -1.
         11   -1    0    0    0    0 -0.00000000000E+00 -0.00000000000E+00 -0.45593999997E+02  0.45594000000E+02  0.51100000000E-03 0.  1.
    9900012    2    1    2    0    0 -0.24967713186E+02 -0.27912255549E+02 -0.15833038648E+02  0.50528858047E+02  0.29999994519E+02 0.  0.
         12    1    1    2    0    0  0.24967713186E+02  0.27912255549E+02  0.15833038648E+02  0.40659141953E+02  0.00000000000E+00 0. -1.
         11    1    3    3    0    0 -0.24441553279E+01 -0.14912587599E+01  0.17391433002E+01  0.33499802441E+01  0.51100000000E-03 0. -1.
        -11    1    3    3    0    0  0.28321839159E+01  0.27125101792E+01 -0.54200775600E+01  0.66900088358E+01  0.51100000000E-03 0.  1.
         12    1    3    3    0    0 -0.25355741774E+02 -0.29133506968E+02 -0.12152104388E+02  0.40488868967E+02  0.00000000000E+00 0. -1.
</event>
<event>
 7    1  0.5843820E-012  0.5052887E+02  0.7816164E-02  0.1300439E+00
        -11   -1    0    0    0    0  0.00000000000E+00  0.00000000000E+00  0.45593999997E+02  0.45594000000E+02  0.51100000000E-03 0. -1.
         11   -1    0    0    0    0 -0.00000000000E+00 -0.00000000000E+00 -0.45593999997E+02  0.45594000000E+02  0.51100000000E-03 0.  1.
    9900012    2    1    2    0    0 -0.34138202210E+02 -0.11626502797E+02 -0.18776922933E+02  0.50528865082E+02  0.30000015904E+02 0.  0.
         12    1    1    2    0    0  0.34138202210E+02  0.11626502797E+02  0.18776922933E+02  0.40659134918E+02  0.00000000000E+00 0. -1.
         11    1    3    3    0    0 -0.62889673318E+01 -0.69758548021E+01  0.47764014536E+01  0.10536966899E+02  0.51100000000E-03 0. -1.
        -11    1    3    3    0    0 -0.89201230905E+01  0.58218092010E+01 -0.86594702820E+01  0.13727653993E+02  0.51100000000E-03 0.  1.
        -12    1    3    3    0    0 -0.18929111788E+02 -0.10472457196E+02 -0.14893854104E+02  0.26264244190E+02  0.00000000000E+00 0.  1.
</event>
<event>
 7    1  0.5843820E-012  0.5052884E+02  0.7816164E-02  0.1300439E+00
        -11   -1    0    0    0    0  0.00000000000E+00  0.00000000000E+00  0.45593999997E+02  0.45594000000E+02  0.51100000000E-03 0.  1.
         11   -1    0    0    0    0 -0.00000000000E+00 -0.00000000000E+00 -0.45593999997E+02  0.45594000000E+02  0.51100000000E-03 0. -1.
    9900012    2    1    2    0    0 -0.63884984610E+01  0.39927638554E+02  0.42589250870E+01  0.50528835277E+02  0.29999925307E+02 0.  0.
         12    1    1    2    0    0  0.63884984610E+01 -0.39927638554E+02 -0.42589250870E+01  0.40659164723E+02  0.00000000000E+00 0. -1.
         11    1    3    3    0    0  0.67719610948E+01  0.25110192812E+01  0.13130601017E+01  0.73408992631E+01  0.51100000000E-03 0. -1.
        -11    1    3    3    0    0  0.37373099271E+01  0.11768564419E+02  0.15172757415E+01  0.12440607698E+02  0.51100000000E-03 0.  1.
        -12    1    3    3    0    0 -0.16897769483E+02  0.25648054854E+02  0.14285892438E+01  0.30747328315E+02  0.00000000000E+00 0.  1.
</event>
<event>
 7    1  0.5843820E-012  0.5052886E+02  0.7816164E-02  0.1300439E+00
        -11   -1    0    0    0    0  0.00000000000E+00  0.00000000000E+00  0.45593999997E+02  0.45594000000E+02  0.51100000000E-03 0. -1.
         11   -1    0    0    0    0 -0.00000000000E+00 -0.00000000000E+00 -0.45593999997E+02  0.45594000000E+02  0.51100000000E-03 0.  1.
    9900012    2    1    2    0    0 -0.10796221586E+02 -0.14653138955E+02 -0.36357845212E+02  0.50528858467E+02  0.29999995795E+02 0.  0.
         12    1    1    2    0    0  0.10796221586E+02  0.14653138955E+02  0.36357845212E+02  0.40659141533E+02  0.00000000000E+00 0. -1.
         11    1    3    3    0    0 -0.46175797669E+00 -0.51030616754E+01  0.39922962779E-01  0.51240660609E+01  0.51100000000E-03 0. -1.
        -11    1    3    3    0    0 -0.39227375288E+01 -0.16490639425E+02 -0.18016272922E+02  0.24736918738E+02  0.51100000000E-03 0.  1.
        -12    1    3    3    0    0 -0.64117260803E+01  0.69405621456E+01 -0.18381495253E+02  0.20667873668E+02  0.00000000000E+00 0.  1.
</event>
<event>
 7    1  0.5843820E-012  0.5052886E+02  0.7816164E-02  0.1300439E+00
        -11   -1    0    0    0    0  0.00000000000E+00  0.00000000000E+00  0.45593999997E+02  0.45594000000E+02  0.51100000000E-03 0.  1.
         11   -1    0    0    0    0 -0.00000000000E+00 -0.00000000000E+00 -0.45593999997E+02  0.45594000000E+02  0.51100000000E-03 0. -1.
    9900012    2    1    2    0    0 -0.36384006221E+02 -0.12292655977E+02 -0.13351430630E+02  0.50528855893E+02  0.29999987972E+02 0.  0.
         12    1    1    2    0    0  0.36384006221E+02  0.12292655977E+02  0.13351430630E+02  0.40659144107E+02  0.00000000000E+00 0. -1.
         11    1    3    3    0    0 -0.68817596183E+01  0.60266392057E+01 -0.57220636798E+00  0.91655014019E+01  0.51100000000E-03 0. -1.
        -11    1    3    3    0    0 -0.33247346526E+01 -0.34503166327E+01 -0.10050608456E+02  0.11134328717E+02  0.51100000000E-03 0.  1.
         12    1    3    3    0    0 -0.26177511950E+02 -0.14868978550E+02 -0.27286158060E+01  0.30229025774E+02  0.00000000000E+00 0. -1.
</event>
<event>
 7    1  0.5843820E-012  0.5052884E+02  0.7816164E-02  0.1300439E+00
        -11   -1    0    0    0    0  0.00000000000E+00  0.00000000000E+00  0.45593999997E+02  0.45594000000E+02  0.51100000000E-03 0. -1.
         11   -1    0    0    0    0 -0.00000000000E+00 -0.00000000000E+00 -0.45593999997E+02  0.45594000000E+02  0.51100000000E-03 0.  1.
    9900012    2    1    2    0    0 -0.15956635167E+02  0.24095248537E+02  0.28600204668E+02  0.50528844635E+02  0.29999953753E+02 0.  0.
        -12    1    1    2    0    0  0.15956635167E+02 -0.24095248537E+02 -0.28600204668E+02  0.40659155365E+02  0.00000000000E+00 0.  1.
         11    1    3    3    0    0 -0.77921145309E+00  0.14024662570E+02  0.77111616807E+01  0.16023743178E+02  0.51100000000E-03 0. -1.
        -11    1    3    3    0    0  0.15378953935E+01  0.37387047723E+01 -0.27350351894E+01  0.48809275107E+01  0.51100000000E-03 0.  1.
         12    1    3    3    0    0 -0.16715319107E+02  0.63318811945E+01  0.23624078177E+02  0.29624173947E+02  0.00000000000E+00 0. -1.
</event>
<event>
 7    1  0.5843820E-012  0.5052885E+02  0.7816164E-02  0.1300439E+00
        -11   -1    0    0    0    0  0.00000000000E+00  0.00000000000E+00  0.45593999997E+02  0.45594000000E+02  0.51100000000E-03 0. -1.
         11   -1    0    0    0    0 -0.00000000000E+00 -0.00000000000E+00 -0.45593999997E+02  0.45594000000E+02  0.51100000000E-03 0.  1.
    9900012    2    1    2    0    0 -0.88823336487E+01 -0.15208873725E+01 -0.39647919601E+02  0.50528850008E+02  0.29999970083E+02 0.  0.
         12    1    1    2    0    0  0.88823336487E+01  0.15208873725E+01  0.39647919601E+02  0.40659149992E+02  0.00000000000E+00 0. -1.
         11    1    3    3    0    0 -0.40605230893E+01 -0.10112777882E+02 -0.63661098347E+01  0.12620755878E+02  0.51100000000E-03 0. -1.
        -11    1    3    3    0    0 -0.19677144103E+01 -0.35806249125E+01 -0.27757565534E+01  0.49393926215E+01  0.51100000000E-03 0.  1.
        -12    1    3    3    0    0 -0.28540961491E+01  0.12172515422E+02 -0.30506053213E+02  0.32968701508E+02  0.00000000000E+00 0.  1.
</event>
<event>
 7    1  0.5843820E-012  0.5052887E+02  0.7816164E-02  0.1300439E+00
        -11   -1    0    0    0    0  0.00000000000E+00  0.00000000000E+00  0.45593999997E+02  0.45594000000E+02  0.51100000000E-03 0. -1.
         11   -1    0    0    0    0 -0.00000000000E+00 -0.00000000000E+00 -0.45593999997E+02  0.45594000000E+02  0.51100000000E-03 0.  1.
    9900012    2    1    2    0    0 -0.33153223665E+02  0.66765699959E+01  0.22571051048E+02  0.50528866073E+02  0.30000018916E+02 0.  0.
        -12    1    1    2    0    0  0.33153223665E+02 -0.66765699959E+01 -0.22571051048E+02  0.40659133927E+02  0.00000000000E+00 0.  1.
         11    1    3    3    0    0 -0.23862490748E+02  0.71142387609E+01  0.15539667764E+02  0.29351526916E+02  0.51100000000E-03 0. -1.
        -11    1    3    3    0    0 -0.23217701009E+01 -0.29300046848E+01  0.11796580231E+02  0.12374766635E+02  0.51100000000E-03 0.  1.
        -12    1    3    3    0    0 -0.69689628157E+01  0.24923359198E+01 -0.47651969467E+01  0.88025725220E+01  0.00000000000E+00 0.  1.
</event>
<event>
 7    1  0.5843820E-012  0.5052886E+02  0.7816164E-02  0.1300439E+00
        -11   -1    0    0    0    0  0.00000000000E+00  0.00000000000E+00  0.45593999997E+02  0.45594000000E+02  0.51100000000E-03 0. -1.
         11   -1    0    0    0    0 -0.00000000000E+00 -0.00000000000E+00 -0.45593999997E+02  0.45594000000E+02  0.51100000000E-03 0.  1.
    9900012    2    1    2    0    0  0.23327827895E+02 -0.25319367067E+02  0.21631180201E+02  0.50528857611E+02  0.29999993194E+02 0.  0.
        -12    1    1    2    0    0 -0.23327827895E+02  0.25319367067E+02 -0.21631180201E+02  0.40659142389E+02  0.00000000000E+00 0.  1.
         11    1    3    3    0    0  0.11796327680E+01 -0.90022553432E+01  0.40344490187E+01  0.99352359750E+01  0.51100000000E-03 0. -1.
        -11    1    3    3    0    0 -0.80143650646E+00 -0.12582277624E+02  0.10128055946E+02  0.16171998274E+02  0.51100000000E-03 0.  1.
        -12    1    3    3    0    0  0.22949631633E+02 -0.37348340996E+01  0.74686752363E+01  0.24421623362E+02  0.00000000000E+00 0.  1.
</event>
<event>
 7    1  0.5843820E-012  0.5052886E+02  0.7816164E-02  0.1300439E+00
        -11   -1    0    0    0    0  0.00000000000E+00  0.00000000000E+00  0.45593999997E+02  0.45594000000E+02  0.51100000000E-03 0. -1.
         11   -1    0    0    0    0 -0.00000000000E+00 -0.00000000000E+00 -0.45593999997E+02  0.45594000000E+02  0.51100000000E-03 0.  1.
    9900012    2    1    2    0    0 -0.26024169438E+02 -0.14799155307E-01  0.31239532836E+02  0.50528855570E+02  0.29999986992E+02 0.  0.
        -12    1    1    2    0    0  0.26024169438E+02  0.14799155307E-01 -0.31239532836E+02  0.40659144430E+02  0.00000000000E+00 0.  1.
         11    1    3    3    0    0 -0.18719867519E+02  0.38802703514E+01  0.24405813023E+02  0.31002155530E+02  0.51100000000E-03 0. -1.
        -11    1    3    3    0    0 -0.83369045876E+01  0.36077132885E+01  0.76939806747E+01  0.11904491260E+02  0.51100000000E-03 0.  1.
        -12    1    3    3    0    0  0.10326026684E+01 -0.75027827952E+01 -0.86026086209E+00  0.76222087805E+01  0.00000000000E+00 0.  1.
</event>
<event>
 7    1  0.5843820E-012  0.5052884E+02  0.7816164E-02  0.1300439E+00
        -11   -1    0    0    0    0  0.00000000000E+00  0.00000000000E+00  0.45593999997E+02  0.45594000000E+02  0.51100000000E-03 0. -1.
         11   -1    0    0    0    0 -0.00000000000E+00 -0.00000000000E+00 -0.45593999997E+02  0.45594000000E+02  0.51100000000E-03 0.  1.
    9900012    2    1    2    0    0  0.16534012663E+01 -0.33378653577E+02 -0.23158128478E+02  0.50528841561E+02  0.29999944408E+02 0.  0.
         12    1    1    2    0    0 -0.16534012663E+01  0.33378653577E+02  0.23158128478E+02  0.40659158439E+02  0.00000000000E+00 0. -1.
         11    1    3    3    0    0 -0.17856822958E+01 -0.39063189919E+01  0.46699346396E+01  0.63447836155E+01  0.51100000000E-03 0. -1.
        -11    1    3    3    0    0  0.73873491543E+01 -0.10570950398E+02 -0.39753197492E+01  0.13495224608E+02  0.51100000000E-03 0.  1.
        -12    1    3    3    0    0 -0.39482655922E+01 -0.18901384187E+02 -0.23852743369E+02  0.30688833337E+02  0.00000000000E+00 0.  1.
</event>
<event>
 7    1  0.5843820E-012  0.5052879E+02  0.7816164E-02  0.1300439E+00
        -11   -1    0    0    0    0  0.00000000000E+00  0.00000000000E+00  0.45593999997E+02  0.45594000000E+02  0.51100000000E-03 0. -1.
         11   -1    0    0    0    0 -0.00000000000E+00 -0.00000000000E+00 -0.45593999997E+02  0.45594000000E+02  0.51100000000E-03 0.  1.
    9900012    2    1    2    0    0 -0.28759388060E+01 -0.40424807277E+02 -0.32764372913E+01  0.50528793063E+02  0.29999796994E+02 0.  0.
         12    1    1    2    0    0  0.28759388060E+01  0.40424807277E+02  0.32764372913E+01  0.40659206937E+02  0.00000000000E+00 0. -1.
         11    1    3    3    0    0  0.53796779028E+01 -0.87212805706E+00  0.27961083907E+01  0.61253378748E+01  0.51100000000E-03 0. -1.
        -11    1    3    3    0    0  0.50581313261E+00 -0.29551274343E+01 -0.60719267127E+01  0.67717737221E+01  0.51100000000E-03 0.  1.
        -12    1    3    3    0    0 -0.87614298414E+01 -0.36597551786E+02 -0.61896933175E-03  0.37631681466E+02  0.00000000000E+00 0.  1.
</event>
<event>
 7    1  0.5843820E-012  0.5052893E+02  0.7816164E-02  0.1300439E+00
        -11   -1    0    0    0    0  0.00000000000E+00  0.00000000000E+00  0.45593999997E+02  0.45594000000E+02  0.51100000000E-03 0. -1.
         11   -1    0    0    0    0 -0.00000000000E+00 -0.00000000000E+00 -0.45593999997E+02  0.45594000000E+02  0.51100000000E-03 0.  1.
    9900012    2    1    2    0    0  0.28993470850E+02 -0.16380879074E+02  0.23328218936E+02  0.50528925369E+02  0.30000199150E+02 0.  0.
        -12    1    1    2    0    0 -0.28993470850E+02  0.16380879074E+02 -0.23328218936E+02  0.40659074631E+02  0.00000000000E+00 0.  1.
         11    1    3    3    0    0  0.96878975614E+01 -0.16484861242E+02  0.38126487090E+01  0.19497238260E+02  0.51100000000E-03 0. -1.
        -11    1    3    3    0    0 -0.16473097986E+01  0.16520734429E+01 -0.33843587805E-01  0.23332642119E+01  0.51100000000E-03 0.  1.
         12    1    3    3    0    0  0.20952883087E+02 -0.15480912747E+01  0.19549413815E+02  0.28698422897E+02  0.00000000000E+00 0. -1.
</event>
<event>
 7    1  0.5843820E-012  0.5052884E+02  0.7816164E-02  0.1300439E+00
        -11   -1    0    0    0    0  0.00000000000E+00  0.00000000000E+00  0.45593999997E+02  0.45594000000E+02  0.51100000000E-03 0.  1.
         11   -1    0    0    0    0 -0.00000000000E+00 -0.00000000000E+00 -0.45593999997E+02  0.45594000000E+02  0.51100000000E-03 0. -1.
    9900012    2    1    2    0    0 -0.97149986505E+01  0.37265770063E+02 -0.13040260408E+02  0.50528841023E+02  0.29999942774E+02 0.  0.
        -12    1    1    2    0    0  0.97149986505E+01 -0.37265770063E+02  0.13040260408E+02  0.40659158977E+02  0.00000000000E+00 0.  1.
         11    1    3    3    0    0 -0.10589353733E+02  0.23205867978E+02 -0.28863873809E+01  0.25670565897E+02  0.51100000000E-03 0. -1.
        -11    1    3    3    0    0 -0.44488478334E+01  0.58175096062E+01 -0.12754491660E+02  0.14707573656E+02  0.51100000000E-03 0.  1.
         12    1    3    3    0    0  0.53232029162E+01  0.82423924787E+01  0.26006186329E+01  0.10150701470E+02  0.00000000000E+00 0. -1.
</event>
<event>
 7    1  0.5843820E-012  0.5052886E+02  0.7816164E-02  0.1300439E+00
        -11   -1    0    0    0    0  0.00000000000E+00  0.00000000000E+00  0.45593999997E+02  0.45594000000E+02  0.51100000000E-03 0. -1.
         11   -1    0    0    0    0 -0.00000000000E+00 -0.00000000000E+00 -0.45593999997E+02  0.45594000000E+02  0.51100000000E-03 0.  1.
    9900012    2    1    2    0    0  0.66961145734E+01  0.34651752358E+02 -0.20188707123E+02  0.50528858504E+02  0.29999995909E+02 0.  0.
         12    1    1    2    0    0 -0.66961145734E+01 -0.34651752358E+02  0.20188707123E+02  0.40659141496E+02  0.00000000000E+00 0. -1.
         11    1    3    3    0    0 -0.19963251010E+00  0.13393701968E+02  0.15549619907E+01  0.13485140436E+02  0.51100000000E-03 0. -1.
        -11    1    3    3    0    0  0.66794604002E+01  0.25111466876E+02 -0.17617751975E+02  0.31394046328E+02  0.51100000000E-03 0.  1.
        -12    1    3    3    0    0  0.21628668330E+00 -0.38534164853E+01 -0.41259171381E+01  0.56496717400E+01  0.00000000000E+00 0.  1.
</event>
<event>
 7    1  0.5843820E-012  0.5052876E+02  0.7816164E-02  0.1300439E+00
        -11   -1    0    0    0    0  0.00000000000E+00  0.00000000000E+00  0.45593999997E+02  0.45594000000E+02  0.51100000000E-03 0.  1.
         11   -1    0    0    0    0 -0.00000000000E+00 -0.00000000000E+00 -0.45593999997E+02  0.45594000000E+02  0.51100000000E-03 0. -1.
    9900012    2    1    2    0    0  0.20907139662E+02  0.23783431841E+02 -0.25503212333E+02  0.50528758021E+02  0.29999690479E+02 0.  0.
         12    1    1    2    0    0 -0.20907139662E+02 -0.23783431841E+02  0.25503212333E+02  0.40659241979E+02  0.00000000000E+00 0. -1.
         11    1    3    3    0    0  0.13167775477E+01  0.11041765116E+01  0.60255368096E+01  0.62657962769E+01  0.51100000000E-03 0. -1.
        -11    1    3    3    0    0  0.32231169103E+01  0.27859767205E+01 -0.11118501306E+01  0.44029944218E+01  0.51100000000E-03 0.  1.
        -12    1    3    3    0    0  0.16367245204E+02  0.19893278609E+02 -0.30416899012E+02  0.39859967322E+02  0.00000000000E+00 0.  1.
</event>
<event>
 7    1  0.5843820E-012  0.5052882E+02  0.7816164E-02  0.1300439E+00
        -11   -1    0    0    0    0  0.00000000000E+00  0.00000000000E+00  0.45593999997E+02  0.45594000000E+02  0.51100000000E-03 0. -1.
         11   -1    0    0    0    0 -0.00000000000E+00 -0.00000000000E+00 -0.45593999997E+02  0.45594000000E+02  0.51100000000E-03 0.  1.
    9900012    2    1    2    0    0 -0.33975272072E+02 -0.99221004368E+00 -0.22312901112E+02  0.50528817161E+02  0.29999870243E+02 0.  0.
         12    1    1    2    0    0  0.33975272072E+02  0.99221004368E+00  0.22312901112E+02  0.40659182839E+02  0.00000000000E+00 0. -1.
         11    1    3    3    0    0 -0.22355862342E+02 -0.10153990478E+02 -0.92393768777E+01  0.26234599083E+02  0.51100000000E-03 0. -1.
        -11    1    3    3    0    0 -0.11810312637E+02  0.50953961260E+01 -0.26895359740E+01  0.13140781951E+02  0.51100000000E-03 0.  1.
        -12    1    3    3    0    0  0.19090290798E+00  0.40663843079E+01 -0.10383988260E+02  0.11153436127E+02  0.00000000000E+00 0.  1.
</event>
<event>
 7    1  0.5843820E-012  0.5052886E+02  0.7816164E-02  0.1300439E+00
        -11   -1    0    0    0    0  0.00000000000E+00  0.00000000000E+00  0.45593999997E+02  0.45594000000E+02  0.51100000000E-03 0. -1.
         11   -1    0    0    0    0 -0.00000000000E+00 -0.00000000000E+00 -0.45593999997E+02  0.45594000000E+02  0.51100000000E-03 0.  1.
    9900012    2    1    2    0    0 -0.64526316952E+01 -0.13385395038E+02 -0.37846539762E+02  0.50528858001E+02  0.29999994379E+02 0.  0.
         12    1    1    2    0    0  0.64526316952E+01  0.13385395038E+02  0.37846539762E+02  0.40659141999E+02  0.00000000000E+00 0. -1.
         11    1    3    3    0    0 -0.64286841944E+01 -0.57230654239E+00 -0.13205624080E+01  0.65878221427E+01  0.51100000000E-03 0. -1.
        -11    1    3    3    0    0 -0.48232549415E+00  0.38477648409E+01 -0.95660242914E-01  0.38790570112E+01  0.51100000000E-03 0.  1.
        -12    1    3    3    0    0  0.45837799334E+00 -0.16660853337E+02 -0.36430317111E+02  0.40061978847E+02  0.00000000000E+00 0.  1.
</event>
<event>
 7    1  0.5843820E-012  0.5052885E+02  0.7816164E-02  0.1300439E+00
        -11   -1    0    0    0    0  0.00000000000E+00  0.00000000000E+00  0.45593999997E+02  0.45594000000E+02  0.51100000000E-03 0. -1.
         11   -1    0    0    0    0 -0.00000000000E+00 -0.00000000000E+00 -0.45593999997E+02  0.45594000000E+02  0.51100000000E-03 0.  1.
    9900012    2    1    2    0    0 -0.29319847929E+02 -0.10391002435E+02  0.26182815519E+02  0.50528852903E+02  0.29999978883E+02 0.  0.
        -12    1    1    2    0    0  0.29319847929E+02  0.10391002435E+02 -0.26182815519E+02  0.40659147097E+02  0.00000000000E+00 0.  1.
         11    1    3    3    0    0 -0.16407081972E+02  0.20949186669E+01  0.11944459231E+02  0.20402233448E+02  0.51100000000E-03 0. -1.
        -11    1    3    3    0    0 -0.79640111512E+01  0.42982520664E+01  0.47178902002E+01  0.10205828366E+02  0.51100000000E-03 0.  1.
         12    1    3    3    0    0 -0.49487548058E+01 -0.16784173168E+02  0.95204660874E+01  0.19920791089E+02  0.00000000000E+00 0. -1.
</event>
<event>
 7    1  0.5843820E-012  0.5052886E+02  0.7816164E-02  0.1300439E+00
        -11   -1    0    0    0    0  0.00000000000E+00  0.00000000000E+00  0.45593999997E+02  0.45594000000E+02  0.51100000000E-03 0. -1.
         11   -1    0    0    0    0 -0.00000000000E+00 -0.00000000000E+00 -0.45593999997E+02  0.45594000000E+02  0.51100000000E-03 0.  1.
    9900012    2    1    2    0    0  0.38169347930E+02  0.78021954906E+01  0.11635816678E+02  0.50528860737E+02  0.30000002695E+02 0.  0.
         12    1    1    2    0    0 -0.38169347930E+02 -0.78021954906E+01 -0.11635816678E+02  0.40659139263E+02  0.00000000000E+00 0. -1.
         11    1    3    3    0    0  0.25072159912E+02  0.28668545594E+01  0.64998149122E+01  0.26059156776E+02  0.51100000000E-03 0. -1.
        -11    1    3    3    0    0  0.15246024873E+02  0.63911484226E+01 -0.22101396293E+01  0.16678512225E+02  0.51100000000E-03 0.  1.
         12    1    3    3    0    0 -0.21488368546E+01 -0.14558074915E+01  0.73461413948E+01  0.77911917363E+01  0.00000000000E+00 0. -1.
</event>
<event>
 7    1  0.5843820E-012  0.5052886E+02  0.7816164E-02  0.1300439E+00
        -11   -1    0    0    0    0  0.00000000000E+00  0.00000000000E+00  0.45593999997E+02  0.45594000000E+02  0.51100000000E-03 0. -1.
         11   -1    0    0    0    0 -0.00000000000E+00 -0.00000000000E+00 -0.45593999997E+02  0.45594000000E+02  0.51100000000E-03 0.  1.
    9900012    2    1    2    0    0 -0.31896967879E+02  0.64741917901E+01  0.24368713026E+02  0.50528857194E+02  0.29999991926E+02 0.  0.
        -12    1    1    2    0    0  0.31896967879E+02 -0.64741917901E+01 -0.24368713026E+02  0.40659142806E+02  0.00000000000E+00 0.  1.
         11    1    3    3    0    0  0.30008041328E+01  0.23929872673E+00  0.27866586184E+00  0.30232009936E+01  0.51100000000E-03 0. -1.
        -11    1    3    3    0    0 -0.12655791421E+02  0.63951387378E+01  0.20573679066E+02  0.24986859077E+02  0.51100000000E-03 0.  1.
         12    1    3    3    0    0 -0.22241980591E+02 -0.16024567436E+00  0.35163680988E+01  0.22518797123E+02  0.00000000000E+00 0. -1.
</event>
<event>
 7    1  0.5843820E-012  0.5052887E+02  0.7816164E-02  0.1300439E+00
        -11   -1    0    0    0    0  0.00000000000E+00  0.00000000000E+00  0.45593999997E+02  0.45594000000E+02  0.51100000000E-03 0. -1.
         11   -1    0    0    0    0 -0.00000000000E+00 -0.00000000000E+00 -0.45593999997E+02  0.45594000000E+02  0.51100000000E-03 0.  1.
    9900012    2    1    2    0    0  0.32460982920E+02 -0.48859359542E+01  0.23991190867E+02  0.50528867921E+02  0.30000024531E+02 0.  0.
        -12    1    1    2    0    0 -0.32460982920E+02  0.48859359542E+01 -0.23991190867E+02  0.40659132079E+02  0.00000000000E+00 0.  1.
         11    1    3    3    0    0  0.18281652203E+02  0.36670604668E+01  0.13222789399E+02  0.22858440443E+02  0.51100000000E-03 0. -1.
        -11    1    3    3    0    0  0.58470462213E+01  0.10262550251E+01  0.13443285096E+02  0.14695681792E+02  0.51100000000E-03 0.  1.
        -12    1    3    3    0    0  0.83322844954E+01 -0.95792514460E+01 -0.26748836287E+01  0.12974745686E+02  0.00000000000E+00 0.  1.
</event>
<event>
 7    1  0.5843820E-012  0.5052886E+02  0.7816164E-02  0.1300439E+00
        -11   -1    0    0    0    0  0.00000000000E+00  0.00000000000E+00  0.45593999997E+02  0.45594000000E+02  0.51100000000E-03 0. -1.
         11   -1    0    0    0    0 -0.00000000000E+00 -0.00000000000E+00 -0.45593999997E+02  0.45594000000E+02  0.51100000000E-03 0.  1.
    9900012    2    1    2    0    0 -0.54269853487E+01 -0.11542771223E+02 -0.38606706758E+02  0.50528861492E+02  0.30000004992E+02 0.  0.
         12    1    1    2    0    0  0.54269853487E+01  0.11542771223E+02  0.38606706758E+02  0.40659138508E+02  0.00000000000E+00 0. -1.
         11    1    3    3    0    0 -0.41396357687E+01 -0.11570676171E+02 -0.26462368805E+02  0.29176601830E+02  0.51100000000E-03 0. -1.
        -11    1    3    3    0    0 -0.20572362140E+01 -0.33530820534E+01 -0.15818433717E+02  0.16300252317E+02  0.51100000000E-03 0.  1.
         12    1    3    3    0    0  0.76988663396E+00  0.33809870009E+01  0.36740957635E+01  0.50520073445E+01  0.00000000000E+00 0. -1.
</event>
<event>
 7    1  0.5843820E-012  0.5052889E+02  0.7816164E-02  0.1300439E+00
        -11   -1    0    0    0    0  0.00000000000E+00  0.00000000000E+00  0.45593999997E+02  0.45594000000E+02  0.51100000000E-03 0. -1.
         11   -1    0    0    0    0 -0.00000000000E+00 -0.00000000000E+00 -0.45593999997E+02  0.45594000000E+02  0.51100000000E-03 0.  1.
    9900012    2    1    2    0    0  0.17142240077E+02  0.38940594908E+01 -0.36662562129E+02  0.50528885941E+02  0.30000079306E+02 0.  0.
         12    1    1    2    0    0 -0.17142240077E+02 -0.38940594908E+01  0.36662562129E+02  0.40659114059E+02  0.00000000000E+00 0. -1.
         11    1    3    3    0    0  0.53530612192E-01 -0.38820538496E+01 -0.19894541968E+02  0.20269829995E+02  0.51100000000E-03 0. -1.
        -11    1    3    3    0    0  0.14753232614E+00 -0.15543144063E+01 -0.94533550004E+01  0.95814184799E+01  0.51100000000E-03 0.  1.
         12    1    3    3    0    0  0.16941177139E+02  0.93304277467E+01 -0.73146651606E+01  0.20677637467E+02  0.00000000000E+00 0. -1.
</event>
<event>
 7    1  0.5843820E-012  0.5052887E+02  0.7816164E-02  0.1300439E+00
        -11   -1    0    0    0    0  0.00000000000E+00  0.00000000000E+00  0.45593999997E+02  0.45594000000E+02  0.51100000000E-03 0. -1.
         11   -1    0    0    0    0 -0.00000000000E+00 -0.00000000000E+00 -0.45593999997E+02  0.45594000000E+02  0.51100000000E-03 0.  1.
    9900012    2    1    2    0    0 -0.27772749666E+01 -0.11642031956E+02  0.38857616711E+02  0.50528873832E+02  0.30000042500E+02 0.  0.
        -12    1    1    2    0    0  0.27772749666E+01  0.11642031956E+02 -0.38857616711E+02  0.40659126168E+02  0.00000000000E+00 0.  1.
         11    1    3    3    0    0  0.29570976835E+01 -0.15416537641E+02  0.15777763623E+02  0.22256502078E+02  0.51100000000E-03 0. -1.
        -11    1    3    3    0    0  0.37749572206E+01  0.45726098223E+01  0.13527997411E+02  0.14770435904E+02  0.51100000000E-03 0.  1.
        -12    1    3    3    0    0 -0.95093298708E+01 -0.79810413696E+00  0.95518556776E+01  0.13501935850E+02  0.00000000000E+00 0.  1.
</event>
<event>
 7    1  0.5843820E-012  0.5052886E+02  0.7816164E-02  0.1300439E+00
        -11   -1    0    0    0    0  0.00000000000E+00  0.00000000000E+00  0.45593999997E+02  0.45594000000E+02  0.51100000000E-03 0. -1.
         11   -1    0    0    0    0 -0.00000000000E+00 -0.00000000000E+00 -0.45593999997E+02  0.45594000000E+02  0.51100000000E-03 0.  1.
    9900012    2    1    2    0    0 -0.10978461811E+02  0.10775668239E+02  0.37636742032E+02  0.50528855881E+02  0.29999987935E+02 0.  0.
        -12    1    1    2    0    0  0.10978461811E+02 -0.10775668239E+02 -0.37636742032E+02  0.40659144119E+02  0.00000000000E+00 0.  1.
         11    1    3    3    0    0 -0.10877086274E+01 -0.60781440455E+01  0.16822716026E+02  0.17920120531E+02  0.51100000000E-03 0. -1.
        -11    1    3    3    0    0 -0.39147639006E+01 -0.25045476192E+01  0.23971969027E+01  0.52292148958E+01  0.51100000000E-03 0.  1.
         12    1    3    3    0    0 -0.59759892834E+01  0.19358359904E+02  0.18416829103E+02  0.27379520454E+02  0.00000000000E+00 0. -1.
</event>
<event>
 7    1  0.5843820E-012  0.5052890E+02  0.7816164E-02  0.1300439E+00
        -11   -1    0    0    0    0  0.00000000000E+00  0.00000000000E+00  0.45593999997E+02  0.45594000000E+02  0.51100000000E-03 0. -1.
         11   -1    0    0    0    0 -0.00000000000E+00 -0.00000000000E+00 -0.45593999997E+02  0.45594000000E+02  0.51100000000E-03 0.  1.
    9900012    2    1    2    0    0  0.11361342514E+02 -0.77047160361E+00 -0.39031894466E+02  0.50528898734E+02  0.30000118191E+02 0.  0.
         12    1    1    2    0    0 -0.11361342514E+02  0.77047160361E+00  0.39031894466E+02  0.40659101266E+02  0.00000000000E+00 0. -1.
         11    1    3    3    0    0  0.37297806970E+00 -0.62304111402E+01 -0.14031541647E+01  0.63973414391E+01  0.51100000000E-03 0. -1.
        -11    1    3    3    0    0  0.30294925545E+01 -0.72794600657E+01 -0.15436117603E+02  0.17333265443E+02  0.51100000000E-03 0.  1.
         12    1    3    3    0    0  0.79588718897E+01  0.12739399602E+02 -0.22192622698E+02  0.26798291852E+02  0.00000000000E+00 0. -1.
</event>
<event>
 7    1  0.5843820E-012  0.5052886E+02  0.7816164E-02  0.1300439E+00
        -11   -1    0    0    0    0  0.00000000000E+00  0.00000000000E+00  0.45593999997E+02  0.45594000000E+02  0.51100000000E-03 0. -1.
         11   -1    0    0    0    0 -0.00000000000E+00 -0.00000000000E+00 -0.45593999997E+02  0.45594000000E+02  0.51100000000E-03 0.  1.
    9900012    2    1    2    0    0 -0.48355529210E+01  0.31063849834E+02  0.25784115889E+02  0.50528856247E+02  0.29999989048E+02 0.  0.
        -12    1    1    2    0    0  0.48355529210E+01 -0.31063849834E+02 -0.25784115889E+02  0.40659143753E+02  0.00000000000E+00 0.  1.
         11    1    3    3    0    0 -0.52559089356E+01  0.50090622381E+01 -0.29836250802E+01  0.78496689182E+01  0.51100000000E-03 0. -1.
        -11    1    3    3    0    0  0.78378272370E+01  0.21342454230E+02  0.20494540191E+02  0.30609770764E+02  0.51100000000E-03 0.  1.
         12    1    3    3    0    0 -0.74174712224E+01  0.47123333657E+01  0.82732007788E+01  0.12069416565E+02  0.00000000000E+00 0. -1.
</event>
<event>
 7    1  0.5843820E-012  0.5052885E+02  0.7816164E-02  0.1300439E+00
        -11   -1    0    0    0    0  0.00000000000E+00  0.00000000000E+00  0.45593999997E+02  0.45594000000E+02  0.51100000000E-03 0. -1.
         11   -1    0    0    0    0 -0.00000000000E+00 -0.00000000000E+00 -0.45593999997E+02  0.45594000000E+02  0.51100000000E-03 0.  1.
    9900012    2    1    2    0    0  0.19406230011E+02  0.89892777742E+01  0.34579722932E+02  0.50528854458E+02  0.29999983611E+02 0.  0.
        -12    1    1    2    0    0 -0.19406230011E+02 -0.89892777742E+01 -0.34579722932E+02  0.40659145542E+02  0.00000000000E+00 0.  1.
         11    1    3    3    0    0 -0.16230119759E+01 -0.30390491405E+01  0.34163825231E+01  0.48519745834E+01  0.51100000000E-03 0. -1.
        -11    1    3    3    0    0 -0.41100320074E+01 -0.80669919835E+00  0.88210448833E+00  0.42803312124E+01  0.51100000000E-03 0.  1.
         12    1    3    3    0    0  0.25139273994E+02  0.12835026113E+02  0.30281235921E+02  0.41396548662E+02  0.00000000000E+00 0. -1.
</event>
<event>
 7    1  0.5843820E-012  0.5052894E+02  0.7816164E-02  0.1300438E+00
        -11   -1    0    0    0    0  0.00000000000E+00  0.00000000000E+00  0.45593999997E+02  0.45594000000E+02  0.51100000000E-03 0.  1.
         11   -1    0    0    0    0 -0.00000000000E+00 -0.00000000000E+00 -0.45593999997E+02  0.45594000000E+02  0.51100000000E-03 0. -1.
    9900012    2    1    2    0    0  0.33232532635E+02 -0.45455183949E+01 -0.22980338316E+02  0.50528943052E+02  0.30000252899E+02 0.  0.
         12    1    1    2    0    0 -0.33232532635E+02  0.45455183949E+01  0.22980338316E+02  0.40659056948E+02  0.00000000000E+00 0. -1.
         11    1    3    3    0    0 -0.36850348179E+01  0.27629709219E+01 -0.15213352297E+01  0.48505619331E+01  0.51100000000E-03 0. -1.
        -11    1    3    3    0    0  0.84120073687E+01 -0.80864709035E+01 -0.79858772004E+01  0.14139558500E+02  0.51100000000E-03 0.  1.
         12    1    3    3    0    0  0.28505560084E+02  0.77798158675E+00 -0.13473125886E+02  0.31538822619E+02  0.00000000000E+00 0. -1.
</event>
<event>
 7    1  0.5843820E-012  0.5052888E+02  0.7816164E-02  0.1300439E+00
        -11   -1    0    0    0    0  0.00000000000E+00  0.00000000000E+00  0.45593999997E+02  0.45594000000E+02  0.51100000000E-03 0. -1.
         11   -1    0    0    0    0 -0.00000000000E+00 -0.00000000000E+00 -0.45593999997E+02  0.45594000000E+02  0.51100000000E-03 0.  1.
    9900012    2    1    2    0    0  0.12779872729E+01  0.10316061706E+02  0.39307881130E+02  0.50528881717E+02  0.30000066467E+02 0.  0.
        -12    1    1    2    0    0 -0.12779872729E+01 -0.10316061706E+02 -0.39307881130E+02  0.40659118283E+02  0.00000000000E+00 0.  1.
         11    1    3    3    0    0  0.94561779358E+01 -0.24218296826E+01  0.19316008739E+01  0.99506603983E+01  0.51100000000E-03 0.  1.
        -11    1    3    3    0    0 -0.19278586666E+00  0.19019321824E-02  0.36315044554E+01  0.36366186050E+01  0.51100000000E-03 0. -1.
        -12    1    3    3    0    0 -0.79854047962E+01  0.12735989456E+02  0.33744775801E+02  0.36941602714E+02  0.00000000000E+00 0.  1.
</event>
<event>
 7    1  0.5843820E-012  0.5052886E+02  0.7816164E-02  0.1300439E+00
        -11   -1    0    0    0    0  0.00000000000E+00  0.00000000000E+00  0.45593999997E+02  0.45594000000E+02  0.51100000000E-03 0. -1.
         11   -1    0    0    0    0 -0.00000000000E+00 -0.00000000000E+00 -0.45593999997E+02  0.45594000000E+02  0.51100000000E-03 0.  1.
    9900012    2    1    2    0    0  0.96287040047E+01 -0.59696148427E+01  0.39048905766E+02  0.50528864696E+02  0.30000014730E+02 0.  0.
        -12    1    1    2    0    0 -0.96287040047E+01  0.59696148427E+01 -0.39048905766E+02  0.40659135304E+02  0.00000000000E+00 0.  1.
         11    1    3    3    0    0  0.15627670987E+02  0.41068224716E+00  0.17320941363E+02  0.23332547447E+02  0.51100000000E-03 0. -1.
        -11    1    3    3    0    0  0.13028722831E+01 -0.35024480084E+01 -0.36112086602E+00  0.37543343989E+01  0.51100000000E-03 0.  1.
         12    1    3    3    0    0 -0.73018392649E+01 -0.28778490815E+01  0.22089085268E+02  0.23441982851E+02  0.00000000000E+00 0. -1.
</event>
<event>
 7    1  0.5843820E-012  0.5052886E+02  0.7816164E-02  0.1300439E+00
        -11   -1    0    0    0    0  0.00000000000E+00  0.00000000000E+00  0.45593999997E+02  0.45594000000E+02  0.51100000000E-03 0. -1.
         11   -1    0    0    0    0 -0.00000000000E+00 -0.00000000000E+00 -0.45593999997E+02  0.45594000000E+02  0.51100000000E-03 0.  1.
    9900012    2    1    2    0    0  0.10919478122E+02  0.26348283352E+02 -0.28977558077E+02  0.50528856992E+02  0.29999991314E+02 0.  0.
         12    1    1    2    0    0 -0.10919478122E+02 -0.26348283352E+02  0.28977558077E+02  0.40659143008E+02  0.00000000000E+00 0. -1.
         11    1    3    3    0    0 -0.14520332222E+00 -0.43865138390E+00 -0.13421930884E+02  0.13429881904E+02  0.51100000000E-03 0. -1.
        -11    1    3    3    0    0 -0.35900855293E+01  0.55660022714E+01  0.62675461383E+00  0.66529630241E+01  0.51100000000E-03 0.  1.
        -12    1    3    3    0    0  0.14654766974E+02  0.21220932464E+02 -0.16182381807E+02  0.30446012064E+02  0.00000000000E+00 0.  1.
</event>
<event>
 7    1  0.5843820E-012  0.5052886E+02  0.7816164E-02  0.1300439E+00
        -11   -1    0    0    0    0  0.00000000000E+00  0.00000000000E+00  0.45593999997E+02  0.45594000000E+02  0.51100000000E-03 0. -1.
         11   -1    0    0    0    0 -0.00000000000E+00 -0.00000000000E+00 -0.45593999997E+02  0.45594000000E+02  0.51100000000E-03 0.  1.
    9900012    2    1    2    0    0  0.32101393628E+02 -0.87244945661E+00  0.24938017548E+02  0.50528863756E+02  0.30000011872E+02 0.  0.
        -12    1    1    2    0    0 -0.32101393628E+02  0.87244945661E+00 -0.24938017548E+02  0.40659136244E+02  0.00000000000E+00 0.  1.
         11    1    3    3    0    0  0.20276124843E+01  0.27111736744E+01  0.98087253158E+01  0.10376548928E+02  0.51100000000E-03 0. -1.
        -11    1    3    3    0    0 -0.24951253267E+01 -0.34616881353E+01  0.36628984438E+01  0.56236785481E+01  0.51100000000E-03 0.  1.
         12    1    3    3    0    0  0.32568906470E+02 -0.12193499577E+00  0.11466393789E+02  0.34528636279E+02  0.00000000000E+00 0. -1.
</event>
<event>
 7    1  0.5843820E-012  0.5052886E+02  0.7816164E-02  0.1300439E+00
        -11   -1    0    0    0    0  0.00000000000E+00  0.00000000000E+00  0.45593999997E+02  0.45594000000E+02  0.51100000000E-03 0. -1.
         11   -1    0    0    0    0 -0.00000000000E+00 -0.00000000000E+00 -0.45593999997E+02  0.45594000000E+02  0.51100000000E-03 0.  1.
    9900012    2    1    2    0    0  0.19769882864E+02  0.83285735875E+01  0.34539140174E+02  0.50528860678E+02  0.30000002517E+02 0.  0.
        -12    1    1    2    0    0 -0.19769882864E+02 -0.83285735875E+01 -0.34539140174E+02  0.40659139322E+02  0.00000000000E+00 0.  1.
         11    1    3    3    0    0  0.49333529643E+01  0.39781805557E+01  0.65476232663E+01  0.91123686659E+01  0.51100000000E-03 0.  1.
        -11    1    3    3    0    0  0.42786406590E+01  0.14251473182E+02  0.84935559665E+01  0.17133351889E+02  0.51100000000E-03 0. -1.
         12    1    3    3    0    0  0.10557889240E+02 -0.99010801502E+01  0.19497960941E+02  0.24283140123E+02  0.00000000000E+00 0. -1.
</event>
<event>
 7    1  0.5843820E-012  0.5052886E+02  0.7816164E-02  0.1300439E+00
        -11   -1    0    0    0    0  0.00000000000E+00  0.00000000000E+00  0.45593999997E+02  0.45594000000E+02  0.51100000000E-03 0. -1.
         11   -1    0    0    0    0 -0.00000000000E+00 -0.00000000000E+00 -0.45593999997E+02  0.45594000000E+02  0.51100000000E-03 0.  1.
    9900012    2    1    2    0    0 -0.19691730846E+02 -0.28353165968E+02  0.21482536002E+02  0.50528860348E+02  0.30000001515E+02 0.  0.
        -12    1    1    2    0    0  0.19691730846E+02  0.28353165968E+02 -0.21482536002E+02  0.40659139652E+02  0.00000000000E+00 0.  1.
         11    1    3    3    0    0 -0.24789975121E+01 -0.10298361701E+02  0.17334188520E+02  0.20314422815E+02  0.51100000000E-03 0. -1.
        -11    1    3    3    0    0 -0.66840647295E+01 -0.10215254200E+01  0.72920419426E+01  0.99445518474E+01  0.51100000000E-03 0.  1.
        -12    1    3    3    0    0 -0.10528668604E+02 -0.17033278847E+02 -0.31436944607E+01  0.20269885686E+02  0.00000000000E+00 0.  1.
</event>
<event>
 7    1  0.5843820E-012  0.5052885E+02  0.7816164E-02  0.1300439E+00
        -11   -1    0    0    0    0  0.00000000000E+00  0.00000000000E+00  0.45593999997E+02  0.45594000000E+02  0.51100000000E-03 0. -1.
         11   -1    0    0    0    0 -0.00000000000E+00 -0.00000000000E+00 -0.45593999997E+02  0.45594000000E+02  0.51100000000E-03 0.  1.
    9900012    2    1    2    0    0 -0.23859694533E+02  0.14915762682E+02 -0.29349645693E+02  0.50528847256E+02  0.29999961718E+02 0.  0.
         12    1    1    2    0    0  0.23859694533E+02 -0.14915762682E+02  0.29349645693E+02  0.40659152744E+02  0.00000000000E+00 0. -1.
         11    1    3    3    0    0  0.41484071369E+01  0.28620922533E+01 -0.23378358030E+01  0.55557475053E+01  0.51100000000E-03 0. -1.
        -11    1    3    3    0    0  0.91448206167E-03  0.26741619903E+01 -0.11109185876E+02  0.11426511028E+02  0.51100000000E-03 0.  1.
        -12    1    3    3    0    0 -0.28009016152E+02  0.93795084381E+01 -0.15902624013E+02  0.33546588722E+02  0.00000000000E+00 0.  1.
</event>
<event>
 7    1  0.5843820E-012  0.5052885E+02  0.7816164E-02  0.1300439E+00
        -11   -1    0    0    0    0  0.00000000000E+00  0.00000000000E+00  0.45593999997E+02  0.45594000000E+02  0.51100000000E-03 0. -1.
         11   -1    0    0    0    0 -0.00000000000E+00 -0.00000000000E+00 -0.45593999997E+02  0.45594000000E+02  0.51100000000E-03 0.  1.
    9900012    2    1    2    0    0  0.26416276087E+02 -0.21036371877E+02 -0.22645478656E+02  0.50528852351E+02  0.29999977205E+02 0.  0.
         12    1    1    2    0    0 -0.26416276087E+02  0.21036371877E+02  0.22645478656E+02  0.40659147649E+02  0.00000000000E+00 0. -1.
         11    1    3    3    0    0  0.44556278338E+01 -0.13163020225E+02 -0.10748791063E+02  0.17568558006E+02  0.51100000000E-03 0. -1.
        -11    1    3    3    0    0  0.23363908513E+02 -0.74086871670E+01 -0.15544748121E+02  0.29024128944E+02  0.51100000000E-03 0.  1.
         12    1    3    3    0    0 -0.14032602604E+01 -0.46466448413E+00  0.36480605280E+01  0.39361654001E+01  0.00000000000E+00 0. -1.
</event>
<event>
 7    1  0.5843820E-012  0.5052886E+02  0.7816164E-02  0.1300439E+00
        -11   -1    0    0    0    0  0.00000000000E+00  0.00000000000E+00  0.45593999997E+02  0.45594000000E+02  0.51100000000E-03 0. -1.
         11   -1    0    0    0    0 -0.00000000000E+00 -0.00000000000E+00 -0.45593999997E+02  0.45594000000E+02  0.51100000000E-03 0.  1.
    9900012    2    1    2    0    0 -0.65904424389E+01 -0.19442506458E+02  0.35095879836E+02  0.50528858711E+02  0.29999996537E+02 0.  0.
        -12    1    1    2    0    0  0.65904424389E+01  0.19442506458E+02 -0.35095879836E+02  0.40659141289E+02  0.00000000000E+00 0.  1.
         11    1    3    3    0    0 -0.22870425215E+01 -0.12078209664E+02  0.21076625712E+01  0.12472207261E+02  0.51100000000E-03 0. -1.
        -11    1    3    3    0    0 -0.10416391208E+02 -0.45705297154E+01  0.14799913765E+02  0.18666236776E+02  0.51100000000E-03 0.  1.
         12    1    3    3    0    0  0.61129912904E+01 -0.27937670782E+01  0.18188303501E+02  0.19390414674E+02  0.00000000000E+00 0. -1.
</event>
<event>
 7    1  0.5843820E-012  0.5052886E+02  0.7816164E-02  0.1300439E+00
        -11   -1    0    0    0    0  0.00000000000E+00  0.00000000000E+00  0.45593999997E+02  0.45594000000E+02  0.51100000000E-03 0.  1.
         11   -1    0    0    0    0 -0.00000000000E+00 -0.00000000000E+00 -0.45593999997E+02  0.45594000000E+02  0.51100000000E-03 0. -1.
    9900012    2    1    2    0    0  0.92949024076E-01 -0.40658929507E+02 -0.91021046340E-01  0.50528862368E+02  0.30000007653E+02 0.  0.
         12    1    1    2    0    0 -0.92949024076E-01  0.40658929507E+02  0.91021046340E-01  0.40659137632E+02  0.00000000000E+00 0. -1.
         11    1    3    3    0    0  0.40712175728E+01 -0.66074103730E+01  0.11994003633E+01  0.78531042177E+01  0.51100000000E-03 0. -1.
        -11    1    3    3    0    0 -0.19569881732E+01 -0.31062903470E+02  0.84811976822E+01  0.32259331814E+02  0.51100000000E-03 0.  1.
         12    1    3    3    0    0 -0.20212803755E+01 -0.29886156639E+01 -0.97716190918E+01  0.10416426336E+02  0.00000000000E+00 0. -1.
</event>
<event>
 7    1  0.5843820E-012  0.5052886E+02  0.7816164E-02  0.1300439E+00
        -11   -1    0    0    0    0  0.00000000000E+00  0.00000000000E+00  0.45593999997E+02  0.45594000000E+02  0.51100000000E-03 0. -1.
         11   -1    0    0    0    0 -0.00000000000E+00 -0.00000000000E+00 -0.45593999997E+02  0.45594000000E+02  0.51100000000E-03 0.  1.
    9900012    2    1    2    0    0 -0.19772608450E+02  0.28664381228E+02 -0.20989594695E+02  0.50528857344E+02  0.29999992382E+02 0.  0.
         12    1    1    2    0    0  0.19772608450E+02 -0.28664381228E+02  0.20989594695E+02  0.40659142656E+02  0.00000000000E+00 0. -1.
         11    1    3    3    0    0 -0.81753186751E+01  0.55456437172E+01 -0.46556297195E+01  0.10920846488E+02  0.51100000000E-03 0. -1.
        -11    1    3    3    0    0 -0.10352682820E+02  0.26265812564E+02 -0.61745604037E+01  0.28899760340E+02  0.51100000000E-03 0.  1.
         12    1    3    3    0    0 -0.12446069543E+01 -0.31470750536E+01 -0.10159404571E+02  0.10708250516E+02  0.00000000000E+00 0. -1.
</event>
<event>
 7    1  0.5843820E-012  0.5052886E+02  0.7816164E-02  0.1300439E+00
        -11   -1    0    0    0    0  0.00000000000E+00  0.00000000000E+00  0.45593999997E+02  0.45594000000E+02  0.51100000000E-03 0. -1.
         11   -1    0    0    0    0 -0.00000000000E+00 -0.00000000000E+00 -0.45593999997E+02  0.45594000000E+02  0.51100000000E-03 0.  1.
    9900012    2    1    2    0    0  0.21831321430E+02 -0.17594344504E+02 -0.29444826230E+02  0.50528863934E+02  0.30000012414E+02 0.  0.
         12    1    1    2    0    0 -0.21831321430E+02  0.17594344504E+02  0.29444826230E+02  0.40659136066E+02  0.00000000000E+00 0. -1.
         11    1    3    3    0    0 -0.70192878539E+00 -0.12976850127E+02 -0.16974693397E+01  0.13106210194E+02  0.51100000000E-03 0. -1.
        -11    1    3    3    0    0  0.41757087246E+01 -0.99146171165E+00 -0.12716184763E+02  0.13420912594E+02  0.51100000000E-03 0.  1.
        -12    1    3    3    0    0  0.18357541491E+02 -0.36260326658E+01 -0.15031172127E+02  0.24001741145E+02  0.00000000000E+00 0.  1.
</event>
<event>
 7    1  0.5843820E-012  0.5052885E+02  0.7816164E-02  0.1300439E+00
        -11   -1    0    0    0    0  0.00000000000E+00  0.00000000000E+00  0.45593999997E+02  0.45594000000E+02  0.51100000000E-03 0. -1.
         11   -1    0    0    0    0 -0.00000000000E+00 -0.00000000000E+00 -0.45593999997E+02  0.45594000000E+02  0.51100000000E-03 0.  1.
    9900012    2    1    2    0    0 -0.27701008541E+02 -0.94343137112E+01  0.28227894663E+02  0.50528853594E+02  0.29999980984E+02 0.  0.
        -12    1    1    2    0    0  0.27701008541E+02  0.94343137112E+01 -0.28227894663E+02  0.40659146406E+02  0.00000000000E+00 0.  1.
         11    1    3    3    0    0 -0.23653014414E+02 -0.98695604087E+01  0.22963658534E+02  0.34412249666E+02  0.51100000000E-03 0. -1.
        -11    1    3    3    0    0 -0.31146587862E+01  0.72141722720E+01  0.49075942368E+01  0.92644407483E+01  0.51100000000E-03 0.  1.
        -12    1    3    3    0    0 -0.93333534057E+00 -0.67789255745E+01  0.35664189209E+00  0.68521631797E+01  0.00000000000E+00 0.  1.
</event>
<event>
 7    1  0.5843820E-012  0.5052886E+02  0.7816164E-02  0.1300439E+00
        -11   -1    0    0    0    0  0.00000000000E+00  0.00000000000E+00  0.45593999997E+02  0.45594000000E+02  0.51100000000E-03 0. -1.
         11   -1    0    0    0    0 -0.00000000000E+00 -0.00000000000E+00 -0.45593999997E+02  0.45594000000E+02  0.51100000000E-03 0.  1.
    9900012    2    1    2    0    0 -0.21542197497E+02 -0.12353425456E+02  0.32194599944E+02  0.50528860080E+02  0.30000000698E+02 0.  0.
        -12    1    1    2    0    0  0.21542197497E+02  0.12353425456E+02 -0.32194599944E+02  0.40659139920E+02  0.00000000000E+00 0.  1.
         11    1    3    3    0    0 -0.16958974132E+02 -0.18607232087E+02  0.24926782221E+02  0.35428524690E+02  0.51100000000E-03 0. -1.
        -11    1    3    3    0    0 -0.45439320120E+01 -0.72083389054E+00  0.66661802160E+01  0.80996838556E+01  0.51100000000E-03 0.  1.
        -12    1    3    3    0    0 -0.39291352842E-01  0.69746405215E+01  0.60163750736E+00  0.70006515343E+01  0.00000000000E+00 0.  1.
</event>
<event>
 7    1  0.5843820E-012  0.5052886E+02  0.7816164E-02  0.1300439E+00
        -11   -1    0    0    0    0  0.00000000000E+00  0.00000000000E+00  0.45593999997E+02  0.45594000000E+02  0.51100000000E-03 0. -1.
         11   -1    0    0    0    0 -0.00000000000E+00 -0.00000000000E+00 -0.45593999997E+02  0.45594000000E+02  0.51100000000E-03 0.  1.
    9900012    2    1    2    0    0  0.89728372345E+01 -0.26586102460E+02  0.29425038420E+02  0.50528861568E+02  0.30000005221E+02 0.  0.
        -12    1    1    2    0    0 -0.89728372345E+01  0.26586102460E+02 -0.29425038420E+02  0.40659138432E+02  0.00000000000E+00 0.  1.
         11    1    3    3    0    0 -0.18480078266E+00 -0.24173376124E+02  0.15432172928E+02  0.28679927234E+02  0.51100000000E-03 0. -1.
        -11    1    3    3    0    0  0.44831427794E+00 -0.65370854972E+01  0.29304459747E+01  0.71778817461E+01  0.51100000000E-03 0.  1.
        -12    1    3    3    0    0  0.87093237392E+01  0.41243591610E+01  0.11062419516E+02  0.14671052588E+02  0.00000000000E+00 0.  1.
</event>
<event>
 7    1  0.5843820E-012  0.5052890E+02  0.7816164E-02  0.1300439E+00
        -11   -1    0    0    0    0  0.00000000000E+00  0.00000000000E+00  0.45593999997E+02  0.45594000000E+02  0.51100000000E-03 0. -1.
         11   -1    0    0    0    0 -0.00000000000E+00 -0.00000000000E+00 -0.45593999997E+02  0.45594000000E+02  0.51100000000E-03 0.  1.
    9900012    2    1    2    0    0  0.13932325095E+02  0.26505639012E+02 -0.27504607809E+02  0.50528904674E+02  0.30000136246E+02 0.  0.
         12    1    1    2    0    0 -0.13932325095E+02 -0.26505639012E+02  0.27504607809E+02  0.40659095326E+02  0.00000000000E+00 0. -1.
         11    1    3    3    0    0 -0.13582583979E+01  0.11122081397E+02 -0.52909434701E+01  0.12391111473E+02  0.51100000000E-03 0. -1.
        -11    1    3    3    0    0 -0.22530357595E+01  0.12815437117E+02 -0.70032166031E+01  0.14776895536E+02  0.51100000000E-03 0.  1.
        -12    1    3    3    0    0  0.17543619252E+02  0.25681204981E+01 -0.15210447736E+02  0.23360897665E+02  0.00000000000E+00 0.  1.
</event>
<event>
 7    1  0.5843820E-012  0.5052886E+02  0.7816164E-02  0.1300439E+00
        -11   -1    0    0    0    0  0.00000000000E+00  0.00000000000E+00  0.45593999997E+02  0.45594000000E+02  0.51100000000E-03 0.  1.
         11   -1    0    0    0    0 -0.00000000000E+00 -0.00000000000E+00 -0.45593999997E+02  0.45594000000E+02  0.51100000000E-03 0. -1.
    9900012    2    1    2    0    0  0.36128152796E+02 -0.14751233494E+02 -0.11415917923E+02  0.50528862084E+02  0.30000006791E+02 0.  0.
         12    1    1    2    0    0 -0.36128152796E+02  0.14751233494E+02  0.11415917923E+02  0.40659137916E+02  0.00000000000E+00 0. -1.
         11    1    3    3    0    0  0.33301261251E+01  0.14104191964E+01  0.12970972072E+01  0.38420676393E+01  0.51100000000E-03 0. -1.
        -11    1    3    3    0    0  0.27939998551E+02 -0.70939025412E+01  0.18171308347E+01  0.28883714045E+02  0.51100000000E-03 0.  1.
         12    1    3    3    0    0  0.48580281200E+01 -0.90677501488E+01 -0.14530145965E+02  0.17803080400E+02  0.00000000000E+00 0. -1.
</event>
<event>
 7    1  0.5843820E-012  0.5052887E+02  0.7816164E-02  0.1300439E+00
        -11   -1    0    0    0    0  0.00000000000E+00  0.00000000000E+00  0.45593999997E+02  0.45594000000E+02  0.51100000000E-03 0. -1.
         11   -1    0    0    0    0 -0.00000000000E+00 -0.00000000000E+00 -0.45593999997E+02  0.45594000000E+02  0.51100000000E-03 0.  1.
    9900012    2    1    2    0    0  0.12401667909E+02  0.38025242719E+02 -0.73105941974E+01  0.50528865254E+02  0.30000016427E+02 0.  0.
        -12    1    1    2    0    0 -0.12401667909E+02 -0.38025242719E+02  0.73105941974E+01  0.40659134746E+02  0.00000000000E+00 0.  1.
         11    1    3    3    0    0  0.83654526609E+01  0.62432104646E+01 -0.24337900763E+01  0.10718293219E+02  0.51100000000E-03 0. -1.
        -11    1    3    3    0    0  0.73832113306E+01  0.67164246165E+01  0.66765698936E+01  0.12008278602E+02  0.51100000000E-03 0.  1.
         12    1    3    3    0    0 -0.33469960824E+01  0.25065607638E+02 -0.11553374015E+02  0.27802293433E+02  0.00000000000E+00 0. -1.
</event>
<event>
 7    1  0.5843820E-012  0.5052888E+02  0.7816164E-02  0.1300439E+00
        -11   -1    0    0    0    0  0.00000000000E+00  0.00000000000E+00  0.45593999997E+02  0.45594000000E+02  0.51100000000E-03 0. -1.
         11   -1    0    0    0    0 -0.00000000000E+00 -0.00000000000E+00 -0.45593999997E+02  0.45594000000E+02  0.51100000000E-03 0.  1.
    9900012    2    1    2    0    0  0.23715119917E+02  0.73384689490E+01 -0.32200988969E+02  0.50528883805E+02  0.30000072814E+02 0.  0.
         12    1    1    2    0    0 -0.23715119917E+02 -0.73384689490E+01  0.32200988969E+02  0.40659116195E+02  0.00000000000E+00 0. -1.
         11    1    3    3    0    0  0.18761885956E+02  0.13447777991E+02 -0.22010391313E+02  0.31895272745E+02  0.51100000000E-03 0. -1.
        -11    1    3    3    0    0  0.66034548946E+01  0.71775081762E+00 -0.94780892482E+01  0.11573891257E+02  0.51100000000E-03 0.  1.
         12    1    3    3    0    0 -0.16502209340E+01 -0.68270598594E+01 -0.71250840808E+00  0.70597198023E+01  0.00000000000E+00 0. -1.
</event>
<event>
 7    1  0.5843820E-012  0.5052886E+02  0.7816164E-02  0.1300439E+00
        -11   -1    0    0    0    0  0.00000000000E+00  0.00000000000E+00  0.45593999997E+02  0.45594000000E+02  0.51100000000E-03 0. -1.
         11   -1    0    0    0    0 -0.00000000000E+00 -0.00000000000E+00 -0.45593999997E+02  0.45594000000E+02  0.51100000000E-03 0.  1.
    9900012    2    1    2    0    0 -0.25679761352E+01  0.13918233941E+02 -0.38116318801E+02  0.50528862080E+02  0.30000006779E+02 0.  0.
         12    1    1    2    0    0  0.25679761352E+01 -0.13918233941E+02  0.38116318801E+02  0.40659137920E+02  0.00000000000E+00 0. -1.
         11    1    3    3    0    0 -0.59597519661E+00 -0.33759744652E+01 -0.92883921233E+01  0.99008392837E+01  0.51100000000E-03 0. -1.
        -11    1    3    3    0    0 -0.11948094145E+02  0.11234969192E+02 -0.20676925322E+02  0.26391603352E+02  0.51100000000E-03 0.  1.
         12    1    3    3    0    0  0.99760932060E+01  0.60592392150E+01 -0.81510013548E+01  0.14236419445E+02  0.00000000000E+00 0. -1.
</event>
<event>
 7    1  0.5843820E-012  0.5052886E+02  0.7816164E-02  0.1300439E+00
        -11   -1    0    0    0    0  0.00000000000E+00  0.00000000000E+00  0.45593999997E+02  0.45594000000E+02  0.51100000000E-03 0. -1.
         11   -1    0    0    0    0 -0.00000000000E+00 -0.00000000000E+00 -0.45593999997E+02  0.45594000000E+02  0.51100000000E-03 0.  1.
    9900012    2    1    2    0    0 -0.16305137993E+02 -0.16139194414E+02  0.33568354060E+02  0.50528861844E+02  0.30000006061E+02 0.  0.
        -12    1    1    2    0    0  0.16305137993E+02  0.16139194414E+02 -0.33568354060E+02  0.40659138156E+02  0.00000000000E+00 0.  1.
         11    1    3    3    0    0 -0.24662594108E+01 -0.11878753027E+02  0.29540129781E+02  0.31934408977E+02  0.51100000000E-03 0. -1.
        -11    1    3    3    0    0 -0.45408679439E+01 -0.17403502885E+01  0.69906957205E+01  0.85157576133E+01  0.51100000000E-03 0.  1.
        -12    1    3    3    0    0 -0.92980106387E+01 -0.25200910983E+01 -0.29624714415E+01  0.10078695254E+02  0.00000000000E+00 0.  1.
</event>
<event>
 7    1  0.5843820E-012  0.5052886E+02  0.7816164E-02  0.1300439E+00
        -11   -1    0    0    0    0  0.00000000000E+00  0.00000000000E+00  0.45593999997E+02  0.45594000000E+02  0.51100000000E-03 0. -1.
         11   -1    0    0    0    0 -0.00000000000E+00 -0.00000000000E+00 -0.45593999997E+02  0.45594000000E+02  0.51100000000E-03 0.  1.
    9900012    2    1    2    0    0 -0.28930176074E+01 -0.33922062879E+02  0.22228122050E+02  0.50528864364E+02  0.30000013721E+02 0.  0.
        -12    1    1    2    0    0  0.28930176074E+01  0.33922062879E+02 -0.22228122050E+02  0.40659135636E+02  0.00000000000E+00 0.  1.
         11    1    3    3    0    0  0.14682063954E+00 -0.83101682083E+01  0.66750395803E+01  0.10660047167E+02  0.51100000000E-03 0. -1.
        -11    1    3    3    0    0 -0.61361814410E+01 -0.18326593518E+02  0.22270238767E+02  0.29486951142E+02  0.51100000000E-03 0.  1.
        -12    1    3    3    0    0  0.30963431940E+01 -0.72853011526E+01 -0.67171562974E+01  0.10381866055E+02  0.00000000000E+00 0.  1.
</event>
<event>
 7    1  0.5843820E-012  0.5052888E+02  0.7816164E-02  0.1300439E+00
        -11   -1    0    0    0    0  0.00000000000E+00  0.00000000000E+00  0.45593999997E+02  0.45594000000E+02  0.51100000000E-03 0. -1.
         11   -1    0    0    0    0 -0.00000000000E+00 -0.00000000000E+00 -0.45593999997E+02  0.45594000000E+02  0.51100000000E-03 0.  1.
    9900012    2    1    2    0    0  0.13428422500E+02  0.13294299252E+02 -0.36001434062E+02  0.50528878294E+02  0.30000056061E+02 0.  0.
         12    1    1    2    0    0 -0.13428422500E+02 -0.13294299252E+02  0.36001434062E+02  0.40659121706E+02  0.00000000000E+00 0. -1.
         11    1    3    3    0    0  0.30529106697E+01  0.97059431748E+01 -0.63457417862E+01  0.11991415077E+02  0.51100000000E-03 0. -1.
        -11    1    3    3    0    0 -0.23860401582E+01  0.39936035959E+01 -0.24216332076E+02  0.24659132118E+02  0.51100000000E-03 0.  1.
         12    1    3    3    0    0  0.12761551989E+02 -0.40524751915E+00 -0.54393601994E+01  0.13878331099E+02  0.00000000000E+00 0. -1.
</event>
<event>
 7    1  0.5843820E-012  0.5052886E+02  0.7816164E-02  0.1300439E+00
        -11   -1    0    0    0    0  0.00000000000E+00  0.00000000000E+00  0.45593999997E+02  0.45594000000E+02  0.51100000000E-03 0. -1.
         11   -1    0    0    0    0 -0.00000000000E+00 -0.00000000000E+00 -0.45593999997E+02  0.45594000000E+02  0.51100000000E-03 0.  1.
    9900012    2    1    2    0    0 -0.10503195811E+02  0.25538847285E+02 -0.29843184931E+02  0.50528861670E+02  0.30000005533E+02 0.  0.
         12    1    1    2    0    0  0.10503195811E+02 -0.25538847285E+02  0.29843184931E+02  0.40659138330E+02  0.00000000000E+00 0. -1.
         11    1    3    3    0    0 -0.31752264756E+01  0.12404435675E+02 -0.17671683307E+02  0.21822934696E+02  0.51100000000E-03 0. -1.
        -11    1    3    3    0    0 -0.85847233800E+01  0.18291456776E+02 -0.11767363248E+02  0.23382594052E+02  0.51100000000E-03 0.  1.
         12    1    3    3    0    0  0.12567540450E+01 -0.51570451660E+01 -0.40413837549E+00  0.53233329222E+01  0.00000000000E+00 0. -1.
</event>
<event>
 7    1  0.5843820E-012  0.5052886E+02  0.7816164E-02  0.1300439E+00
        -11   -1    0    0    0    0  0.00000000000E+00  0.00000000000E+00  0.45593999997E+02  0.45594000000E+02  0.51100000000E-03 0.  1.
         11   -1    0    0    0    0 -0.00000000000E+00 -0.00000000000E+00 -0.45593999997E+02  0.45594000000E+02  0.51100000000E-03 0. -1.
    9900012    2    1    2    0    0 -0.14050604062E+01  0.40320302909E+02  0.50462186829E+01  0.50528863949E+02  0.30000012459E+02 0.  0.
         12    1    1    2    0    0  0.14050604062E+01 -0.40320302909E+02 -0.50462186829E+01  0.40659136051E+02  0.00000000000E+00 0. -1.
         11    1    3    3    0    0 -0.10306259895E+02  0.17281223795E+02  0.11601905924E+02  0.23226362397E+02  0.51100000000E-03 0. -1.
        -11    1    3    3    0    0  0.17022734368E+01  0.36764286223E+01  0.24854402004E+01  0.47530280369E+01  0.51100000000E-03 0.  1.
         12    1    3    3    0    0  0.71989260524E+01  0.19362650492E+02 -0.90411274416E+01  0.22549473515E+02  0.00000000000E+00 0. -1.
</event>
<event>
 7    1  0.5843820E-012  0.5052888E+02  0.7816164E-02  0.1300439E+00
        -11   -1    0    0    0    0  0.00000000000E+00  0.00000000000E+00  0.45593999997E+02  0.45594000000E+02  0.51100000000E-03 0. -1.
         11   -1    0    0    0    0 -0.00000000000E+00 -0.00000000000E+00 -0.45593999997E+02  0.45594000000E+02  0.51100000000E-03 0.  1.
    9900012    2    1    2    0    0  0.29390239740E+02  0.15127654182E+02 -0.23675559182E+02  0.50528877831E+02  0.30000054654E+02 0.  0.
         12    1    1    2    0    0 -0.29390239740E+02 -0.15127654182E+02  0.23675559182E+02  0.40659122169E+02  0.00000000000E+00 0. -1.
         11    1    3    3    0    0  0.37156300052E+01  0.11249905370E+02 -0.16902591441E+02  0.20641314756E+02  0.51100000000E-03 0.  1.
        -11    1    3    3    0    0  0.62287923328E+01  0.69700705793E+01 -0.31691824009E+01  0.98703320692E+01  0.51100000000E-03 0. -1.
        -12    1    3    3    0    0  0.19445817402E+02 -0.30923217670E+01 -0.36037853395E+01  0.20017231005E+02  0.00000000000E+00 0.  1.
</event>
<event>
 7    1  0.5843820E-012  0.5052886E+02  0.7816164E-02  0.1300439E+00
        -11   -1    0    0    0    0  0.00000000000E+00  0.00000000000E+00  0.45593999997E+02  0.45594000000E+02  0.51100000000E-03 0. -1.
         11   -1    0    0    0    0 -0.00000000000E+00 -0.00000000000E+00 -0.45593999997E+02  0.45594000000E+02  0.51100000000E-03 0.  1.
    9900012    2    1    2    0    0  0.15774466567E+02 -0.25390165960E+02  0.27562131299E+02  0.50528863208E+02  0.30000010206E+02 0.  0.
        -12    1    1    2    0    0 -0.15774466567E+02  0.25390165960E+02 -0.27562131299E+02  0.40659136792E+02  0.00000000000E+00 0.  1.
         11    1    3    3    0    0  0.85027291004E+01 -0.35662885902E+01  0.18393472819E+02  0.20575098033E+02  0.51100000000E-03 0. -1.
        -11    1    3    3    0    0 -0.29570980246E+01  0.13491312473E+00 -0.16882593387E+01  0.34077632157E+01  0.51100000000E-03 0.  1.
        -12    1    3    3    0    0  0.10228835492E+02 -0.21958790494E+02  0.10856917819E+02  0.26546001959E+02  0.00000000000E+00 0.  1.
</event>
<event>
 7    1  0.5843820E-012  0.5052885E+02  0.7816164E-02  0.1300439E+00
        -11   -1    0    0    0    0  0.00000000000E+00  0.00000000000E+00  0.45593999997E+02  0.45594000000E+02  0.51100000000E-03 0. -1.
         11   -1    0    0    0    0 -0.00000000000E+00 -0.00000000000E+00 -0.45593999997E+02  0.45594000000E+02  0.51100000000E-03 0.  1.
    9900012    2    1    2    0    0 -0.29752048898E+02  0.31539999171E+01 -0.27532422317E+02  0.50528850872E+02  0.29999972711E+02 0.  0.
         12    1    1    2    0    0  0.29752048898E+02 -0.31539999171E+01  0.27532422317E+02  0.40659149128E+02  0.00000000000E+00 0. -1.
         11    1    3    3    0    0  0.44611425986E+01  0.20706991637E+01 -0.33629873920E+01  0.59581266159E+01  0.51100000000E-03 0. -1.
        -11    1    3    3    0    0 -0.19626439283E+01  0.36893567957E+01 -0.64370422542E+01  0.76745578374E+01  0.51100000000E-03 0.  1.
         12    1    3    3    0    0 -0.32250547569E+02 -0.26060560423E+01 -0.17732392671E+02  0.36896166419E+02  0.00000000000E+00 0. -1.
</event>
<event>
 7    1  0.5843820E-012  0.5052887E+02  0.7816164E-02  0.1300439E+00
        -11   -1    0    0    0    0  0.00000000000E+00  0.00000000000E+00  0.45593999997E+02  0.45594000000E+02  0.51100000000E-03 0. -1.
         11   -1    0    0    0    0 -0.00000000000E+00 -0.00000000000E+00 -0.45593999997E+02  0.45594000000E+02  0.51100000000E-03 0.  1.
    9900012    2    1    2    0    0 -0.61915216570E+01 -0.16398152228E+02  0.36686920882E+02  0.50528874324E+02  0.30000043996E+02 0.  0.
        -12    1    1    2    0    0  0.61915216570E+01  0.16398152228E+02 -0.36686920882E+02  0.40659125676E+02  0.00000000000E+00 0.  1.
         11    1    3    3    0    0 -0.28822162574E+01 -0.16275675096E+02  0.12946691192E+02  0.20995751558E+02  0.51100000000E-03 0. -1.
        -11    1    3    3    0    0 -0.54461425653E+01 -0.77327095161E+01  0.10669332372E+02  0.14257977375E+02  0.51100000000E-03 0.  1.
        -12    1    3    3    0    0  0.21368371658E+01  0.76102323848E+01  0.13070897318E+02  0.15275145392E+02  0.00000000000E+00 0.  1.
</event>
<event>
 7    1  0.5843820E-012  0.5052886E+02  0.7816164E-02  0.1300439E+00
        -11   -1    0    0    0    0  0.00000000000E+00  0.00000000000E+00  0.45593999997E+02  0.45594000000E+02  0.51100000000E-03 0. -1.
         11   -1    0    0    0    0 -0.00000000000E+00 -0.00000000000E+00 -0.45593999997E+02  0.45594000000E+02  0.51100000000E-03 0.  1.
    9900012    2    1    2    0    0  0.73181317082E+01  0.28470723958E+02 -0.28089651634E+02  0.50528859535E+02  0.29999999043E+02 0.  0.
         12    1    1    2    0    0 -0.73181317082E+01 -0.28470723958E+02  0.28089651634E+02  0.40659140465E+02  0.00000000000E+00 0. -1.
         11    1    3    3    0    0 -0.88692166089E-01 -0.42293162991E+01 -0.75956866019E+01  0.86942186465E+01  0.51100000000E-03 0. -1.
        -11    1    3    3    0    0  0.10491034440E+02  0.14528974119E+02 -0.11794554850E+02  0.21453773956E+02  0.51100000000E-03 0.  1.
        -12    1    3    3    0    0 -0.30842105656E+01  0.18171066139E+02 -0.86994101816E+01  0.20380866933E+02  0.00000000000E+00 0.  1.
</event>
<event>
 7    1  0.5843820E-012  0.5052885E+02  0.7816164E-02  0.1300439E+00
        -11   -1    0    0    0    0  0.00000000000E+00  0.00000000000E+00  0.45593999997E+02  0.45594000000E+02  0.51100000000E-03 0. -1.
         11   -1    0    0    0    0 -0.00000000000E+00 -0.00000000000E+00 -0.45593999997E+02  0.45594000000E+02  0.51100000000E-03 0.  1.
    9900012    2    1    2    0    0  0.96125208532E+01 -0.22508024517E+02  0.32467750596E+02  0.50528849079E+02  0.29999967261E+02 0.  0.
        -12    1    1    2    0    0 -0.96125208532E+01  0.22508024517E+02 -0.32467750596E+02  0.40659150921E+02  0.00000000000E+00 0.  1.
         11    1    3    3    0    0  0.17659677417E+02 -0.10522385518E+02  0.14616875549E+02  0.25223755758E+02  0.51100000000E-03 0. -1.
        -11    1    3    3    0    0  0.77967105271E+00 -0.46364134526E+01  0.83435900350E+00  0.47749734933E+01  0.51100000000E-03 0.  1.
         12    1    3    3    0    0 -0.88268276161E+01 -0.73492255466E+01  0.17016516044E+02  0.20530119828E+02  0.00000000000E+00 0. -1.
</event>
<event>
 7    1  0.5843820E-012  0.5052886E+02  0.7816164E-02  0.1300439E+00
        -11   -1    0    0    0    0  0.00000000000E+00  0.00000000000E+00  0.45593999997E+02  0.45594000000E+02  0.51100000000E-03 0. -1.
         11   -1    0    0    0    0 -0.00000000000E+00 -0.00000000000E+00 -0.45593999997E+02  0.45594000000E+02  0.51100000000E-03 0.  1.
    9900012    2    1    2    0    0  0.67158838701E+01 -0.49423738745E+00 -0.40097611030E+02  0.50528858628E+02  0.29999996287E+02 0.  0.
         12    1    1    2    0    0 -0.67158838701E+01  0.49423738745E+00  0.40097611030E+02  0.40659141372E+02  0.00000000000E+00 0. -1.
         11    1    3    3    0    0 -0.50271079670E+01 -0.88515263156E+01 -0.16196084443E+02  0.19129414109E+02  0.51100000000E-03 0. -1.
        -11    1    3    3    0    0  0.32538834035E+01 -0.37679757145E+01 -0.30843447818E+01  0.58564990552E+01  0.51100000000E-03 0.  1.
         12    1    3    3    0    0  0.84891084336E+01  0.12125264643E+02 -0.20817181806E+02  0.25542945464E+02  0.00000000000E+00 0. -1.
</event>
<event>
 7    1  0.5843820E-012  0.5052886E+02  0.7816164E-02  0.1300439E+00
        -11   -1    0    0    0    0  0.00000000000E+00  0.00000000000E+00  0.45593999997E+02  0.45594000000E+02  0.51100000000E-03 0. -1.
         11   -1    0    0    0    0 -0.00000000000E+00 -0.00000000000E+00 -0.45593999997E+02  0.45594000000E+02  0.51100000000E-03 0.  1.
    9900012    2    1    2    0    0 -0.72146463437E+01 -0.17500595707E+02 -0.35983933727E+02  0.50528862547E+02  0.30000008198E+02 0.  0.
         12    1    1    2    0    0  0.72146463437E+01  0.17500595707E+02  0.35983933727E+02  0.40659137453E+02  0.00000000000E+00 0. -1.
         11    1    3    3    0    0  0.34538161555E+01 -0.35739671016E+01  0.13948526327E+01  0.51621411263E+01  0.51100000000E-03 0. -1.
        -11    1    3    3    0    0 -0.18305562255E+01 -0.15279221381E+02 -0.16027602286E+02  0.22219126387E+02  0.51100000000E-03 0.  1.
         12    1    3    3    0    0 -0.88379062737E+01  0.13525927757E+01 -0.21351184073E+02  0.23147595034E+02  0.00000000000E+00 0. -1.
</event>
<event>
 7    1  0.5843820E-012  0.5052886E+02  0.7816164E-02  0.1300439E+00
        -11   -1    0    0    0    0  0.00000000000E+00  0.00000000000E+00  0.45593999997E+02  0.45594000000E+02  0.51100000000E-03 0. -1.
         11   -1    0    0    0    0 -0.00000000000E+00 -0.00000000000E+00 -0.45593999997E+02  0.45594000000E+02  0.51100000000E-03 0.  1.
    9900012    2    1    2    0    0 -0.68860558973E+01 -0.35144739304E+02 -0.19250856823E+02  0.50528856441E+02  0.29999989637E+02 0.  0.
         12    1    1    2    0    0  0.68860558973E+01  0.35144739304E+02  0.19250856823E+02  0.40659143559E+02  0.00000000000E+00 0. -1.
         11    1    3    3    0    0  0.54564160765E+00 -0.11326607851E+02 -0.43745568359E+01  0.12154279820E+02  0.51100000000E-03 0. -1.
        -11    1    3    3    0    0 -0.90712374720E+01 -0.24328049782E+02 -0.20126053398E+02  0.32851170163E+02  0.51100000000E-03 0.  1.
         12    1    3    3    0    0  0.16395399670E+01  0.50991832853E+00  0.52497534116E+01  0.55234064569E+01  0.00000000000E+00 0. -1.
</event>
<event>
 7    1  0.5843820E-012  0.5052887E+02  0.7816164E-02  0.1300439E+00
        -11   -1    0    0    0    0  0.00000000000E+00  0.00000000000E+00  0.45593999997E+02  0.45594000000E+02  0.51100000000E-03 0. -1.
         11   -1    0    0    0    0 -0.00000000000E+00 -0.00000000000E+00 -0.45593999997E+02  0.45594000000E+02  0.51100000000E-03 0.  1.
    9900012    2    1    2    0    0  0.18496885786E+02  0.33941991024E+01  0.36048710728E+02  0.50528869212E+02  0.30000028456E+02 0.  0.
        -12    1    1    2    0    0 -0.18496885786E+02 -0.33941991024E+01 -0.36048710728E+02  0.40659130788E+02  0.00000000000E+00 0.  1.
         11    1    3    3    0    0  0.89825233233E+01  0.90296820625E+01  0.34469183553E+01  0.13194776611E+02  0.51100000000E-03 0.  1.
        -11    1    3    3    0    0  0.10443203029E+02  0.16518682681E+01  0.22318857876E+02  0.24696570115E+02  0.51100000000E-03 0. -1.
        -12    1    3    3    0    0 -0.92884056640E+00 -0.72873512282E+01  0.10282934496E+02  0.12637522486E+02  0.00000000000E+00 0.  1.
</event>
<event>
 7    1  0.5843820E-012  0.5052886E+02  0.7816164E-02  0.1300439E+00
        -11   -1    0    0    0    0  0.00000000000E+00  0.00000000000E+00  0.45593999997E+02  0.45594000000E+02  0.51100000000E-03 0. -1.
         11   -1    0    0    0    0 -0.00000000000E+00 -0.00000000000E+00 -0.45593999997E+02  0.45594000000E+02  0.51100000000E-03 0.  1.
    9900012    2    1    2    0    0 -0.54526075715E+01  0.28844624803E+02 -0.28132232689E+02  0.50528858034E+02  0.29999994480E+02 0.  0.
         12    1    1    2    0    0  0.54526075715E+01 -0.28844624803E+02  0.28132232689E+02  0.40659141966E+02  0.00000000000E+00 0. -1.
         11    1    3    3    0    0  0.34815179630E+01  0.27044814187E+01 -0.12683594688E+02  0.13427909798E+02  0.51100000000E-03 0. -1.
        -11    1    3    3    0    0  0.27463137179E+01 -0.14012641794E+01 -0.40432064749E+01  0.50846139674E+01  0.51100000000E-03 0.  1.
         12    1    3    3    0    0 -0.11680439252E+02  0.27541407564E+02 -0.11405431526E+02  0.32016334269E+02  0.00000000000E+00 0. -1.
</event>
<event>
 7    1  0.5843820E-012  0.5052886E+02  0.7816164E-02  0.1300439E+00
        -11   -1    0    0    0    0  0.00000000000E+00  0.00000000000E+00  0.45593999997E+02  0.45594000000E+02  0.51100000000E-03 0. -1.
         11   -1    0    0    0    0 -0.00000000000E+00 -0.00000000000E+00 -0.45593999997E+02  0.45594000000E+02  0.51100000000E-03 0.  1.
    9900012    2    1    2    0    0  0.32085987340E+02 -0.18271018387E+02 -0.17024240712E+02  0.50528862426E+02  0.30000007830E+02 0.  0.
         12    1    1    2    0    0 -0.32085987340E+02  0.18271018387E+02  0.17024240712E+02  0.40659137574E+02  0.00000000000E+00 0. -1.
         11    1    3    3    0    0  0.10554608987E+02  0.18777266152E+01 -0.43255248691E+01  0.11560094885E+02  0.51100000000E-03 0. -1.
        -11    1    3    3    0    0  0.18406858127E+02 -0.26784696000E+01 -0.96718981278E+01  0.20965024187E+02  0.51100000000E-03 0.  1.
         12    1    3    3    0    0  0.31245202263E+01 -0.17470275402E+02 -0.30268177148E+01  0.18003743354E+02  0.00000000000E+00 0. -1.
</event>
<event>
 7    1  0.5843820E-012  0.5052887E+02  0.7816164E-02  0.1300439E+00
        -11   -1    0    0    0    0  0.00000000000E+00  0.00000000000E+00  0.45593999997E+02  0.45594000000E+02  0.51100000000E-03 0. -1.
         11   -1    0    0    0    0 -0.00000000000E+00 -0.00000000000E+00 -0.45593999997E+02  0.45594000000E+02  0.51100000000E-03 0.  1.
    9900012    2    1    2    0    0  0.31772103049E+02  0.15837956269E+02 -0.19820631047E+02  0.50528870569E+02  0.30000032583E+02 0.  0.
         12    1    1    2    0    0 -0.31772103049E+02 -0.15837956269E+02  0.19820631047E+02  0.40659129431E+02  0.00000000000E+00 0. -1.
         11    1    3    3    0    0  0.58635543849E+01 -0.42279974692E+01 -0.26846655528E-01  0.72289662904E+01  0.51100000000E-03 0. -1.
        -11    1    3    3    0    0  0.23502643763E+02  0.86325839052E+01 -0.19287047473E+02  0.31605157320E+02  0.51100000000E-03 0.  1.
         12    1    3    3    0    0  0.24059049013E+01  0.11433369833E+02 -0.50673691809E+00  0.11694746959E+02  0.00000000000E+00 0. -1.
</event>
<event>
 7    1  0.5843820E-012  0.5052886E+02  0.7816164E-02  0.1300439E+00
        -11   -1    0    0    0    0  0.00000000000E+00  0.00000000000E+00  0.45593999997E+02  0.45594000000E+02  0.51100000000E-03 0. -1.
         11   -1    0    0    0    0 -0.00000000000E+00 -0.00000000000E+00 -0.45593999997E+02  0.45594000000E+02  0.51100000000E-03 0.  1.
    9900012    2    1    2    0    0  0.95352742967E+00  0.98987913826E+01  0.39424234885E+02  0.50528861031E+02  0.30000003591E+02 0.  0.
        -12    1    1    2    0    0 -0.95352742967E+00 -0.98987913826E+01 -0.39424234885E+02  0.40659138969E+02  0.00000000000E+00 0.  1.
         11    1    3    3    0    0  0.23523522260E+01  0.16375874634E+01  0.23601959190E+02  0.23775359757E+02  0.51100000000E-03 0. -1.
        -11    1    3    3    0    0  0.58498018567E+01  0.11886439425E+02  0.11631445822E+02  0.17629468402E+02  0.51100000000E-03 0.  1.
         12    1    3    3    0    0 -0.72486266530E+01 -0.36252355059E+01  0.41908298728E+01  0.91240328721E+01  0.00000000000E+00 0. -1.
</event>
<event>
 7    1  0.5843820E-012  0.5052888E+02  0.7816164E-02  0.1300439E+00
        -11   -1    0    0    0    0  0.00000000000E+00  0.00000000000E+00  0.45593999997E+02  0.45594000000E+02  0.51100000000E-03 0.  1.
         11   -1    0    0    0    0 -0.00000000000E+00 -0.00000000000E+00 -0.45593999997E+02  0.45594000000E+02  0.51100000000E-03 0. -1.
    9900012    2    1    2    0    0 -0.37268609889E+02  0.48971731337E+01  0.15499426566E+02  0.50528882798E+02  0.30000069754E+02 0.  0.
        -12    1    1    2    0    0  0.37268609889E+02 -0.48971731337E+01 -0.15499426566E+02  0.40659117202E+02  0.00000000000E+00 0.  1.
         11    1    3    3    0    0 -0.57244365736E+01  0.15616818661E+01 -0.62249708987E+01  0.85999004231E+01  0.51100000000E-03 0. -1.
        -11    1    3    3    0    0 -0.17876613141E+00  0.26893084142E+01 -0.13215891133E+01  0.30018219671E+01  0.51100000000E-03 0.  1.
         12    1    3    3    0    0 -0.31365407184E+02  0.64618285335E+00  0.23045986578E+02  0.38927160408E+02  0.00000000000E+00 0. -1.
</event>
<event>
 7    1  0.5843820E-012  0.5052885E+02  0.7816164E-02  0.1300439E+00
        -11   -1    0    0    0    0  0.00000000000E+00  0.00000000000E+00  0.45593999997E+02  0.45594000000E+02  0.51100000000E-03 0. -1.
         11   -1    0    0    0    0 -0.00000000000E+00 -0.00000000000E+00 -0.45593999997E+02  0.45594000000E+02  0.51100000000E-03 0.  1.
    9900012    2    1    2    0    0  0.21299641584E+02 -0.27856925804E+02 -0.20578711359E+02  0.50528850869E+02  0.29999972703E+02 0.  0.
         12    1    1    2    0    0 -0.21299641584E+02  0.27856925804E+02  0.20578711359E+02  0.40659149131E+02  0.00000000000E+00 0. -1.
         11    1    3    3    0    0 -0.47653322522E+01 -0.65817285080E+00 -0.10125521460E+02  0.11210163606E+02  0.51100000000E-03 0. -1.
        -11    1    3    3    0    0  0.63982129870E+01 -0.77771794546E+01 -0.10619775296E+01  0.10126670047E+02  0.51100000000E-03 0.  1.
        -12    1    3    3    0    0  0.19666760849E+02 -0.19421573498E+02 -0.93912123699E+01  0.29192017217E+02  0.00000000000E+00 0.  1.
</event>
<event>
 7    1  0.5843820E-012  0.5052886E+02  0.7816164E-02  0.1300439E+00
        -11   -1    0    0    0    0  0.00000000000E+00  0.00000000000E+00  0.45593999997E+02  0.45594000000E+02  0.51100000000E-03 0. -1.
         11   -1    0    0    0    0 -0.00000000000E+00 -0.00000000000E+00 -0.45593999997E+02  0.45594000000E+02  0.51100000000E-03 0.  1.
    9900012    2    1    2    0    0 -0.27223063050E+01  0.23412724305E+02  0.33130035657E+02  0.50528857441E+02  0.29999992678E+02 0.  0.
        -12    1    1    2    0    0  0.27223063050E+01 -0.23412724305E+02 -0.33130035657E+02  0.40659142559E+02  0.00000000000E+00 0.  1.
         11    1    3    3    0    0 -0.53916399864E+01  0.11970652870E+02  0.21211638383E+02  0.24945939851E+02  0.51100000000E-03 0. -1.
        -11    1    3    3    0    0 -0.55472501180E+01  0.38588716175E+00  0.10310444595E+02  0.11714357037E+02  0.51100000000E-03 0.  1.
         12    1    3    3    0    0  0.82165837995E+01  0.11056184273E+02  0.16079526790E+01  0.13868560554E+02  0.00000000000E+00 0. -1.
</event>
<event>
 7    1  0.5843820E-012  0.5052887E+02  0.7816164E-02  0.1300439E+00
        -11   -1    0    0    0    0  0.00000000000E+00  0.00000000000E+00  0.45593999997E+02  0.45594000000E+02  0.51100000000E-03 0.  1.
         11   -1    0    0    0    0 -0.00000000000E+00 -0.00000000000E+00 -0.45593999997E+02  0.45594000000E+02  0.51100000000E-03 0. -1.
    9900012    2    1    2    0    0 -0.10632307896E+02 -0.34787367275E+02  0.18164733997E+02  0.50528874895E+02  0.30000045731E+02 0.  0.
         12    1    1    2    0    0  0.10632307896E+02  0.34787367275E+02 -0.18164733997E+02  0.40659125105E+02  0.00000000000E+00 0. -1.
         11    1    3    3    0    0 -0.74815517804E+01 -0.18712251167E+02  0.11092093616E+02  0.23003401962E+02  0.51100000000E-03 0. -1.
        -11    1    3    3    0    0 -0.93014681503E+01 -0.15910421202E+02  0.37926440011E+00  0.18433736852E+02  0.51100000000E-03 0.  1.
         12    1    3    3    0    0  0.61507120347E+01 -0.16469490560E+00  0.66933759812E+01  0.90917360813E+01  0.00000000000E+00 0. -1.
</event>
<event>
 7    1  0.7617982E-012  0.5052887E+02  0.7816164E-02  0.1300439E+00
        -11   -1    0    0    0    0  0.00000000000E+00  0.00000000000E+00  0.45593999997E+02  0.45594000000E+02  0.51100000000E-03 0. -1.
         11   -1    0    0    0    0 -0.00000000000E+00 -0.00000000000E+00 -0.45593999997E+02  0.45594000000E+02  0.51100000000E-03 0.  1.
    9900012    2    1    2    0    0  0.21762039878E+02  0.29357588538E+02 -0.17824432928E+02  0.50528870723E+02  0.30000033049E+02 0.  0.
         12    1    1    2    0    0 -0.21762039878E+02 -0.29357588538E+02  0.17824432928E+02  0.40659129277E+02  0.00000000000E+00 0. -1.
         11    1    3    3    0    0  0.66779507953E+01 -0.12089509124E+00  0.38499300777E+01  0.77091896015E+01  0.51100000000E-03 0. -1.
        -11    1    3    3    0    0  0.42128800789E+01  0.17879706570E+02 -0.35460462801E+01  0.18708466267E+02  0.51100000000E-03 0.  1.
        -12    1    3    3    0    0  0.10871209003E+02  0.11598777059E+02 -0.18128316726E+02  0.24111214855E+02  0.00000000000E+00 0.  1.
</event>
<event>
 7    1  0.5843820E-012  0.5052887E+02  0.7816164E-02  0.1300439E+00
        -11   -1    0    0    0    0  0.00000000000E+00  0.00000000000E+00  0.45593999997E+02  0.45594000000E+02  0.51100000000E-03 0. -1.
         11   -1    0    0    0    0 -0.00000000000E+00 -0.00000000000E+00 -0.45593999997E+02  0.45594000000E+02  0.51100000000E-03 0.  1.
    9900012    2    1    2    0    0 -0.24909678930E+02  0.43483513394E+00  0.32132278222E+02  0.50528874459E+02  0.30000044406E+02 0.  0.
        -12    1    1    2    0    0  0.24909678930E+02 -0.43483513394E+00 -0.32132278222E+02  0.40659125541E+02  0.00000000000E+00 0.  1.
         11    1    3    3    0    0 -0.32275891870E+01  0.47075998836E+01  0.81768385360E+01  0.99719364884E+01  0.51100000000E-03 0. -1.
        -11    1    3    3    0    0 -0.10614455544E+02 -0.41126824657E-01  0.26403901265E+02  0.28457588798E+02  0.51100000000E-03 0.  1.
        -12    1    3    3    0    0 -0.11067634199E+02 -0.42316379250E+01 -0.24484615790E+01  0.12099349173E+02  0.00000000000E+00 0.  1.
</event>
<event>
 7    1  0.5843820E-012  0.5052883E+02  0.7816164E-02  0.1300439E+00
        -11   -1    0    0    0    0  0.00000000000E+00  0.00000000000E+00  0.45593999997E+02  0.45594000000E+02  0.51100000000E-03 0. -1.
         11   -1    0    0    0    0 -0.00000000000E+00 -0.00000000000E+00 -0.45593999997E+02  0.45594000000E+02  0.51100000000E-03 0.  1.
    9900012    2    1    2    0    0 -0.12319143979E+02  0.54774061323E+01 -0.38358890076E+02  0.50528834561E+02  0.29999923132E+02 0.  0.
         12    1    1    2    0    0  0.12319143979E+02 -0.54774061323E+01  0.38358890076E+02  0.40659165439E+02  0.00000000000E+00 0. -1.
         11    1    3    3    0    0 -0.28515058540E+01 -0.45632333617E+01 -0.13478349431E+02  0.14512756044E+02  0.51100000000E-03 0. -1.
        -11    1    3    3    0    0  0.26484589845E+01  0.10470403633E+01 -0.19934510114E+02  0.20136914417E+02  0.51100000000E-03 0.  1.
         12    1    3    3    0    0 -0.12116097110E+02  0.89935991307E+01 -0.49460305312E+01  0.15879164100E+02  0.00000000000E+00 0. -1.
</event>
<event>
 7    1  0.6273728E-012  0.5052886E+02  0.7816164E-02  0.1300439E+00
        -11   -1    0    0    0    0  0.00000000000E+00  0.00000000000E+00  0.45593999997E+02  0.45594000000E+02  0.51100000000E-03 0.  1.
         11   -1    0    0    0    0 -0.00000000000E+00 -0.00000000000E+00 -0.45593999997E+02  0.45594000000E+02  0.51100000000E-03 0. -1.
    9900012    2    1    2    0    0  0.18643368345E+02  0.30795507387E+02 -0.18900455443E+02  0.50528859891E+02  0.30000000124E+02 0.  0.
         12    1    1    2    0    0 -0.18643368345E+02 -0.30795507387E+02  0.18900455443E+02  0.40659140109E+02  0.00000000000E+00 0. -1.
         11    1    3    3    0    0 -0.32959623611E+01  0.54526379004E+01  0.70072442434E+00  0.64098083386E+01  0.51100000000E-03 0. -1.
        -11    1    3    3    0    0 -0.27893808768E+01 -0.10601890683E+01 -0.19267705644E-01  0.29841276852E+01  0.51100000000E-03 0.  1.
        -12    1    3    3    0    0  0.24728711583E+02  0.26403058555E+02 -0.19581912162E+02  0.41134923867E+02  0.00000000000E+00 0.  1.
</event>
<event>
 7    1  0.5843820E-012  0.5052886E+02  0.7816164E-02  0.1300439E+00
        -11   -1    0    0    0    0  0.00000000000E+00  0.00000000000E+00  0.45593999997E+02  0.45594000000E+02  0.51100000000E-03 0. -1.
         11   -1    0    0    0    0 -0.00000000000E+00 -0.00000000000E+00 -0.45593999997E+02  0.45594000000E+02  0.51100000000E-03 0.  1.
    9900012    2    1    2    0    0  0.74323437356E+01  0.20762026813E+02  0.34159399266E+02  0.50528855284E+02  0.29999986121E+02 0.  0.
        -12    1    1    2    0    0 -0.74323437356E+01 -0.20762026813E+02 -0.34159399266E+02  0.40659144716E+02  0.00000000000E+00 0.  1.
         11    1    3    3    0    0 -0.33003855474E+01  0.73604233980E+01  0.13457316535E+02  0.15689733776E+02  0.51100000000E-03 0. -1.
        -11    1    3    3    0    0 -0.45857751291E+01 -0.18728665087E+01  0.89276750678E+01  0.10209816104E+02  0.51100000000E-03 0.  1.
         12    1    3    3    0    0  0.15318504412E+02  0.15274469924E+02  0.11774407663E+02  0.24629305405E+02  0.00000000000E+00 0. -1.
</event>
<event>
 7    1  0.5843820E-012  0.5052886E+02  0.7816164E-02  0.1300439E+00
        -11   -1    0    0    0    0  0.00000000000E+00  0.00000000000E+00  0.45593999997E+02  0.45594000000E+02  0.51100000000E-03 0. -1.
         11   -1    0    0    0    0 -0.00000000000E+00 -0.00000000000E+00 -0.45593999997E+02  0.45594000000E+02  0.51100000000E-03 0.  1.
    9900012    2    1    2    0    0  0.13255346872E+02  0.35698846222E+02 -0.14249682515E+02  0.50528864568E+02  0.30000014342E+02 0.  0.
         12    1    1    2    0    0 -0.13255346872E+02 -0.35698846222E+02  0.14249682515E+02  0.40659135432E+02  0.00000000000E+00 0. -1.
         11    1    3    3    0    0 -0.33356311764E+01  0.10715772265E+02 -0.62858648139E+01  0.12863370759E+02  0.51100000000E-03 0. -1.
        -11    1    3    3    0    0  0.11606240291E+02  0.76648765914E+00 -0.53515918172E+01  0.12803587476E+02  0.51100000000E-03 0.  1.
         12    1    3    3    0    0  0.49847377575E+01  0.24216586298E+02 -0.26122258836E+01  0.24861906333E+02  0.00000000000E+00 0. -1.
</event>
<event>
 7    1  0.5843820E-012  0.5052886E+02  0.7816164E-02  0.1300439E+00
        -11   -1    0    0    0    0  0.00000000000E+00  0.00000000000E+00  0.45593999997E+02  0.45594000000E+02  0.51100000000E-03 0. -1.
         11   -1    0    0    0    0 -0.00000000000E+00 -0.00000000000E+00 -0.45593999997E+02  0.45594000000E+02  0.51100000000E-03 0.  1.
    9900012    2    1    2    0    0  0.11066975930E+02  0.13451803357E+02  0.36738762643E+02  0.50528860188E+02  0.30000001026E+02 0.  0.
        -12    1    1    2    0    0 -0.11066975930E+02 -0.13451803357E+02 -0.36738762643E+02  0.40659139812E+02  0.00000000000E+00 0.  1.
         11    1    3    3    0    0  0.32410673626E+01 -0.28622467704E+01  0.16200290049E+02  0.16767419961E+02  0.51100000000E-03 0. -1.
        -11    1    3    3    0    0 -0.47219349747E+01 -0.24337899679E+00  0.26801747285E+00  0.47357931614E+01  0.51100000000E-03 0.  1.
         12    1    3    3    0    0  0.12547843542E+02  0.16557429124E+02  0.20270455121E+02  0.29025647065E+02  0.00000000000E+00 0. -1.
</event>
<event>
 7    1  0.5843820E-012  0.5052884E+02  0.7816164E-02  0.1300439E+00
        -11   -1    0    0    0    0  0.00000000000E+00  0.00000000000E+00  0.45593999997E+02  0.45594000000E+02  0.51100000000E-03 0. -1.
         11   -1    0    0    0    0 -0.00000000000E+00 -0.00000000000E+00 -0.45593999997E+02  0.45594000000E+02  0.51100000000E-03 0.  1.
    9900012    2    1    2    0    0  0.18922824520E+02  0.70760406576E+01 -0.35284888175E+02  0.50528843925E+02  0.29999951593E+02 0.  0.
         12    1    1    2    0    0 -0.18922824520E+02 -0.70760406576E+01  0.35284888175E+02  0.40659156075E+02  0.00000000000E+00 0. -1.
         11    1    3    3    0    0 -0.41227369646E+01  0.21240241936E+00 -0.39027716320E+01  0.56809947667E+01  0.51100000000E-03 0. -1.
        -11    1    3    3    0    0  0.26775592518E+00  0.87396835419E+01 -0.12200815912E+02  0.15010452053E+02  0.51100000000E-03 0.  1.
        -12    1    3    3    0    0  0.22777805560E+02 -0.18760453037E+01 -0.19181300631E+02  0.29837397105E+02  0.00000000000E+00 0.  1.
</event>
<event>
 7    1  0.5843820E-012  0.5052887E+02  0.7816164E-02  0.1300439E+00
        -11   -1    0    0    0    0  0.00000000000E+00  0.00000000000E+00  0.45593999997E+02  0.45594000000E+02  0.51100000000E-03 0. -1.
         11   -1    0    0    0    0 -0.00000000000E+00 -0.00000000000E+00 -0.45593999997E+02  0.45594000000E+02  0.51100000000E-03 0.  1.
    9900012    2    1    2    0    0 -0.20602328316E+02 -0.71542308258E+01 -0.34315096952E+02  0.50528870281E+02  0.30000031705E+02 0.  0.
         12    1    1    2    0    0  0.20602328316E+02  0.71542308258E+01  0.34315096952E+02  0.40659129719E+02  0.00000000000E+00 0. -1.
         11    1    3    3    0    0 -0.88703110624E+01  0.32444347118E+01 -0.43522952915E+01  0.10399579295E+02  0.51100000000E-03 0. -1.
        -11    1    3    3    0    0 -0.15177926250E+02 -0.10200095672E+02 -0.31442672971E+02  0.36373796623E+02  0.51100000000E-03 0.  1.
         12    1    3    3    0    0  0.34459089973E+01 -0.19856986592E+00  0.14798713111E+01  0.37554943625E+01  0.00000000000E+00 0. -1.
</event>
<event>
 7    1  0.5843820E-012  0.5052886E+02  0.7816164E-02  0.1300439E+00
        -11   -1    0    0    0    0  0.00000000000E+00  0.00000000000E+00  0.45593999997E+02  0.45594000000E+02  0.51100000000E-03 0. -1.
         11   -1    0    0    0    0 -0.00000000000E+00 -0.00000000000E+00 -0.45593999997E+02  0.45594000000E+02  0.51100000000E-03 0.  1.
    9900012    2    1    2    0    0 -0.15927960995E+02 -0.30276505227E+01  0.37286714880E+02  0.50528859383E+02  0.29999998582E+02 0.  0.
        -12    1    1    2    0    0  0.15927960995E+02  0.30276505227E+01 -0.37286714880E+02  0.40659140617E+02  0.00000000000E+00 0.  1.
         11    1    3    3    0    0 -0.71608041428E+00  0.38693134556E+01 -0.49218772602E-01  0.39353247040E+01  0.51100000000E-03 0. -1.
        -11    1    3    3    0    0 -0.18799786841E+01  0.13152033422E+01 -0.27361821884E+01  0.35708224421E+01  0.51100000000E-03 0.  1.
        -12    1    3    3    0    0 -0.13331901896E+02 -0.82121673205E+01  0.40072115841E+02  0.43022712237E+02  0.00000000000E+00 0.  1.
</event>
<event>
 7    1  0.5843820E-012  0.5052886E+02  0.7816164E-02  0.1300439E+00
        -11   -1    0    0    0    0  0.00000000000E+00  0.00000000000E+00  0.45593999997E+02  0.45594000000E+02  0.51100000000E-03 0. -1.
         11   -1    0    0    0    0 -0.00000000000E+00 -0.00000000000E+00 -0.45593999997E+02  0.45594000000E+02  0.51100000000E-03 0.  1.
    9900012    2    1    2    0    0  0.16140473325E+02  0.17188129174E+02 -0.33124294924E+02  0.50528861078E+02  0.30000003732E+02 0.  0.
         12    1    1    2    0    0 -0.16140473325E+02 -0.17188129174E+02  0.33124294924E+02  0.40659138922E+02  0.00000000000E+00 0. -1.
         11    1    3    3    0    0  0.86189302247E+01 -0.42246960426E+01 -0.10565082137E+02  0.14274276714E+02  0.51100000000E-03 0.  1.
        -11    1    3    3    0    0  0.24629768818E+01 -0.79296851646E+00  0.16084935940E+01  0.30466877246E+01  0.51100000000E-03 0. -1.
        -12    1    3    3    0    0  0.50585662184E+01  0.22205793733E+02 -0.24167706381E+02  0.33207896640E+02  0.00000000000E+00 0.  1.
</event>
<event>
 7    1  0.5843820E-012  0.5052886E+02  0.7816164E-02  0.1300439E+00
        -11   -1    0    0    0    0  0.00000000000E+00  0.00000000000E+00  0.45593999997E+02  0.45594000000E+02  0.51100000000E-03 0.  1.
         11   -1    0    0    0    0 -0.00000000000E+00 -0.00000000000E+00 -0.45593999997E+02  0.45594000000E+02  0.51100000000E-03 0. -1.
    9900012    2    1    2    0    0 -0.31109746961E+02 -0.25091568459E+02 -0.74674260851E+01  0.50528860609E+02  0.30000002306E+02 0.  0.
         12    1    1    2    0    0  0.31109746961E+02  0.25091568459E+02  0.74674260851E+01  0.40659139391E+02  0.00000000000E+00 0. -1.
         11    1    3    3    0    0 -0.75910267303E+01 -0.67873793083E+01 -0.27127623291E+01  0.10538087322E+02  0.51100000000E-03 0. -1.
        -11    1    3    3    0    0 -0.22440879649E+02 -0.17501985037E+02  0.60566284394E+01  0.29096310900E+02  0.51100000000E-03 0.  1.
         12    1    3    3    0    0 -0.10778405817E+01 -0.80220411330E+00 -0.10811292195E+02  0.10894462387E+02  0.00000000000E+00 0. -1.
</event>
<event>
 7    1  0.5843820E-012  0.5052886E+02  0.7816164E-02  0.1300439E+00
        -11   -1    0    0    0    0  0.00000000000E+00  0.00000000000E+00  0.45593999997E+02  0.45594000000E+02  0.51100000000E-03 0. -1.
         11   -1    0    0    0    0 -0.00000000000E+00 -0.00000000000E+00 -0.45593999997E+02  0.45594000000E+02  0.51100000000E-03 0.  1.
    9900012    2    1    2    0    0  0.19252104482E+02  0.13055957027E+02 -0.33347628019E+02  0.50528857911E+02  0.29999994107E+02 0.  0.
         12    1    1    2    0    0 -0.19252104482E+02 -0.13055957027E+02  0.33347628019E+02  0.40659142089E+02  0.00000000000E+00 0. -1.
         11    1    3    3    0    0  0.34216272698E+01  0.40921025542E+01 -0.17375974102E+02  0.18176284349E+02  0.51100000000E-03 0. -1.
        -11    1    3    3    0    0  0.20584528545E+02  0.38256486208E+01 -0.10248994325E+02  0.23310947809E+02  0.51100000000E-03 0.  1.
         12    1    3    3    0    0 -0.47540513329E+01  0.51382058524E+01 -0.57226595922E+01  0.90416257534E+01  0.00000000000E+00 0. -1.
</event>
<event>
 7    1  0.5843820E-012  0.5052887E+02  0.7816164E-02  0.1300439E+00
        -11   -1    0    0    0    0  0.00000000000E+00  0.00000000000E+00  0.45593999997E+02  0.45594000000E+02  0.51100000000E-03 0. -1.
         11   -1    0    0    0    0 -0.00000000000E+00 -0.00000000000E+00 -0.45593999997E+02  0.45594000000E+02  0.51100000000E-03 0.  1.
    9900012    2    1    2    0    0  0.38825090332E+02  0.63490588299E+00  0.12057115696E+02  0.50528870845E+02  0.30000033420E+02 0.  0.
        -12    1    1    2    0    0 -0.38825090332E+02 -0.63490588299E+00 -0.12057115696E+02  0.40659129155E+02  0.00000000000E+00 0.  1.
         11    1    3    3    0    0  0.82614687484E+01 -0.14732031746E+01  0.56191616401E+01  0.10099364895E+02  0.51100000000E-03 0. -1.
        -11    1    3    3    0    0  0.70124238753E+01 -0.85006338397E+01  0.93284722446E+01  0.14437979740E+02  0.51100000000E-03 0.  1.
        -12    1    3    3    0    0  0.23551197708E+02  0.10608742897E+02 -0.28905181890E+01  0.25991526211E+02  0.00000000000E+00 0.  1.
</event>
<event>
 7    1  0.5843820E-012  0.5052886E+02  0.7816164E-02  0.1300439E+00
        -11   -1    0    0    0    0  0.00000000000E+00  0.00000000000E+00  0.45593999997E+02  0.45594000000E+02  0.51100000000E-03 0. -1.
         11   -1    0    0    0    0 -0.00000000000E+00 -0.00000000000E+00 -0.45593999997E+02  0.45594000000E+02  0.51100000000E-03 0.  1.
    9900012    2    1    2    0    0  0.13715314156E+02  0.15755901479E+01  0.38243610266E+02  0.50528855236E+02  0.29999985977E+02 0.  0.
        -12    1    1    2    0    0 -0.13715314156E+02 -0.15755901479E+01 -0.38243610266E+02  0.40659144764E+02  0.00000000000E+00 0.  1.
         11    1    3    3    0    0 -0.24929286242E+01  0.50066357069E+01  0.13206104609E+02  0.14341627991E+02  0.51100000000E-03 0. -1.
        -11    1    3    3    0    0 -0.32880163941E+01 -0.50114869056E+01  0.93827217739E+01  0.11133800832E+02  0.51100000000E-03 0.  1.
        -12    1    3    3    0    0  0.19496259175E+02  0.15804413465E+01  0.15654783884E+02  0.25053426414E+02  0.00000000000E+00 0.  1.
</event>
<event>
 7    1  0.5843820E-012  0.5052887E+02  0.7816164E-02  0.1300439E+00
        -11   -1    0    0    0    0  0.00000000000E+00  0.00000000000E+00  0.45593999997E+02  0.45594000000E+02  0.51100000000E-03 0. -1.
         11   -1    0    0    0    0 -0.00000000000E+00 -0.00000000000E+00 -0.45593999997E+02  0.45594000000E+02  0.51100000000E-03 0.  1.
    9900012    2    1    2    0    0  0.10730180856E+02  0.24966059959E+02  0.30244407165E+02  0.50528867006E+02  0.30000021751E+02 0.  0.
        -12    1    1    2    0    0 -0.10730180856E+02 -0.24966059959E+02 -0.30244407165E+02  0.40659132994E+02  0.00000000000E+00 0.  1.
         11    1    3    3    0    0  0.55540358063E+01  0.71529908595E+01  0.44677113959E+01  0.10098170000E+02  0.51100000000E-03 0. -1.
        -11    1    3    3    0    0  0.12702961779E+02  0.76083605688E+01  0.41787365871E+01  0.15385520083E+02  0.51100000000E-03 0.  1.
         12    1    3    3    0    0 -0.75268167290E+01  0.10204708531E+02  0.21597959182E+02  0.25045176923E+02  0.00000000000E+00 0. -1.
</event>
<event>
 7    1  0.5843820E-012  0.5052887E+02  0.7816164E-02  0.1300439E+00
        -11   -1    0    0    0    0  0.00000000000E+00  0.00000000000E+00  0.45593999997E+02  0.45594000000E+02  0.51100000000E-03 0. -1.
         11   -1    0    0    0    0 -0.00000000000E+00 -0.00000000000E+00 -0.45593999997E+02  0.45594000000E+02  0.51100000000E-03 0.  1.
    9900012    2    1    2    0    0 -0.13380041050E+02 -0.97734050225E+01  0.37129775495E+02  0.50528866063E+02  0.30000018885E+02 0.  0.
        -12    1    1    2    0    0  0.13380041050E+02  0.97734050225E+01 -0.37129775495E+02  0.40659133937E+02  0.00000000000E+00 0.  1.
         11    1    3    3    0    0 -0.75720564099E+01  0.51893816178E+01  0.12045600450E+02  0.15144708988E+02  0.51100000000E-03 0. -1.
        -11    1    3    3    0    0 -0.78502874603E+00  0.33442404823E+01  0.11602684370E+02  0.12100516493E+02  0.51100000000E-03 0.  1.
        -12    1    3    3    0    0 -0.50229558944E+01 -0.18307027123E+02  0.13481490674E+02  0.23283640583E+02  0.00000000000E+00 0.  1.
</event>
<event>
 7    1  0.5843820E-012  0.5052886E+02  0.7816164E-02  0.1300439E+00
        -11   -1    0    0    0    0  0.00000000000E+00  0.00000000000E+00  0.45593999997E+02  0.45594000000E+02  0.51100000000E-03 0. -1.
         11   -1    0    0    0    0 -0.00000000000E+00 -0.00000000000E+00 -0.45593999997E+02  0.45594000000E+02  0.51100000000E-03 0.  1.
    9900012    2    1    2    0    0 -0.21425599913E+02 -0.18036908448E+02 -0.29475057594E+02  0.50528863042E+02  0.30000009702E+02 0.  0.
         12    1    1    2    0    0  0.21425599913E+02  0.18036908448E+02  0.29475057594E+02  0.40659136958E+02  0.00000000000E+00 0. -1.
         11    1    3    3    0    0 -0.13714784248E+02 -0.22684314303E+02 -0.29945479403E+02  0.39992563800E+02  0.51100000000E-03 0. -1.
        -11    1    3    3    0    0  0.43393768225E+00 -0.63090924926E+00  0.31913182660E+00  0.82957445522E+00  0.51100000000E-03 0.  1.
         12    1    3    3    0    0 -0.81447533469E+01  0.52783151045E+01  0.15128998207E+00  0.97067247866E+01  0.00000000000E+00 0. -1.
</event>
<event>
 7    1  0.5843820E-012  0.5052886E+02  0.7816164E-02  0.1300439E+00
        -11   -1    0    0    0    0  0.00000000000E+00  0.00000000000E+00  0.45593999997E+02  0.45594000000E+02  0.51100000000E-03 0. -1.
         11   -1    0    0    0    0 -0.00000000000E+00 -0.00000000000E+00 -0.45593999997E+02  0.45594000000E+02  0.51100000000E-03 0.  1.
    9900012    2    1    2    0    0 -0.49840226624E+01 -0.43437624735E+01  0.40118033435E+02  0.50528863745E+02  0.30000011839E+02 0.  0.
        -12    1    1    2    0    0  0.49840226624E+01  0.43437624735E+01 -0.40118033435E+02  0.40659136255E+02  0.00000000000E+00 0.  1.
         11    1    3    3    0    0 -0.11072829066E+02 -0.49801960678E+01  0.76751696854E+01  0.14363778276E+02  0.51100000000E-03 0. -1.
        -11    1    3    3    0    0  0.35794274023E+01  0.18100671878E+01  0.43164939324E+00  0.40342242392E+01  0.51100000000E-03 0.  1.
         12    1    3    3    0    0  0.25093790018E+01 -0.11736335935E+01  0.32011214356E+02  0.32130861229E+02  0.00000000000E+00 0. -1.
</event>
<event>
 7    1  0.5843820E-012  0.5052889E+02  0.7816164E-02  0.1300439E+00
        -11   -1    0    0    0    0  0.00000000000E+00  0.00000000000E+00  0.45593999997E+02  0.45594000000E+02  0.51100000000E-03 0.  1.
         11   -1    0    0    0    0 -0.00000000000E+00 -0.00000000000E+00 -0.45593999997E+02  0.45594000000E+02  0.51100000000E-03 0. -1.
    9900012    2    1    2    0    0  0.18783266778E+02 -0.26245813468E+02 -0.24728715765E+02  0.50528890088E+02  0.30000091912E+02 0.  0.
         12    1    1    2    0    0 -0.18783266778E+02  0.26245813468E+02  0.24728715765E+02  0.40659109912E+02  0.00000000000E+00 0. -1.
         11    1    3    3    0    0  0.58571227660E+01  0.51742959548E+01 -0.80343853500E+01  0.11208504536E+02  0.51100000000E-03 0. -1.
        -11    1    3    3    0    0  0.21081128432E+01 -0.19911697791E+01  0.12907240821E+01  0.31740929045E+01  0.51100000000E-03 0.  1.
         12    1    3    3    0    0  0.10818031169E+02 -0.29428939644E+02 -0.17985054497E+02  0.36146292648E+02  0.00000000000E+00 0. -1.
</event>
<event>
 7    1  0.5843820E-012  0.5052885E+02  0.7816164E-02  0.1300439E+00
        -11   -1    0    0    0    0  0.00000000000E+00  0.00000000000E+00  0.45593999997E+02  0.45594000000E+02  0.51100000000E-03 0. -1.
         11   -1    0    0    0    0 -0.00000000000E+00 -0.00000000000E+00 -0.45593999997E+02  0.45594000000E+02  0.51100000000E-03 0.  1.
    9900012    2    1    2    0    0  0.33641821451E+01 -0.17055140135E+02  0.36755558992E+02  0.50528847975E+02  0.29999963906E+02 0.  0.
        -12    1    1    2    0    0 -0.33641821451E+01  0.17055140135E+02 -0.36755558992E+02  0.40659152025E+02  0.00000000000E+00 0.  1.
         11    1    3    3    0    0  0.22419834559E+01  0.37971286889E+01  0.10563597278E+02  0.11447019866E+02  0.51100000000E-03 0. -1.
        -11    1    3    3    0    0 -0.30002522627E+01  0.40383483972E+00  0.13812886526E+02  0.14140736567E+02  0.51100000000E-03 0.  1.
        -12    1    3    3    0    0  0.41224509519E+01 -0.21256103664E+02  0.12379075188E+02  0.24941091543E+02  0.00000000000E+00 0.  1.
</event>
<event>
 7    1  0.5843820E-012  0.5052885E+02  0.7816164E-02  0.1300439E+00
        -11   -1    0    0    0    0  0.00000000000E+00  0.00000000000E+00  0.45593999997E+02  0.45594000000E+02  0.51100000000E-03 0. -1.
         11   -1    0    0    0    0 -0.00000000000E+00 -0.00000000000E+00 -0.45593999997E+02  0.45594000000E+02  0.51100000000E-03 0.  1.
    9900012    2    1    2    0    0 -0.64629368599E+01 -0.27567932742E+02  0.29178869281E+02  0.50528845053E+02  0.29999955023E+02 0.  0.
        -12    1    1    2    0    0  0.64629368599E+01  0.27567932742E+02 -0.29178869281E+02  0.40659154947E+02  0.00000000000E+00 0.  1.
         11    1    3    3    0    0 -0.11326345968E+01 -0.95916727305E+01 -0.61454154181E+00  0.96778462721E+01  0.51100000000E-03 0. -1.
        -11    1    3    3    0    0  0.26423582402E+01 -0.19002371295E+02  0.16443457758E+02  0.25267755643E+02  0.51100000000E-03 0.  1.
        -12    1    3    3    0    0 -0.79726605033E+01  0.10261112842E+01  0.13349953064E+02  0.15583243138E+02  0.00000000000E+00 0.  1.
</event>
<event>
 7    1  0.5843820E-012  0.5052886E+02  0.7816164E-02  0.1300439E+00
        -11   -1    0    0    0    0  0.00000000000E+00  0.00000000000E+00  0.45593999997E+02  0.45594000000E+02  0.51100000000E-03 0. -1.
         11   -1    0    0    0    0 -0.00000000000E+00 -0.00000000000E+00 -0.45593999997E+02  0.45594000000E+02  0.51100000000E-03 0.  1.
    9900012    2    1    2    0    0  0.34344143931E+02  0.95407474086E+00 -0.21742477952E+02  0.50528857997E+02  0.29999994367E+02 0.  0.
         12    1    1    2    0    0 -0.34344143931E+02 -0.95407474086E+00  0.21742477952E+02  0.40659142003E+02  0.00000000000E+00 0. -1.
         11    1    3    3    0    0  0.13754165862E+02 -0.94607514300E+01 -0.12136957140E+02  0.20639491880E+02  0.51100000000E-03 0. -1.
        -11    1    3    3    0    0  0.11902261614E+02 -0.10518066907E+01 -0.98743620745E+01  0.15500746933E+02  0.51100000000E-03 0.  1.
        -12    1    3    3    0    0  0.86877164547E+01  0.11466632862E+02  0.26884126283E+00  0.14388619183E+02  0.00000000000E+00 0.  1.
</event>
<event>
 7    1  0.5843820E-012  0.5052886E+02  0.7816164E-02  0.1300439E+00
        -11   -1    0    0    0    0  0.00000000000E+00  0.00000000000E+00  0.45593999997E+02  0.45594000000E+02  0.51100000000E-03 0. -1.
         11   -1    0    0    0    0 -0.00000000000E+00 -0.00000000000E+00 -0.45593999997E+02  0.45594000000E+02  0.51100000000E-03 0.  1.
    9900012    2    1    2    0    0  0.34334753851E+02 -0.14954730138E+02 -0.15831821385E+02  0.50528857807E+02  0.29999993789E+02 0.  0.
         12    1    1    2    0    0 -0.34334753851E+02  0.14954730138E+02  0.15831821385E+02  0.40659142193E+02  0.00000000000E+00 0. -1.
         11    1    3    3    0    0  0.16746411211E+00  0.27453286189E+00 -0.20397200280E+01  0.20649141810E+01  0.51100000000E-03 0.  1.
        -11    1    3    3    0    0  0.13421683908E+02 -0.15593406786E+02 -0.17948618202E+02  0.27302908814E+02  0.51100000000E-03 0. -1.
         12    1    3    3    0    0  0.20745605832E+02  0.36414378671E+00  0.41565168443E+01  0.21161034812E+02  0.00000000000E+00 0. -1.
</event>
<event>
 7    1  0.5843820E-012  0.5052886E+02  0.7816164E-02  0.1300439E+00
        -11   -1    0    0    0    0  0.00000000000E+00  0.00000000000E+00  0.45593999997E+02  0.45594000000E+02  0.51100000000E-03 0.  1.
         11   -1    0    0    0    0 -0.00000000000E+00 -0.00000000000E+00 -0.45593999997E+02  0.45594000000E+02  0.51100000000E-03 0. -1.
    9900012    2    1    2    0    0  0.17832499309E+02  0.36237778524E+02 -0.46894857944E+01  0.50528857104E+02  0.29999991654E+02 0.  0.
         12    1    1    2    0    0 -0.17832499309E+02 -0.36237778524E+02  0.46894857944E+01  0.40659142896E+02  0.00000000000E+00 0. -1.
         11    1    3    3    0    0 -0.12114124118E+01 -0.53568324043E+00 -0.17289462669E+01  0.21780110239E+01  0.51100000000E-03 0. -1.
        -11    1    3    3    0    0 -0.32642350418E+01  0.65987989235E+01  0.63111375477E+01  0.96968982178E+01  0.51100000000E-03 0.  1.
        -12    1    3    3    0    0  0.22308146763E+02  0.30174662841E+02 -0.92716770752E+01  0.38653947863E+02  0.00000000000E+00 0.  1.
</event>
<event>
 7    1  0.5843820E-012  0.5052887E+02  0.7816164E-02  0.1300439E+00
        -11   -1    0    0    0    0  0.00000000000E+00  0.00000000000E+00  0.45593999997E+02  0.45594000000E+02  0.51100000000E-03 0. -1.
         11   -1    0    0    0    0 -0.00000000000E+00 -0.00000000000E+00 -0.45593999997E+02  0.45594000000E+02  0.51100000000E-03 0.  1.
    9900012    2    1    2    0    0 -0.16637130376E+02  0.22049149543E+02 -0.29836313627E+02  0.50528871707E+02  0.30000036040E+02 0.  0.
         12    1    1    2    0    0  0.16637130376E+02 -0.22049149543E+02  0.29836313627E+02  0.40659128293E+02  0.00000000000E+00 0. -1.
         11    1    3    3    0    0 -0.48925270997E+01  0.39016151131E+01 -0.25076345978E+02  0.25845358379E+02  0.51100000000E-03 0. -1.
        -11    1    3    3    0    0 -0.51500553619E+01  0.66943099846E+00  0.65303544468E+00  0.52342777577E+01  0.51100000000E-03 0.  1.
        -12    1    3    3    0    0 -0.65945479147E+01  0.17478103431E+02 -0.54130030939E+01  0.19449235570E+02  0.00000000000E+00 0.  1.
</event>
<event>
 7    1  0.5843820E-012  0.5052889E+02  0.7816164E-02  0.1300439E+00
        -11   -1    0    0    0    0  0.00000000000E+00  0.00000000000E+00  0.45593999997E+02  0.45594000000E+02  0.51100000000E-03 0. -1.
         11   -1    0    0    0    0 -0.00000000000E+00 -0.00000000000E+00 -0.45593999997E+02  0.45594000000E+02  0.51100000000E-03 0.  1.
    9900012    2    1    2    0    0  0.19132543338E+02 -0.15116974343E+02 -0.32535919319E+02  0.50528890642E+02  0.30000093595E+02 0.  0.
         12    1    1    2    0    0 -0.19132543338E+02  0.15116974343E+02  0.32535919319E+02  0.40659109358E+02  0.00000000000E+00 0. -1.
         11    1    3    3    0    0  0.15121605104E+02 -0.60019602479E+01 -0.32815484533E+00  0.16272496846E+02  0.51100000000E-03 0. -1.
        -11    1    3    3    0    0  0.16216359545E+01 -0.33521988412E+01 -0.44324054215E+01  0.57890550457E+01  0.51100000000E-03 0.  1.
        -12    1    3    3    0    0  0.23893022796E+01 -0.57628152536E+01 -0.27775359052E+02  0.28467338750E+02  0.00000000000E+00 0.  1.
</event>
<event>
 7    1  0.5843820E-012  0.5052886E+02  0.7816164E-02  0.1300439E+00
        -11   -1    0    0    0    0  0.00000000000E+00  0.00000000000E+00  0.45593999997E+02  0.45594000000E+02  0.51100000000E-03 0. -1.
         11   -1    0    0    0    0 -0.00000000000E+00 -0.00000000000E+00 -0.45593999997E+02  0.45594000000E+02  0.51100000000E-03 0.  1.
    9900012    2    1    2    0    0  0.13873817774E+02 -0.45056714345E+01  0.37952360992E+02  0.50528860811E+02  0.30000002922E+02 0.  0.
        -12    1    1    2    0    0 -0.13873817774E+02  0.45056714345E+01 -0.37952360992E+02  0.40659139189E+02  0.00000000000E+00 0.  1.
         11    1    3    3    0    0  0.71836969997E+01 -0.45190178598E+01  0.12607997479E+02  0.15198309962E+02  0.51100000000E-03 0. -1.
        -11    1    3    3    0    0  0.15226432877E+02  0.22207493883E+00  0.20421882484E+02  0.25474435418E+02  0.51100000000E-03 0.  1.
        -12    1    3    3    0    0 -0.85363121027E+01 -0.20872851349E+00  0.49224810293E+01  0.98561154311E+01  0.00000000000E+00 0.  1.
</event>
<event>
 7    1  0.5843820E-012  0.5052887E+02  0.7816164E-02  0.1300439E+00
        -11   -1    0    0    0    0  0.00000000000E+00  0.00000000000E+00  0.45593999997E+02  0.45594000000E+02  0.51100000000E-03 0.  1.
         11   -1    0    0    0    0 -0.00000000000E+00 -0.00000000000E+00 -0.45593999997E+02  0.45594000000E+02  0.51100000000E-03 0. -1.
    9900012    2    1    2    0    0 -0.18315104443E+02 -0.32322921493E+02  0.16521225193E+02  0.50528865891E+02  0.30000018363E+02 0.  0.
        -12    1    1    2    0    0  0.18315104443E+02  0.32322921493E+02 -0.16521225193E+02  0.40659134109E+02  0.00000000000E+00 0.  1.
         11    1    3    3    0    0 -0.20278034035E+02 -0.24594036114E+02  0.16076951271E+02  0.35700611187E+02  0.51100000000E-03 0. -1.
        -11    1    3    3    0    0 -0.43529031324E+01 -0.49076126353E+01  0.33017450206E+01  0.73439735771E+01  0.51100000000E-03 0.  1.
        -12    1    3    3    0    0  0.63158327247E+01 -0.28212727439E+01 -0.28574710990E+01  0.74842811268E+01  0.00000000000E+00 0.  1.
</event>
<event>
 7    1  0.5843820E-012  0.5052885E+02  0.7816164E-02  0.1300439E+00
        -11   -1    0    0    0    0  0.00000000000E+00  0.00000000000E+00  0.45593999997E+02  0.45594000000E+02  0.51100000000E-03 0. -1.
         11   -1    0    0    0    0 -0.00000000000E+00 -0.00000000000E+00 -0.45593999997E+02  0.45594000000E+02  0.51100000000E-03 0.  1.
    9900012    2    1    2    0    0 -0.39084489078E+02  0.40954398930E+01 -0.10430547422E+02  0.50528853010E+02  0.29999979209E+02 0.  0.
         12    1    1    2    0    0  0.39084489078E+02 -0.40954398930E+01  0.10430547422E+02  0.40659146990E+02  0.00000000000E+00 0. -1.
         11    1    3    3    0    0 -0.19577160281E+02 -0.56596159294E+01 -0.31717350525E+00  0.20381291824E+02  0.51100000000E-03 0.  1.
        -11    1    3    3    0    0 -0.18398864290E+02  0.37761527417E+01 -0.52026041138E+00  0.18789577107E+02  0.51100000000E-03 0. -1.
         12    1    3    3    0    0 -0.11084645078E+01  0.59789030807E+01 -0.95931135055E+01  0.11357984079E+02  0.00000000000E+00 0. -1.
</event>
<event>
 7    1  0.5843820E-012  0.5052885E+02  0.7816164E-02  0.1300439E+00
        -11   -1    0    0    0    0  0.00000000000E+00  0.00000000000E+00  0.45593999997E+02  0.45594000000E+02  0.51100000000E-03 0. -1.
         11   -1    0    0    0    0 -0.00000000000E+00 -0.00000000000E+00 -0.45593999997E+02  0.45594000000E+02  0.51100000000E-03 0.  1.
    9900012    2    1    2    0    0 -0.50702293202E+01 -0.23589617288E+02  0.32725967953E+02  0.50528852842E+02  0.29999978697E+02 0.  0.
        -12    1    1    2    0    0  0.50702293202E+01  0.23589617288E+02 -0.32725967953E+02  0.40659147158E+02  0.00000000000E+00 0.  1.
         11    1    3    3    0    0 -0.11106008514E+02 -0.13796864037E+02  0.10395283716E+02  0.20536767179E+02  0.51100000000E-03 0. -1.
        -11    1    3    3    0    0  0.10301791570E+02 -0.10606440440E+02  0.20507418496E+02  0.25281963966E+02  0.51100000000E-03 0.  1.
         12    1    3    3    0    0 -0.42660123763E+01  0.81368718817E+00  0.18232657420E+01  0.47101216971E+01  0.00000000000E+00 0. -1.
</event>
<event>
 7    1  0.5843820E-012  0.5052891E+02  0.7816164E-02  0.1300439E+00
        -11   -1    0    0    0    0  0.00000000000E+00  0.00000000000E+00  0.45593999997E+02  0.45594000000E+02  0.51100000000E-03 0.  1.
         11   -1    0    0    0    0 -0.00000000000E+00 -0.00000000000E+00 -0.45593999997E+02  0.45594000000E+02  0.51100000000E-03 0. -1.
    9900012    2    1    2    0    0  0.17595308561E+02 -0.27552012080E+02 -0.24175463591E+02  0.50528913773E+02  0.30000163903E+02 0.  0.
         12    1    1    2    0    0 -0.17595308561E+02  0.27552012080E+02  0.24175463591E+02  0.40659086227E+02  0.00000000000E+00 0. -1.
         11    1    3    3    0    0 -0.36662372835E+01 -0.35674178030E+01  0.47253908557E+00  0.51372228927E+01  0.51100000000E-03 0. -1.
        -11    1    3    3    0    0 -0.26782629095E+01 -0.93593801102E+01 -0.38470259363E+01  0.10467602260E+02  0.51100000000E-03 0.  1.
         12    1    3    3    0    0  0.23939808754E+02 -0.14625214167E+02 -0.20800976740E+02  0.34924088620E+02  0.00000000000E+00 0. -1.
</event>
<event>
 7    1  0.5843820E-012  0.5052885E+02  0.7816164E-02  0.1300439E+00
        -11   -1    0    0    0    0  0.00000000000E+00  0.00000000000E+00  0.45593999997E+02  0.45594000000E+02  0.51100000000E-03 0. -1.
         11   -1    0    0    0    0 -0.00000000000E+00 -0.00000000000E+00 -0.45593999997E+02  0.45594000000E+02  0.51100000000E-03 0.  1.
    9900012    2    1    2    0    0  0.22512394302E+02  0.28770966330E+02  0.17849089557E+02  0.50528850984E+02  0.29999973050E+02 0.  0.
        -12    1    1    2    0    0 -0.22512394302E+02 -0.28770966330E+02 -0.17849089557E+02  0.40659149016E+02  0.00000000000E+00 0.  1.
         11    1    3    3    0    0  0.13632892788E+02  0.74999764491E+01  0.21557052236E+02  0.26585934512E+02  0.51100000000E-03 0. -1.
        -11    1    3    3    0    0  0.39661160095E+00  0.51872956196E+01  0.65409228324E+00  0.52433933271E+01  0.51100000000E-03 0.  1.
        -12    1    3    3    0    0  0.84828899128E+01  0.16083694261E+02 -0.43620549621E+01  0.18699523145E+02  0.00000000000E+00 0.  1.
</event>
<event>
 7    1  0.5843820E-012  0.5052887E+02  0.7816164E-02  0.1300439E+00
        -11   -1    0    0    0    0  0.00000000000E+00  0.00000000000E+00  0.45593999997E+02  0.45594000000E+02  0.51100000000E-03 0. -1.
         11   -1    0    0    0    0 -0.00000000000E+00 -0.00000000000E+00 -0.45593999997E+02  0.45594000000E+02  0.51100000000E-03 0.  1.
    9900012    2    1    2    0    0  0.13428821547E+02  0.22433666002E+01  0.38311867216E+02  0.50528866814E+02  0.30000021169E+02 0.  0.
        -12    1    1    2    0    0 -0.13428821547E+02 -0.22433666002E+01 -0.38311867216E+02  0.40659133186E+02  0.00000000000E+00 0.  1.
         11    1    3    3    0    0  0.78736368607E+00 -0.27831801070E+01  0.90238238509E+01  0.94760450735E+01  0.51100000000E-03 0. -1.
        -11    1    3    3    0    0 -0.62244929540E+01 -0.42215744525E+01  0.55191819013E+01  0.93288462584E+01  0.51100000000E-03 0.  1.
        -12    1    3    3    0    0  0.18865950815E+02  0.92481211597E+01  0.23768861464E+02  0.31723975482E+02  0.00000000000E+00 0.  1.
</event>
<event>
 7    1  0.5843820E-012  0.5052887E+02  0.7816164E-02  0.1300439E+00
        -11   -1    0    0    0    0  0.00000000000E+00  0.00000000000E+00  0.45593999997E+02  0.45594000000E+02  0.51100000000E-03 0. -1.
         11   -1    0    0    0    0 -0.00000000000E+00 -0.00000000000E+00 -0.45593999997E+02  0.45594000000E+02  0.51100000000E-03 0.  1.
    9900012    2    1    2    0    0 -0.24208340036E+02  0.21227980762E+02  0.24829290450E+02  0.50528873610E+02  0.30000041825E+02 0.  0.
        -12    1    1    2    0    0  0.24208340036E+02 -0.21227980762E+02 -0.24829290450E+02  0.40659126390E+02  0.00000000000E+00 0.  1.
         11    1    3    3    0    0 -0.94293855019E+01  0.17610864802E+02  0.70437640106E+01  0.21181843209E+02  0.51100000000E-03 0. -1.
        -11    1    3    3    0    0 -0.98900867728E+01  0.58753419459E+01  0.80357119730E+00  0.11531660170E+02  0.51100000000E-03 0.  1.
        -12    1    3    3    0    0 -0.48888677614E+01 -0.22582259864E+01  0.16981955242E+02  0.17815370231E+02  0.00000000000E+00 0.  1.
</event>
<event>
 7    1  0.5843820E-012  0.5052885E+02  0.7816164E-02  0.1300439E+00
        -11   -1    0    0    0    0  0.00000000000E+00  0.00000000000E+00  0.45593999997E+02  0.45594000000E+02  0.51100000000E-03 0. -1.
         11   -1    0    0    0    0 -0.00000000000E+00 -0.00000000000E+00 -0.45593999997E+02  0.45594000000E+02  0.51100000000E-03 0.  1.
    9900012    2    1    2    0    0  0.17548875855E+02  0.35567443405E+02 -0.89532245336E+01  0.50528852152E+02  0.29999976602E+02 0.  0.
         12    1    1    2    0    0 -0.17548875855E+02 -0.35567443405E+02  0.89532245336E+01  0.40659147848E+02  0.00000000000E+00 0. -1.
         11    1    3    3    0    0  0.33926209090E+00  0.16674101537E+02 -0.26736475780E+01  0.16890504802E+02  0.51100000000E-03 0. -1.
        -11    1    3    3    0    0  0.36702645165E+01  0.17305193391E+02 -0.88271706438E+01  0.19770166964E+02  0.51100000000E-03 0.  1.
         12    1    3    3    0    0  0.13539349248E+02  0.15881484772E+01  0.25475936883E+01  0.13868180387E+02  0.00000000000E+00 0. -1.
</event>
<event>
 7    1  0.5843820E-012  0.5052885E+02  0.7816164E-02  0.1300439E+00
        -11   -1    0    0    0    0  0.00000000000E+00  0.00000000000E+00  0.45593999997E+02  0.45594000000E+02  0.51100000000E-03 0.  1.
         11   -1    0    0    0    0 -0.00000000000E+00 -0.00000000000E+00 -0.45593999997E+02  0.45594000000E+02  0.51100000000E-03 0. -1.
    9900012    2    1    2    0    0 -0.24194753567E+02 -0.32675598241E+02 -0.29222799502E+00  0.50528853209E+02  0.29999979814E+02 0.  0.
        -12    1    1    2    0    0  0.24194753567E+02  0.32675598241E+02  0.29222799502E+00  0.40659146791E+02  0.00000000000E+00 0.  1.
         11    1    3    3    0    0 -0.25931429387E+02 -0.29094506261E+02 -0.30319501608E+00  0.38974623181E+02  0.51100000000E-03 0. -1.
        -11    1    3    3    0    0 -0.39664408585E+01 -0.15946750380E+01 -0.25684965291E+01  0.49872654073E+01  0.51100000000E-03 0.  1.
         12    1    3    3    0    0  0.57031166789E+01 -0.19864169427E+01  0.25794635502E+01  0.65669646208E+01  0.00000000000E+00 0. -1.
</event>
<event>
 7    1  0.5843820E-012  0.5052887E+02  0.7816164E-02  0.1300439E+00
        -11   -1    0    0    0    0  0.00000000000E+00  0.00000000000E+00  0.45593999997E+02  0.45594000000E+02  0.51100000000E-03 0. -1.
         11   -1    0    0    0    0 -0.00000000000E+00 -0.00000000000E+00 -0.45593999997E+02  0.45594000000E+02  0.51100000000E-03 0.  1.
    9900012    2    1    2    0    0  0.23283777007E+01  0.22971495300E+02 -0.33467207012E+02  0.50528869608E+02  0.30000029660E+02 0.  0.
         12    1    1    2    0    0 -0.23283777007E+01 -0.22971495300E+02  0.33467207012E+02  0.40659130392E+02  0.00000000000E+00 0. -1.
         11    1    3    3    0    0  0.23622301113E+01  0.86634430248E+01 -0.32455913560E+01  0.95482584618E+01  0.51100000000E-03 0. -1.
        -11    1    3    3    0    0  0.34158564391E+01  0.20291247603E+02 -0.24631000381E+02  0.32094999370E+02  0.51100000000E-03 0.  1.
        -12    1    3    3    0    0 -0.34497088496E+01 -0.59831953279E+01 -0.55906152750E+01  0.88856117759E+01  0.00000000000E+00 0.  1.
</event>
<event>
 7    1  0.5843820E-012  0.5052885E+02  0.7816164E-02  0.1300439E+00
        -11   -1    0    0    0    0  0.00000000000E+00  0.00000000000E+00  0.45593999997E+02  0.45594000000E+02  0.51100000000E-03 0. -1.
         11   -1    0    0    0    0 -0.00000000000E+00 -0.00000000000E+00 -0.45593999997E+02  0.45594000000E+02  0.51100000000E-03 0.  1.
    9900012    2    1    2    0    0 -0.16670598573E+02 -0.12060116029E+02  0.35068663502E+02  0.50528850781E+02  0.29999972434E+02 0.  0.
        -12    1    1    2    0    0  0.16670598573E+02  0.12060116029E+02 -0.35068663502E+02  0.40659149219E+02  0.00000000000E+00 0.  1.
         11    1    3    3    0    0 -0.74413061850E+01  0.99115530206E+00  0.81903854771E+01  0.11110258372E+02  0.51100000000E-03 0. -1.
        -11    1    3    3    0    0 -0.17077233163E+02 -0.11806904540E+02  0.21037222940E+02  0.29556718976E+02  0.51100000000E-03 0.  1.
        -12    1    3    3    0    0  0.78479407746E+01 -0.12443667912E+01  0.58410550842E+01  0.98618734330E+01  0.00000000000E+00 0.  1.
</event>
<event>
 7    1  0.5843820E-012  0.5052890E+02  0.7816164E-02  0.1300439E+00
        -11   -1    0    0    0    0  0.00000000000E+00  0.00000000000E+00  0.45593999997E+02  0.45594000000E+02  0.51100000000E-03 0. -1.
         11   -1    0    0    0    0 -0.00000000000E+00 -0.00000000000E+00 -0.45593999997E+02  0.45594000000E+02  0.51100000000E-03 0.  1.
    9900012    2    1    2    0    0 -0.21583493735E+02  0.63940005466E+01 -0.33859003368E+02  0.50528898266E+02  0.30000116769E+02 0.  0.
         12    1    1    2    0    0  0.21583493735E+02 -0.63940005466E+01  0.33859003368E+02  0.40659101734E+02  0.00000000000E+00 0. -1.
         11    1    3    3    0    0 -0.77610370247E+01  0.29439234042E+01 -0.28998036326E+01  0.87925674338E+01  0.51100000000E-03 0. -1.
        -11    1    3    3    0    0 -0.19117965461E+02  0.80290704457E+01 -0.20562827135E+02  0.29202610082E+02  0.51100000000E-03 0.  1.
         12    1    3    3    0    0  0.52955087505E+01 -0.45789933033E+01 -0.10396372600E+02  0.12533720750E+02  0.00000000000E+00 0. -1.
</event>
<event>
 7    1  0.5843820E-012  0.5052886E+02  0.7816164E-02  0.1300439E+00
        -11   -1    0    0    0    0  0.00000000000E+00  0.00000000000E+00  0.45593999997E+02  0.45594000000E+02  0.51100000000E-03 0.  1.
         11   -1    0    0    0    0 -0.00000000000E+00 -0.00000000000E+00 -0.45593999997E+02  0.45594000000E+02  0.51100000000E-03 0. -1.
    9900012    2    1    2    0    0  0.40194586909E+02  0.61184156063E+01  0.35469023367E+00  0.50528860419E+02  0.30000001728E+02 0.  0.
         12    1    1    2    0    0 -0.40194586909E+02 -0.61184156063E+01 -0.35469023367E+00  0.40659139581E+02  0.00000000000E+00 0. -1.
         11    1    3    3    0    0  0.13105335310E+02  0.46568224501E+01 -0.26916252345E+01  0.14166179992E+02  0.51100000000E-03 0. -1.
        -11    1    3    3    0    0  0.31332703069E+02  0.27402629102E+01  0.96683117485E+00  0.31467158836E+02  0.51100000000E-03 0.  1.
         12    1    3    3    0    0 -0.42434514694E+01 -0.12786697541E+01  0.20794842933E+01  0.48955215901E+01  0.00000000000E+00 0. -1.
</event>
<event>
 7    1  0.5843820E-012  0.5052886E+02  0.7816164E-02  0.1300439E+00
        -11   -1    0    0    0    0  0.00000000000E+00  0.00000000000E+00  0.45593999997E+02  0.45594000000E+02  0.51100000000E-03 0.  1.
         11   -1    0    0    0    0 -0.00000000000E+00 -0.00000000000E+00 -0.45593999997E+02  0.45594000000E+02  0.51100000000E-03 0. -1.
    9900012    2    1    2    0    0  0.17674731715E+02  0.36220881645E+02 -0.53681662451E+01  0.50528860595E+02  0.30000002264E+02 0.  0.
        -12    1    1    2    0    0 -0.17674731715E+02 -0.36220881645E+02  0.53681662451E+01  0.40659139405E+02  0.00000000000E+00 0.  1.
         11    1    3    3    0    0 -0.99371131889E+00  0.10228929547E+02  0.16751208036E+01  0.10412708189E+02  0.51100000000E-03 0. -1.
        -11    1    3    3    0    0  0.54337200204E+01  0.18179428897E+02  0.60616051713E+01  0.19918835453E+02  0.51100000000E-03 0.  1.
         12    1    3    3    0    0  0.13234723013E+02  0.78125232016E+01 -0.13104892220E+02  0.20197316953E+02  0.00000000000E+00 0. -1.
</event>
<event>
 7    1  0.5843820E-012  0.5052886E+02  0.7816164E-02  0.1300439E+00
        -11   -1    0    0    0    0  0.00000000000E+00  0.00000000000E+00  0.45593999997E+02  0.45594000000E+02  0.51100000000E-03 0. -1.
         11   -1    0    0    0    0 -0.00000000000E+00 -0.00000000000E+00 -0.45593999997E+02  0.45594000000E+02  0.51100000000E-03 0.  1.
    9900012    2    1    2    0    0 -0.65234093381E+01 -0.12130989614E+02  0.38255063206E+02  0.50528860322E+02  0.30000001435E+02 0.  0.
        -12    1    1    2    0    0  0.65234093381E+01  0.12130989614E+02 -0.38255063206E+02  0.40659139678E+02  0.00000000000E+00 0.  1.
         11    1    3    3    0    0 -0.90831730578E+01 -0.42868717617E+01  0.23817500557E+02  0.25848687304E+02  0.51100000000E-03 0. -1.
        -11    1    3    3    0    0  0.74957066594E+01 -0.63201744999E+01  0.16438464207E+02  0.19140358663E+02  0.51100000000E-03 0.  1.
        -12    1    3    3    0    0 -0.49359429397E+01 -0.15239433527E+01 -0.20009015568E+01  0.55398143548E+01  0.00000000000E+00 0.  1.
</event>
<event>
 7    1  0.5843820E-012  0.5052886E+02  0.7816164E-02  0.1300439E+00
        -11   -1    0    0    0    0  0.00000000000E+00  0.00000000000E+00  0.45593999997E+02  0.45594000000E+02  0.51100000000E-03 0.  1.
         11   -1    0    0    0    0 -0.00000000000E+00 -0.00000000000E+00 -0.45593999997E+02  0.45594000000E+02  0.51100000000E-03 0. -1.
    9900012    2    1    2    0    0  0.15932084253E+02 -0.23654187284E+02  0.28979536586E+02  0.50528862953E+02  0.30000009431E+02 0.  0.
        -12    1    1    2    0    0 -0.15932084253E+02  0.23654187284E+02 -0.28979536586E+02  0.40659137047E+02  0.00000000000E+00 0.  1.
         11    1    3    3    0    0  0.18896745741E+01  0.38319451499E+01  0.22481769045E+01  0.48279367521E+01  0.51100000000E-03 0. -1.
        -11    1    3    3    0    0  0.11390607290E+02 -0.12736558637E+02  0.25458285277E+02  0.30660889580E+02  0.51100000000E-03 0.  1.
         12    1    3    3    0    0  0.26518023891E+01 -0.14749573797E+02  0.12730744042E+01  0.15040036620E+02  0.00000000000E+00 0. -1.
</event>
<event>
 7    1  0.5843820E-012  0.5052886E+02  0.7816164E-02  0.1300439E+00
        -11   -1    0    0    0    0  0.00000000000E+00  0.00000000000E+00  0.45593999997E+02  0.45594000000E+02  0.51100000000E-03 0. -1.
         11   -1    0    0    0    0 -0.00000000000E+00 -0.00000000000E+00 -0.45593999997E+02  0.45594000000E+02  0.51100000000E-03 0.  1.
    9900012    2    1    2    0    0 -0.15731449652E+02 -0.21803721384E+02  0.30500568772E+02  0.50528862408E+02  0.30000007775E+02 0.  0.
        -12    1    1    2    0    0  0.15731449652E+02  0.21803721384E+02 -0.30500568772E+02  0.40659137592E+02  0.00000000000E+00 0.  1.
         11    1    3    3    0    0 -0.32480062725E+01 -0.15532469252E+01  0.15591721301E+02  0.16001996568E+02  0.51100000000E-03 0. -1.
        -11    1    3    3    0    0  0.34289056164E+01  0.17680088717E+01  0.28909102811E+01  0.48208517516E+01  0.51100000000E-03 0.  1.
         12    1    3    3    0    0 -0.15912348996E+02 -0.22018483330E+02  0.12017937189E+02  0.29706014088E+02  0.00000000000E+00 0. -1.
</event>
<event>
 7    1  0.5843820E-012  0.5052886E+02  0.7816164E-02  0.1300439E+00
        -11   -1    0    0    0    0  0.00000000000E+00  0.00000000000E+00  0.45593999997E+02  0.45594000000E+02  0.51100000000E-03 0. -1.
         11   -1    0    0    0    0 -0.00000000000E+00 -0.00000000000E+00 -0.45593999997E+02  0.45594000000E+02  0.51100000000E-03 0.  1.
    9900012    2    1    2    0    0 -0.29153680194E+02  0.56003605839E+01  0.27782447717E+02  0.50528861929E+02  0.30000006320E+02 0.  0.
        -12    1    1    2    0    0  0.29153680194E+02 -0.56003605839E+01 -0.27782447717E+02  0.40659138071E+02  0.00000000000E+00 0.  1.
         11    1    3    3    0    0 -0.24391230354E+01  0.19159790400E+01 -0.66529036758E+00  0.31722087570E+01  0.51100000000E-03 0.  1.
        -11    1    3    3    0    0 -0.10126536050E+02  0.14521637417E+02  0.10268358252E+02  0.20466163957E+02  0.51100000000E-03 0. -1.
         12    1    3    3    0    0 -0.16588021108E+02 -0.10837255873E+02  0.18179379832E+02  0.26890489215E+02  0.00000000000E+00 0. -1.
</event>
<event>
 7    1  0.5843820E-012  0.5052886E+02  0.7816164E-02  0.1300439E+00
        -11   -1    0    0    0    0  0.00000000000E+00  0.00000000000E+00  0.45593999997E+02  0.45594000000E+02  0.51100000000E-03 0. -1.
         11   -1    0    0    0    0 -0.00000000000E+00 -0.00000000000E+00 -0.45593999997E+02  0.45594000000E+02  0.51100000000E-03 0.  1.
    9900012    2    1    2    0    0  0.35231730551E+01 -0.13237573165E+02 -0.38282106800E+02  0.50528858436E+02  0.29999995703E+02 0.  0.
         12    1    1    2    0    0 -0.35231730551E+01  0.13237573165E+02  0.38282106800E+02  0.40659141564E+02  0.00000000000E+00 0. -1.
         11    1    3    3    0    0 -0.25622256507E+01  0.55880094394E+00 -0.13405935389E+02  0.13660027917E+02  0.51100000000E-03 0. -1.
        -11    1    3    3    0    0 -0.62662598219E+01 -0.19216198815E+01 -0.16587165052E+02  0.17835152925E+02  0.51100000000E-03 0.  1.
         12    1    3    3    0    0  0.12351658528E+02 -0.11874754227E+02 -0.82890063580E+01  0.19033677594E+02  0.00000000000E+00 0. -1.
</event>
<event>
 7    1  0.5843820E-012  0.5052886E+02  0.7816164E-02  0.1300439E+00
        -11   -1    0    0    0    0  0.00000000000E+00  0.00000000000E+00  0.45593999997E+02  0.45594000000E+02  0.51100000000E-03 0. -1.
         11   -1    0    0    0    0 -0.00000000000E+00 -0.00000000000E+00 -0.45593999997E+02  0.45594000000E+02  0.51100000000E-03 0.  1.
    9900012    2    1    2    0    0 -0.34268172796E+01 -0.13481120411E+02  0.38205783876E+02  0.50528860735E+02  0.30000002690E+02 0.  0.
        -12    1    1    2    0    0  0.34268172796E+01  0.13481120411E+02 -0.38205783876E+02  0.40659139265E+02  0.00000000000E+00 0.  1.
         11    1    3    3    0    0 -0.37826891870E+01 -0.97460676112E+01  0.16843979745E+02  0.19824586383E+02  0.51100000000E-03 0. -1.
        -11    1    3    3    0    0  0.96231691741E+01 -0.35772307918E+01  0.18227658463E+02  0.20920074053E+02  0.51100000000E-03 0.  1.
        -12    1    3    3    0    0 -0.92672972668E+01 -0.15782200810E+00  0.31341456684E+01  0.97842002988E+01  0.00000000000E+00 0.  1.
</event>
<event>
 7    1  0.5843820E-012  0.5052885E+02  0.7816164E-02  0.1300439E+00
        -11   -1    0    0    0    0  0.00000000000E+00  0.00000000000E+00  0.45593999997E+02  0.45594000000E+02  0.51100000000E-03 0. -1.
         11   -1    0    0    0    0 -0.00000000000E+00 -0.00000000000E+00 -0.45593999997E+02  0.45594000000E+02  0.51100000000E-03 0.  1.
    9900012    2    1    2    0    0 -0.11432782121E+02 -0.24593078109E+02  0.30292544900E+02  0.50528852512E+02  0.29999977697E+02 0.  0.
        -12    1    1    2    0    0  0.11432782121E+02  0.24593078109E+02 -0.30292544900E+02  0.40659147488E+02  0.00000000000E+00 0.  1.
         11    1    3    3    0    0 -0.15323078730E+02 -0.28382483661E+01  0.12753856768E+02  0.20137359764E+02  0.51100000000E-03 0. -1.
        -11    1    3    3    0    0 -0.20067037837E+01 -0.64592472549E+01  0.55433764977E+00  0.67864589932E+01  0.51100000000E-03 0.  1.
         12    1    3    3    0    0  0.58970003923E+01 -0.15295582488E+02  0.16984350482E+02  0.23605033755E+02  0.00000000000E+00 0. -1.
</event>
<event>
 7    1  0.5843820E-012  0.5052886E+02  0.7816164E-02  0.1300439E+00
        -11   -1    0    0    0    0  0.00000000000E+00  0.00000000000E+00  0.45593999997E+02  0.45594000000E+02  0.51100000000E-03 0. -1.
         11   -1    0    0    0    0 -0.00000000000E+00 -0.00000000000E+00 -0.45593999997E+02  0.45594000000E+02  0.51100000000E-03 0.  1.
    9900012    2    1    2    0    0  0.36614230802E+02  0.69584339723E+01  0.16252517796E+02  0.50528855453E+02  0.29999986636E+02 0.  0.
        -12    1    1    2    0    0 -0.36614230802E+02 -0.69584339723E+01 -0.16252517796E+02  0.40659144547E+02  0.00000000000E+00 0.  1.
         11    1    3    3    0    0  0.13107624129E+02  0.10699434652E+02 -0.45688381005E+01  0.17526037602E+02  0.51100000000E-03 0. -1.
        -11    1    3    3    0    0  0.85425042302E+01  0.17272483790E+01  0.32951310103E+01  0.93174918364E+01  0.51100000000E-03 0.  1.
        -12    1    3    3    0    0  0.14964102443E+02 -0.54682490584E+01  0.17526224886E+02  0.23685326015E+02  0.00000000000E+00 0.  1.
</event>
<event>
 7    1  0.5843820E-012  0.5052888E+02  0.7816164E-02  0.1300439E+00
        -11   -1    0    0    0    0  0.00000000000E+00  0.00000000000E+00  0.45593999997E+02  0.45594000000E+02  0.51100000000E-03 0. -1.
         11   -1    0    0    0    0 -0.00000000000E+00 -0.00000000000E+00 -0.45593999997E+02  0.45594000000E+02  0.51100000000E-03 0.  1.
    9900012    2    1    2    0    0  0.10450000460E+02  0.14708138203E+02 -0.36436692285E+02  0.50528875763E+02  0.30000048370E+02 0.  0.
         12    1    1    2    0    0 -0.10450000460E+02 -0.14708138203E+02  0.36436692285E+02  0.40659124237E+02  0.00000000000E+00 0. -1.
         11    1    3    3    0    0  0.81578963709E+01  0.33299020939E+01 -0.13920077976E+01  0.89206057599E+01  0.51100000000E-03 0. -1.
        -11    1    3    3    0    0  0.10601230935E+02  0.71841783764E+01 -0.23656704170E+02  0.26900523578E+02  0.51100000000E-03 0.  1.
         12    1    3    3    0    0 -0.83091268468E+01  0.41940577326E+01 -0.11387980317E+02  0.14707746426E+02  0.00000000000E+00 0. -1.
</event>
<event>
 7    1  0.5843820E-012  0.5052889E+02  0.7816164E-02  0.1300439E+00
        -11   -1    0    0    0    0  0.00000000000E+00  0.00000000000E+00  0.45593999997E+02  0.45594000000E+02  0.51100000000E-03 0. -1.
         11   -1    0    0    0    0 -0.00000000000E+00 -0.00000000000E+00 -0.45593999997E+02  0.45594000000E+02  0.51100000000E-03 0.  1.
    9900012    2    1    2    0    0  0.22147657218E+02  0.15199800359E+02 -0.30522299332E+02  0.50528887765E+02  0.30000084852E+02 0.  0.
         12    1    1    2    0    0 -0.22147657218E+02 -0.15199800359E+02  0.30522299332E+02  0.40659112235E+02  0.00000000000E+00 0. -1.
         11    1    3    3    0    0 -0.16041541075E+01 -0.26534018712E+01 -0.16529043048E+00  0.31050238450E+01  0.51100000000E-03 0. -1.
        -11    1    3    3    0    0 -0.26276474213E+00 -0.30633292796E+01  0.45914068023E+00  0.31086720654E+01  0.51100000000E-03 0.  1.
        -12    1    3    3    0    0  0.24014576067E+02  0.20916531510E+02 -0.30816149582E+02  0.44315191855E+02  0.00000000000E+00 0.  1.
</event>
<event>
 7    1  0.5843820E-012  0.5052886E+02  0.7816164E-02  0.1300439E+00
        -11   -1    0    0    0    0  0.00000000000E+00  0.00000000000E+00  0.45593999997E+02  0.45594000000E+02  0.51100000000E-03 0. -1.
         11   -1    0    0    0    0 -0.00000000000E+00 -0.00000000000E+00 -0.45593999997E+02  0.45594000000E+02  0.51100000000E-03 0.  1.
    9900012    2    1    2    0    0  0.19338559055E+02 -0.10907887562E+02  0.34061765474E+02  0.50528859028E+02  0.29999997502E+02 0.  0.
        -12    1    1    2    0    0 -0.19338559055E+02  0.10907887562E+02 -0.34061765474E+02  0.40659140972E+02  0.00000000000E+00 0.  1.
         11    1    3    3    0    0  0.59239964721E+01  0.31590229986E+01  0.19596083902E+02  0.20714238220E+02  0.51100000000E-03 0. -1.
        -11    1    3    3    0    0  0.20315927899E+01  0.94661401226E+00  0.10270687039E+02  0.10512395534E+02  0.51100000000E-03 0.  1.
        -12    1    3    3    0    0  0.11382969793E+02 -0.15013524572E+02  0.41949945334E+01  0.19302225274E+02  0.00000000000E+00 0.  1.
</event>
<event>
 7    1  0.5843820E-012  0.5052886E+02  0.7816164E-02  0.1300439E+00
        -11   -1    0    0    0    0  0.00000000000E+00  0.00000000000E+00  0.45593999997E+02  0.45594000000E+02  0.51100000000E-03 0. -1.
         11   -1    0    0    0    0 -0.00000000000E+00 -0.00000000000E+00 -0.45593999997E+02  0.45594000000E+02  0.51100000000E-03 0.  1.
    9900012    2    1    2    0    0  0.39043682807E+02  0.80605303136E+01  0.79865336879E+01  0.50528855440E+02  0.29999986594E+02 0.  0.
        -12    1    1    2    0    0 -0.39043682807E+02 -0.80605303136E+01 -0.79865336879E+01  0.40659144560E+02  0.00000000000E+00 0.  1.
         11    1    3    3    0    0  0.26231579297E+01  0.44376051591E+01  0.52511942358E+00  0.51816066757E+01  0.51100000000E-03 0. -1.
        -11    1    3    3    0    0  0.36251263824E+02  0.10580660762E+02  0.65596612407E+01  0.38329279499E+02  0.51100000000E-03 0.  1.
        -12    1    3    3    0    0  0.16926105265E+00 -0.69577356080E+01  0.90175302362E+00  0.70179692654E+01  0.00000000000E+00 0.  1.
</event>
<event>
 7    1  0.5843820E-012  0.5052886E+02  0.7816164E-02  0.1300439E+00
        -11   -1    0    0    0    0  0.00000000000E+00  0.00000000000E+00  0.45593999997E+02  0.45594000000E+02  0.51100000000E-03 0. -1.
         11   -1    0    0    0    0 -0.00000000000E+00 -0.00000000000E+00 -0.45593999997E+02  0.45594000000E+02  0.51100000000E-03 0.  1.
    9900012    2    1    2    0    0  0.17149982001E+02 -0.14757796279E+01  0.36835656793E+02  0.50528863025E+02  0.30000009652E+02 0.  0.
        -12    1    1    2    0    0 -0.17149982001E+02  0.14757796279E+01 -0.36835656793E+02  0.40659136975E+02  0.00000000000E+00 0.  1.
         11    1    3    3    0    0  0.10698763600E+02 -0.66360639980E+01  0.45258387869E+01  0.13378494121E+02  0.51100000000E-03 0. -1.
        -11    1    3    3    0    0  0.82567087474E+01  0.85556303379E+00  0.55474891380E+01  0.99839803406E+01  0.51100000000E-03 0.  1.
        -12    1    3    3    0    0 -0.18054903464E+01  0.43047213364E+01  0.26762328868E+02  0.27166388564E+02  0.00000000000E+00 0.  1.
</event>
<event>
 7    1  0.5843820E-012  0.5052885E+02  0.7816164E-02  0.1300439E+00
        -11   -1    0    0    0    0  0.00000000000E+00  0.00000000000E+00  0.45593999997E+02  0.45594000000E+02  0.51100000000E-03 0. -1.
         11   -1    0    0    0    0 -0.00000000000E+00 -0.00000000000E+00 -0.45593999997E+02  0.45594000000E+02  0.51100000000E-03 0.  1.
    9900012    2    1    2    0    0 -0.40867173886E+00  0.15679237631E+02 -0.37512139817E+02  0.50528854179E+02  0.29999982762E+02 0.  0.
         12    1    1    2    0    0  0.40867173886E+00 -0.15679237631E+02  0.37512139817E+02  0.40659145821E+02  0.00000000000E+00 0. -1.
         11    1    3    3    0    0  0.12176044568E+01  0.14145761434E+02 -0.23142706933E+02  0.27150874969E+02  0.51100000000E-03 0. -1.
        -11    1    3    3    0    0  0.89450955533E+00  0.35130554302E+01 -0.18100093187E+02  0.18459552526E+02  0.51100000000E-03 0.  1.
        -12    1    3    3    0    0 -0.25207857510E+01 -0.19795792326E+01  0.37306603036E+01  0.49184266836E+01  0.00000000000E+00 0.  1.
</event>
<event>
 7    1  0.5843820E-012  0.5052884E+02  0.7816164E-02  0.1300439E+00
        -11   -1    0    0    0    0  0.00000000000E+00  0.00000000000E+00  0.45593999997E+02  0.45594000000E+02  0.51100000000E-03 0.  1.
         11   -1    0    0    0    0 -0.00000000000E+00 -0.00000000000E+00 -0.45593999997E+02  0.45594000000E+02  0.51100000000E-03 0. -1.
    9900012    2    1    2    0    0  0.36512028528E+02  0.86219966795E+01 -0.15674831344E+02  0.50528838774E+02  0.29999935938E+02 0.  0.
         12    1    1    2    0    0 -0.36512028528E+02 -0.86219966795E+01  0.15674831344E+02  0.40659161226E+02  0.00000000000E+00 0. -1.
         11    1    3    3    0    0  0.66145681464E+01  0.10498599794E+00  0.30000549662E+01  0.72638738896E+01  0.51100000000E-03 0. -1.
        -11    1    3    3    0    0 -0.33063343097E+00 -0.30527874900E+01 -0.89603904784E+01  0.94719284051E+01  0.51100000000E-03 0.  1.
        -12    1    3    3    0    0  0.30228093812E+02  0.11569798172E+02 -0.97144958314E+01  0.33793036479E+02  0.00000000000E+00 0.  1.
</event>
<event>
 7    1  0.5843820E-012  0.5052883E+02  0.7816164E-02  0.1300439E+00
        -11   -1    0    0    0    0  0.00000000000E+00  0.00000000000E+00  0.45593999997E+02  0.45594000000E+02  0.51100000000E-03 0. -1.
         11   -1    0    0    0    0 -0.00000000000E+00 -0.00000000000E+00 -0.45593999997E+02  0.45594000000E+02  0.51100000000E-03 0.  1.
    9900012    2    1    2    0    0 -0.92519906647E+01  0.32156274119E+02  0.23098543634E+02  0.50528831114E+02  0.29999912655E+02 0.  0.
        -12    1    1    2    0    0  0.92519906647E+01 -0.32156274119E+02 -0.23098543634E+02  0.40659168886E+02  0.00000000000E+00 0.  1.
         11    1    3    3    0    0 -0.91211680088E+00  0.26982874594E+01 -0.70534515349E+00  0.29343183738E+01  0.51100000000E-03 0. -1.
        -11    1    3    3    0    0 -0.22699212914E+01 -0.47019024607E+01  0.78003068024E+01  0.93864378702E+01  0.51100000000E-03 0.  1.
         12    1    3    3    0    0 -0.60699525724E+01  0.34159889120E+02  0.16003581985E+02  0.38208074870E+02  0.00000000000E+00 0. -1.
</event>
<event>
 7    1  0.5843820E-012  0.5052887E+02  0.7816164E-02  0.1300439E+00
        -11   -1    0    0    0    0  0.00000000000E+00  0.00000000000E+00  0.45593999997E+02  0.45594000000E+02  0.51100000000E-03 0. -1.
         11   -1    0    0    0    0 -0.00000000000E+00 -0.00000000000E+00 -0.45593999997E+02  0.45594000000E+02  0.51100000000E-03 0.  1.
    9900012    2    1    2    0    0 -0.19859319421E+02 -0.18992194493E+01  0.35428315950E+02  0.50528866052E+02  0.30000018851E+02 0.  0.
        -12    1    1    2    0    0  0.19859319421E+02  0.18992194493E+01 -0.35428315950E+02  0.40659133948E+02  0.00000000000E+00 0.  1.
         11    1    3    3    0    0 -0.13137324627E+02 -0.53411193697E+01  0.27764197817E+02  0.31176393876E+02  0.51100000000E-03 0. -1.
        -11    1    3    3    0    0 -0.10396042862E+02  0.62882369501E+00  0.97592771147E+01  0.14272933002E+02  0.51100000000E-03 0.  1.
         12    1    3    3    0    0  0.36740480677E+01  0.28130762254E+01 -0.20951589813E+01  0.50795391731E+01  0.00000000000E+00 0. -1.
</event>
<event>
 7    1  0.5843820E-012  0.5052885E+02  0.7816164E-02  0.1300439E+00
        -11   -1    0    0    0    0  0.00000000000E+00  0.00000000000E+00  0.45593999997E+02  0.45594000000E+02  0.51100000000E-03 0.  1.
         11   -1    0    0    0    0 -0.00000000000E+00 -0.00000000000E+00 -0.45593999997E+02  0.45594000000E+02  0.51100000000E-03 0. -1.
    9900012    2    1    2    0    0  0.96943454777E+01 -0.39032515072E+02 -0.59706855084E+01  0.50528847862E+02  0.29999963563E+02 0.  0.
        -12    1    1    2    0    0 -0.96943454777E+01  0.39032515072E+02  0.59706855084E+01  0.40659152138E+02  0.00000000000E+00 0.  1.
         11    1    3    3    0    0 -0.14170851111E+01 -0.70765595110E+01 -0.10033675516E+02  0.12359630631E+02  0.51100000000E-03 0. -1.
        -11    1    3    3    0    0  0.87985368335E+01 -0.46597969746E+01  0.41202719918E+01  0.10775184444E+02  0.51100000000E-03 0.  1.
         12    1    3    3    0    0  0.23128937553E+01 -0.27296158587E+02 -0.57281984338E-01  0.27394032787E+02  0.00000000000E+00 0. -1.
</event>
<event>
 7    1  0.5843820E-012  0.5052886E+02  0.7816164E-02  0.1300439E+00
        -11   -1    0    0    0    0  0.00000000000E+00  0.00000000000E+00  0.45593999997E+02  0.45594000000E+02  0.51100000000E-03 0.  1.
         11   -1    0    0    0    0 -0.00000000000E+00 -0.00000000000E+00 -0.45593999997E+02  0.45594000000E+02  0.51100000000E-03 0. -1.
    9900012    2    1    2    0    0 -0.23602478790E+02  0.10056824965E+02  0.31542807148E+02  0.50528863066E+02  0.30000009776E+02 0.  0.
        -12    1    1    2    0    0  0.23602478790E+02 -0.10056824965E+02 -0.31542807148E+02  0.40659136934E+02  0.00000000000E+00 0.  1.
         11    1    3    3    0    0 -0.47122476845E+01  0.95187130758E+01  0.36752389534E+01  0.11239152926E+02  0.51100000000E-03 0. -1.
        -11    1    3    3    0    0 -0.51949775154E+01  0.10780770409E+00 -0.26532331339E+01  0.58343003188E+01  0.51100000000E-03 0.  1.
        -12    1    3    3    0    0 -0.13695253590E+02  0.43030418542E+00  0.30520801329E+02  0.33455409822E+02  0.00000000000E+00 0.  1.
</event>
<event>
 7    1  0.5843820E-012  0.5052886E+02  0.7816164E-02  0.1300439E+00
        -11   -1    0    0    0    0  0.00000000000E+00  0.00000000000E+00  0.45593999997E+02  0.45594000000E+02  0.51100000000E-03 0. -1.
         11   -1    0    0    0    0 -0.00000000000E+00 -0.00000000000E+00 -0.45593999997E+02  0.45594000000E+02  0.51100000000E-03 0.  1.
    9900012    2    1    2    0    0 -0.36434109743E+02  0.10674267655E+02 -0.14552717003E+02  0.50528856934E+02  0.29999991136E+02 0.  0.
         12    1    1    2    0    0  0.36434109743E+02 -0.10674267655E+02  0.14552717003E+02  0.40659143066E+02  0.00000000000E+00 0. -1.
         11    1    3    3    0    0 -0.16377602791E+02  0.49030582487E+01  0.84333088856E+00  0.17116572689E+02  0.51100000000E-03 0. -1.
        -11    1    3    3    0    0 -0.23179673207E+02  0.98836457984E+00 -0.15121242281E+02  0.27693430320E+02  0.51100000000E-03 0.  1.
        -12    1    3    3    0    0  0.31231662547E+01  0.47828448265E+01 -0.27480560980E+00  0.57188539247E+01  0.00000000000E+00 0.  1.
</event>
<event>
 7    1  0.5843820E-012  0.5052885E+02  0.7816164E-02  0.1300439E+00
        -11   -1    0    0    0    0  0.00000000000E+00  0.00000000000E+00  0.45593999997E+02  0.45594000000E+02  0.51100000000E-03 0. -1.
         11   -1    0    0    0    0 -0.00000000000E+00 -0.00000000000E+00 -0.45593999997E+02  0.45594000000E+02  0.51100000000E-03 0.  1.
    9900012    2    1    2    0    0 -0.17877293383E+02  0.17900027108E+02  0.31830136692E+02  0.50528853538E+02  0.29999980815E+02 0.  0.
        -12    1    1    2    0    0  0.17877293383E+02 -0.17900027108E+02 -0.31830136692E+02  0.40659146462E+02  0.00000000000E+00 0.  1.
         11    1    3    3    0    0 -0.61467536955E+00  0.43469261938E+01 -0.96963937345E+00  0.44959753024E+01  0.51100000000E-03 0. -1.
        -11    1    3    3    0    0  0.38509030907E+01 -0.15736866515E+01 -0.44013154791E-01  0.41602742350E+01  0.51100000000E-03 0.  1.
         12    1    3    3    0    0 -0.21113521105E+02  0.15126787566E+02  0.32843789220E+02  0.41872604001E+02  0.00000000000E+00 0. -1.
</event>
<event>
 7    1  0.5843820E-012  0.5052886E+02  0.7816164E-02  0.1300439E+00
        -11   -1    0    0    0    0  0.00000000000E+00  0.00000000000E+00  0.45593999997E+02  0.45594000000E+02  0.51100000000E-03 0. -1.
         11   -1    0    0    0    0 -0.00000000000E+00 -0.00000000000E+00 -0.45593999997E+02  0.45594000000E+02  0.51100000000E-03 0.  1.
    9900012    2    1    2    0    0  0.77380645732E+01  0.22671734583E+02  0.32852404522E+02  0.50528859881E+02  0.30000000094E+02 0.  0.
        -12    1    1    2    0    0 -0.77380645732E+01 -0.22671734583E+02 -0.32852404522E+02  0.40659140119E+02  0.00000000000E+00 0.  1.
         11    1    3    3    0    0  0.11616025981E+02  0.65836961880E+01  0.15048458237E+02  0.20117982271E+02  0.51100000000E-03 0. -1.
        -11    1    3    3    0    0 -0.21518908756E+00 -0.24965693404E-01 -0.34681449037E+01  0.34749041661E+01  0.51100000000E-03 0.  1.
         12    1    3    3    0    0 -0.36627723206E+01  0.16113004088E+02  0.21272091189E+02  0.26935973444E+02  0.00000000000E+00 0. -1.
</event>
<event>
 7    1  0.5843820E-012  0.5052887E+02  0.7816164E-02  0.1300439E+00
        -11   -1    0    0    0    0  0.00000000000E+00  0.00000000000E+00  0.45593999997E+02  0.45594000000E+02  0.51100000000E-03 0. -1.
         11   -1    0    0    0    0 -0.00000000000E+00 -0.00000000000E+00 -0.45593999997E+02  0.45594000000E+02  0.51100000000E-03 0.  1.
    9900012    2    1    2    0    0  0.69668151557E+01 -0.36682250638E+02  0.16094733812E+02  0.50528874557E+02  0.30000044704E+02 0.  0.
        -12    1    1    2    0    0 -0.69668151557E+01  0.36682250638E+02 -0.16094733812E+02  0.40659125443E+02  0.00000000000E+00 0.  1.
         11    1    3    3    0    0  0.88982471453E+01 -0.24511990466E+02  0.16795902486E+02  0.31018040226E+02  0.51100000000E-03 0. -1.
        -11    1    3    3    0    0  0.64368152617E+01 -0.58732605222E+01  0.14109918373E+01  0.88271557197E+01  0.51100000000E-03 0.  1.
         12    1    3    3    0    0 -0.83682472513E+01 -0.62969996497E+01 -0.21121605111E+01  0.10683678611E+02  0.00000000000E+00 0. -1.
</event>
<event>
 7    1  0.5843820E-012  0.5052888E+02  0.7816164E-02  0.1300439E+00
        -11   -1    0    0    0    0  0.00000000000E+00  0.00000000000E+00  0.45593999997E+02  0.45594000000E+02  0.51100000000E-03 0. -1.
         11   -1    0    0    0    0 -0.00000000000E+00 -0.00000000000E+00 -0.45593999997E+02  0.45594000000E+02  0.51100000000E-03 0.  1.
    9900012    2    1    2    0    0  0.28008914841E+02 -0.14181142269E+02  0.25837187357E+02  0.50528876090E+02  0.30000049362E+02 0.  0.
        -12    1    1    2    0    0 -0.28008914841E+02  0.14181142269E+02 -0.25837187357E+02  0.40659123910E+02  0.00000000000E+00 0.  1.
         11    1    3    3    0    0  0.22059022104E+02 -0.31120931284E+01  0.16530412788E+02  0.27740586278E+02  0.51100000000E-03 0. -1.
        -11    1    3    3    0    0  0.65231403486E+01 -0.15211989241E+02  0.81471754223E+01  0.18448101374E+02  0.51100000000E-03 0.  1.
        -12    1    3    3    0    0 -0.57324761145E+00  0.41429401004E+01  0.11595991467E+01  0.43401884383E+01  0.00000000000E+00 0.  1.
</event>
<event>
 7    1  0.5843820E-012  0.5052886E+02  0.7816164E-02  0.1300439E+00
        -11   -1    0    0    0    0  0.00000000000E+00  0.00000000000E+00  0.45593999997E+02  0.45594000000E+02  0.51100000000E-03 0. -1.
         11   -1    0    0    0    0 -0.00000000000E+00 -0.00000000000E+00 -0.45593999997E+02  0.45594000000E+02  0.51100000000E-03 0.  1.
    9900012    2    1    2    0    0  0.31079223321E+02  0.59414196411E+01 -0.25533250787E+02  0.50528862215E+02  0.30000007190E+02 0.  0.
         12    1    1    2    0    0 -0.31079223321E+02 -0.59414196411E+01  0.25533250787E+02  0.40659137785E+02  0.00000000000E+00 0. -1.
         11    1    3    3    0    0  0.58609897282E+01  0.11035554199E+02 -0.15684971662E+02  0.20053752601E+02  0.51100000000E-03 0. -1.
        -11    1    3    3    0    0  0.39026931712E+01 -0.29419055086E+00 -0.75514690041E+01  0.85054245308E+01  0.51100000000E-03 0.  1.
        -12    1    3    3    0    0  0.21315540422E+02 -0.47999440076E+01 -0.22968101217E+01  0.21969685084E+02  0.00000000000E+00 0.  1.
</event>
<event>
 7    1  0.5843820E-012  0.5052886E+02  0.7816164E-02  0.1300439E+00
        -11   -1    0    0    0    0  0.00000000000E+00  0.00000000000E+00  0.45593999997E+02  0.45594000000E+02  0.51100000000E-03 0. -1.
         11   -1    0    0    0    0 -0.00000000000E+00 -0.00000000000E+00 -0.45593999997E+02  0.45594000000E+02  0.51100000000E-03 0.  1.
    9900012    2    1    2    0    0 -0.19028970382E+02 -0.33981017738E+02  0.11677085707E+02  0.50528860672E+02  0.30000002499E+02 0.  0.
        -12    1    1    2    0    0  0.19028970382E+02  0.33981017738E+02 -0.11677085707E+02  0.40659139328E+02  0.00000000000E+00 0.  1.
         11    1    3    3    0    0 -0.19062817666E+02 -0.13026704556E+02  0.12080270804E+02  0.26057992860E+02  0.51100000000E-03 0.  1.
        -11    1    3    3    0    0 -0.47824714482E+01 -0.48330842718E+01  0.27824905998E+01  0.73466312640E+01  0.51100000000E-03 0. -1.
        -12    1    3    3    0    0  0.48163187323E+01 -0.16121228910E+02 -0.31856756966E+01  0.17124236548E+02  0.00000000000E+00 0.  1.
</event>
<event>
 7    1  0.6225188E-012  0.5052887E+02  0.7816164E-02  0.1300439E+00
        -11   -1    0    0    0    0  0.00000000000E+00  0.00000000000E+00  0.45593999997E+02  0.45594000000E+02  0.51100000000E-03 0. -1.
         11   -1    0    0    0    0 -0.00000000000E+00 -0.00000000000E+00 -0.45593999997E+02  0.45594000000E+02  0.51100000000E-03 0.  1.
    9900012    2    1    2    0    0 -0.12314710895E+02  0.34334179135E+01 -0.38596943387E+02  0.50528874310E+02  0.30000043954E+02 0.  0.
         12    1    1    2    0    0  0.12314710895E+02 -0.34334179135E+01  0.38596943387E+02  0.40659125690E+02  0.00000000000E+00 0. -1.
         11    1    3    3    0    0 -0.45701379113E+01 -0.62734076467E+01 -0.31112129035E+01  0.83619046887E+01  0.51100000000E-03 0. -1.
        -11    1    3    3    0    0  0.20421780879E+01 -0.14761971993E+00  0.15789752918E+01  0.25856229729E+01  0.51100000000E-03 0.  1.
        -12    1    3    3    0    0 -0.97867510721E+01  0.98544452802E+01 -0.37064705775E+02  0.39581346649E+02  0.00000000000E+00 0.  1.
</event>
<event>
 7    1  0.5843820E-012  0.5052895E+02  0.7816164E-02  0.1300438E+00
        -11   -1    0    0    0    0  0.00000000000E+00  0.00000000000E+00  0.45593999997E+02  0.45594000000E+02  0.51100000000E-03 0. -1.
         11   -1    0    0    0    0 -0.00000000000E+00 -0.00000000000E+00 -0.45593999997E+02  0.45594000000E+02  0.51100000000E-03 0.  1.
    9900012    2    1    2    0    0  0.16679980876E+02 -0.15118976376E+02 -0.33857837497E+02  0.50528949733E+02  0.30000273206E+02 0.  0.
         12    1    1    2    0    0 -0.16679980876E+02  0.15118976376E+02  0.33857837497E+02  0.40659050267E+02  0.00000000000E+00 0. -1.
         11    1    3    3    0    0  0.59101232744E+00  0.69350988003E-01 -0.12949549170E+01  0.14251363545E+01  0.51100000000E-03 0. -1.
        -11    1    3    3    0    0  0.23698707786E+02 -0.63183305084E+01 -0.17955326066E+02  0.30396443633E+02  0.51100000000E-03 0.  1.
         12    1    3    3    0    0 -0.76097392373E+01 -0.88699968557E+01 -0.14607556513E+02  0.18707369745E+02  0.00000000000E+00 0. -1.
</event>
<event>
 7    1  0.5843820E-012  0.5052885E+02  0.7816164E-02  0.1300439E+00
        -11   -1    0    0    0    0  0.00000000000E+00  0.00000000000E+00  0.45593999997E+02  0.45594000000E+02  0.51100000000E-03 0. -1.
         11   -1    0    0    0    0 -0.00000000000E+00 -0.00000000000E+00 -0.45593999997E+02  0.45594000000E+02  0.51100000000E-03 0.  1.
    9900012    2    1    2    0    0 -0.17584384842E+02  0.86896477761E+01  0.35615243081E+02  0.50528854553E+02  0.29999983900E+02 0.  0.
        -12    1    1    2    0    0  0.17584384842E+02 -0.86896477761E+01 -0.35615243081E+02  0.40659145447E+02  0.00000000000E+00 0.  1.
         11    1    3    3    0    0 -0.41721655463E+01 -0.30377761177E+01  0.21042788795E+01  0.55734225526E+01  0.51100000000E-03 0. -1.
        -11    1    3    3    0    0 -0.39137024674E+01  0.47056916973E+01 -0.28298998000E+01  0.67430656598E+01  0.51100000000E-03 0.  1.
        -12    1    3    3    0    0 -0.94985168283E+01  0.70217321964E+01  0.36340864002E+02  0.38212366341E+02  0.00000000000E+00 0.  1.
</event>
<event>
 7    1  0.5843820E-012  0.5052886E+02  0.7816164E-02  0.1300439E+00
        -11   -1    0    0    0    0  0.00000000000E+00  0.00000000000E+00  0.45593999997E+02  0.45594000000E+02  0.51100000000E-03 0. -1.
         11   -1    0    0    0    0 -0.00000000000E+00 -0.00000000000E+00 -0.45593999997E+02  0.45594000000E+02  0.51100000000E-03 0.  1.
    9900012    2    1    2    0    0  0.17193188792E+02 -0.73756368873E+00 -0.36837700513E+02  0.50528856870E+02  0.29999990941E+02 0.  0.
         12    1    1    2    0    0 -0.17193188792E+02  0.73756368873E+00  0.36837700513E+02  0.40659143130E+02  0.00000000000E+00 0. -1.
         11    1    3    3    0    0  0.53216222223E+01 -0.45652937959E+01 -0.59066706379E+00  0.70363668438E+01  0.51100000000E-03 0. -1.
        -11    1    3    3    0    0  0.15340588869E+02  0.28603551818E+01 -0.14027514260E+02  0.20983003960E+02  0.51100000000E-03 0.  1.
         12    1    3    3    0    0 -0.34690222996E+01  0.96737492534E+00 -0.22219519189E+02  0.22509486066E+02  0.00000000000E+00 0. -1.
</event>
<event>
 7    1  0.5843820E-012  0.5052886E+02  0.7816164E-02  0.1300439E+00
        -11   -1    0    0    0    0  0.00000000000E+00  0.00000000000E+00  0.45593999997E+02  0.45594000000E+02  0.51100000000E-03 0. -1.
         11   -1    0    0    0    0 -0.00000000000E+00 -0.00000000000E+00 -0.45593999997E+02  0.45594000000E+02  0.51100000000E-03 0.  1.
    9900012    2    1    2    0    0  0.76021954735E+01 -0.26521696255E+02  0.29865898627E+02  0.50528860203E+02  0.30000001074E+02 0.  0.
        -12    1    1    2    0    0 -0.76021954735E+01  0.26521696255E+02 -0.29865898627E+02  0.40659139797E+02  0.00000000000E+00 0.  1.
         11    1    3    3    0    0  0.18839269026E+01 -0.98733707520E+01  0.18539621629E+02  0.21089101474E+02  0.51100000000E-03 0. -1.
        -11    1    3    3    0    0  0.93476432880E+01 -0.15658210322E+02  0.15418766038E+02  0.23880877956E+02  0.51100000000E-03 0.  1.
        -12    1    3    3    0    0 -0.36293747171E+01 -0.99011518067E+00 -0.40924890406E+01  0.55588807736E+01  0.00000000000E+00 0.  1.
</event>
<event>
 7    1  0.5843820E-012  0.5052886E+02  0.7816164E-02  0.1300439E+00
        -11   -1    0    0    0    0  0.00000000000E+00  0.00000000000E+00  0.45593999997E+02  0.45594000000E+02  0.51100000000E-03 0. -1.
         11   -1    0    0    0    0 -0.00000000000E+00 -0.00000000000E+00 -0.45593999997E+02  0.45594000000E+02  0.51100000000E-03 0.  1.
    9900012    2    1    2    0    0 -0.68955857293E+01 -0.19524006523E+02  0.34991851640E+02  0.50528860628E+02  0.30000002365E+02 0.  0.
        -12    1    1    2    0    0  0.68955857293E+01  0.19524006523E+02 -0.34991851640E+02  0.40659139372E+02  0.00000000000E+00 0.  1.
         11    1    3    3    0    0 -0.55509705854E+01 -0.24263718838E+01  0.22018554750E+01  0.64458298730E+01  0.51100000000E-03 0. -1.
        -11    1    3    3    0    0  0.18942527977E+01  0.41521595228E+01 -0.35558436714E+00  0.45776700261E+01  0.51100000000E-03 0.  1.
         12    1    3    3    0    0 -0.32388679416E+01 -0.21249794162E+02  0.33145580532E+02  0.39505360729E+02  0.00000000000E+00 0. -1.
</event>
<event>
 7    1  0.5843820E-012  0.5052886E+02  0.7816164E-02  0.1300439E+00
        -11   -1    0    0    0    0  0.00000000000E+00  0.00000000000E+00  0.45593999997E+02  0.45594000000E+02  0.51100000000E-03 0.  1.
         11   -1    0    0    0    0 -0.00000000000E+00 -0.00000000000E+00 -0.45593999997E+02  0.45594000000E+02  0.51100000000E-03 0. -1.
    9900012    2    1    2    0    0  0.37333314093E+02 -0.24672134472E+01 -0.15915464748E+02  0.50528862017E+02  0.30000006587E+02 0.  0.
        -12    1    1    2    0    0 -0.37333314093E+02  0.24672134472E+01  0.15915464748E+02  0.40659137983E+02  0.00000000000E+00 0.  1.
         11    1    3    3    0    0  0.16848534537E+02  0.59662893699E+01 -0.17893594442E+02  0.25291311694E+02  0.51100000000E-03 0. -1.
        -11    1    3    3    0    0  0.21534078441E+01  0.82453995510E+00  0.39840775538E+01  0.46032494714E+01  0.51100000000E-03 0.  1.
        -12    1    3    3    0    0  0.18331371712E+02 -0.92580427721E+01 -0.20059478595E+01  0.20634300851E+02  0.00000000000E+00 0.  1.
</event>
<event>
 7    1  0.5843820E-012  0.5052887E+02  0.7816164E-02  0.1300439E+00
        -11   -1    0    0    0    0  0.00000000000E+00  0.00000000000E+00  0.45593999997E+02  0.45594000000E+02  0.51100000000E-03 0. -1.
         11   -1    0    0    0    0 -0.00000000000E+00 -0.00000000000E+00 -0.45593999997E+02  0.45594000000E+02  0.51100000000E-03 0.  1.
    9900012    2    1    2    0    0  0.27945087825E+02 -0.29585438752E+01  0.29385102195E+02  0.50528866384E+02  0.30000019859E+02 0.  0.
        -12    1    1    2    0    0 -0.27945087825E+02  0.29585438752E+01 -0.29385102195E+02  0.40659133616E+02  0.00000000000E+00 0.  1.
         11    1    3    3    0    0  0.99329660592E+00  0.10317441679E+01  0.15973471095E+01  0.21453792729E+01  0.51100000000E-03 0. -1.
        -11    1    3    3    0    0  0.30517007074E+01  0.94507298203E+01  0.88674168057E+00  0.99707312878E+01  0.51100000000E-03 0.  1.
         12    1    3    3    0    0  0.23900090512E+02 -0.13441017863E+02  0.26901013405E+02  0.38412755823E+02  0.00000000000E+00 0. -1.
</event>
<event>
 7    1  0.5843820E-012  0.5052886E+02  0.7816164E-02  0.1300439E+00
        -11   -1    0    0    0    0  0.00000000000E+00  0.00000000000E+00  0.45593999997E+02  0.45594000000E+02  0.51100000000E-03 0.  1.
         11   -1    0    0    0    0 -0.00000000000E+00 -0.00000000000E+00 -0.45593999997E+02  0.45594000000E+02  0.51100000000E-03 0. -1.
    9900012    2    1    2    0    0 -0.22958466671E+02  0.32685623476E+02  0.75976589868E+01  0.50528860855E+02  0.30000003056E+02 0.  0.
        -12    1    1    2    0    0  0.22958466671E+02 -0.32685623476E+02 -0.75976589868E+01  0.40659139145E+02  0.00000000000E+00 0.  1.
         11    1    3    3    0    0 -0.15644511690E+02  0.61798121433E+01  0.70276715632E+01  0.18229892814E+02  0.51100000000E-03 0.  1.
        -11    1    3    3    0    0 -0.59434534440E+01  0.11181588374E+02  0.82397629801E+01  0.15107820876E+02  0.51100000000E-03 0. -1.
        -12    1    3    3    0    0 -0.13705015364E+01  0.15324222959E+02 -0.76697755565E+01  0.17191147165E+02  0.00000000000E+00 0.  1.
</event>
<event>
 7    1  0.5843820E-012  0.5052886E+02  0.7816164E-02  0.1300439E+00
        -11   -1    0    0    0    0  0.00000000000E+00  0.00000000000E+00  0.45593999997E+02  0.45594000000E+02  0.51100000000E-03 0.  1.
         11   -1    0    0    0    0 -0.00000000000E+00 -0.00000000000E+00 -0.45593999997E+02  0.45594000000E+02  0.51100000000E-03 0. -1.
    9900012    2    1    2    0    0 -0.36962279153E+02  0.16858002199E+02 -0.16622253986E+01  0.50528864352E+02  0.30000013686E+02 0.  0.
         12    1    1    2    0    0  0.36962279153E+02 -0.16858002199E+02  0.16622253986E+01  0.40659135648E+02  0.00000000000E+00 0. -1.
         11    1    3    3    0    0 -0.13812402800E+02  0.43737413874E+01  0.31795682020E+01  0.14833129780E+02  0.51100000000E-03 0.  1.
        -11    1    3    3    0    0 -0.97616067790E+01  0.34179355371E+01 -0.13772870622E+02  0.17223914064E+02  0.51100000000E-03 0. -1.
         12    1    3    3    0    0 -0.13388269574E+02  0.90663252742E+01  0.89310770214E+01  0.18471820509E+02  0.00000000000E+00 0. -1.
</event>
<event>
 7    1  0.5843820E-012  0.5052884E+02  0.7816164E-02  0.1300439E+00
        -11   -1    0    0    0    0  0.00000000000E+00  0.00000000000E+00  0.45593999997E+02  0.45594000000E+02  0.51100000000E-03 0. -1.
         11   -1    0    0    0    0 -0.00000000000E+00 -0.00000000000E+00 -0.45593999997E+02  0.45594000000E+02  0.51100000000E-03 0.  1.
    9900012    2    1    2    0    0  0.32537894588E+02 -0.24315003085E+02 -0.17980708064E+01  0.50528843370E+02  0.29999949907E+02 0.  0.
        -12    1    1    2    0    0 -0.32537894588E+02  0.24315003085E+02  0.17980708064E+01  0.40659156630E+02  0.00000000000E+00 0.  1.
         11    1    3    3    0    0 -0.13662102180E+01 -0.34110388044E+01 -0.25228132100E+01  0.44571630931E+01  0.51100000000E-03 0.  1.
        -11    1    3    3    0    0 -0.61260459413E+00 -0.84370038099E+01 -0.34502932136E+01  0.91357999758E+01  0.51100000000E-03 0. -1.
         12    1    3    3    0    0  0.34516709400E+02 -0.12466960470E+02  0.41750356172E+01  0.36935880301E+02  0.00000000000E+00 0. -1.
</event>
<event>
 7    1  0.5843820E-012  0.5052886E+02  0.7816164E-02  0.1300439E+00
        -11   -1    0    0    0    0  0.00000000000E+00  0.00000000000E+00  0.45593999997E+02  0.45594000000E+02  0.51100000000E-03 0. -1.
         11   -1    0    0    0    0 -0.00000000000E+00 -0.00000000000E+00 -0.45593999997E+02  0.45594000000E+02  0.51100000000E-03 0.  1.
    9900012    2    1    2    0    0  0.21712953273E+02 -0.27442798956E+02  0.20702806056E+02  0.50528859171E+02  0.29999997936E+02 0.  0.
        -12    1    1    2    0    0 -0.21712953273E+02  0.27442798956E+02 -0.20702806056E+02  0.40659140829E+02  0.00000000000E+00 0.  1.
         11    1    3    3    0    0  0.12947916857E+01 -0.34000926661E+01 -0.19951557063E+01  0.41494291415E+01  0.51100000000E-03 0. -1.
        -11    1    3    3    0    0  0.13565176455E+02 -0.31200876051E+00  0.11786698012E+01  0.13619861397E+02  0.51100000000E-03 0.  1.
         12    1    3    3    0    0  0.68529851321E+01 -0.23730697530E+02  0.21519291961E+02  0.32759568632E+02  0.00000000000E+00 0. -1.
</event>
<event>
 7    1  0.5843820E-012  0.5052885E+02  0.7816164E-02  0.1300439E+00
        -11   -1    0    0    0    0  0.00000000000E+00  0.00000000000E+00  0.45593999997E+02  0.45594000000E+02  0.51100000000E-03 0. -1.
         11   -1    0    0    0    0 -0.00000000000E+00 -0.00000000000E+00 -0.45593999997E+02  0.45594000000E+02  0.51100000000E-03 0.  1.
    9900012    2    1    2    0    0  0.10854932636E+02 -0.27228344622E+02  0.28177193787E+02  0.50528848963E+02  0.29999966907E+02 0.  0.
        -12    1    1    2    0    0 -0.10854932636E+02  0.27228344622E+02 -0.28177193787E+02  0.40659151037E+02  0.00000000000E+00 0.  1.
         11    1    3    3    0    0  0.31335016710E+01  0.13020024966E+01  0.16514465826E+01  0.37737672556E+01  0.51100000000E-03 0. -1.
        -11    1    3    3    0    0  0.12061915830E+01  0.34301728322E+01  0.90446532324E+01  0.97481657838E+01  0.51100000000E-03 0.  1.
        -12    1    3    3    0    0  0.65152393824E+01 -0.31960519950E+02  0.17481093972E+02  0.37006915923E+02  0.00000000000E+00 0.  1.
</event>
<event>
 7    1  0.5843820E-012  0.5052885E+02  0.7816164E-02  0.1300439E+00
        -11   -1    0    0    0    0  0.00000000000E+00  0.00000000000E+00  0.45593999997E+02  0.45594000000E+02  0.51100000000E-03 0. -1.
         11   -1    0    0    0    0 -0.00000000000E+00 -0.00000000000E+00 -0.45593999997E+02  0.45594000000E+02  0.51100000000E-03 0.  1.
    9900012    2    1    2    0    0 -0.27020485826E+02  0.93156454725E+01 -0.28918487505E+02  0.50528845749E+02  0.29999957139E+02 0.  0.
         12    1    1    2    0    0  0.27020485826E+02 -0.93156454725E+01  0.28918487505E+02  0.40659154251E+02  0.00000000000E+00 0. -1.
         11    1    3    3    0    0  0.18642303521E+01 -0.51786701415E+00 -0.35072952508E+01  0.40055787706E+01  0.51100000000E-03 0. -1.
        -11    1    3    3    0    0 -0.88928472165E+01  0.34853975204E+00 -0.22510785362E+02  0.24206190725E+02  0.51100000000E-03 0.  1.
         12    1    3    3    0    0 -0.19991868961E+02  0.94849727346E+01 -0.29004068927E+01  0.22317076253E+02  0.00000000000E+00 0. -1.
</event>
<event>
 7    1  0.6023629E-012  0.5052886E+02  0.7816164E-02  0.1300439E+00
        -11   -1    0    0    0    0  0.00000000000E+00  0.00000000000E+00  0.45593999997E+02  0.45594000000E+02  0.51100000000E-03 0. -1.
         11   -1    0    0    0    0 -0.00000000000E+00 -0.00000000000E+00 -0.45593999997E+02  0.45594000000E+02  0.51100000000E-03 0.  1.
    9900012    2    1    2    0    0 -0.16338912783E+02 -0.97188556955E+01 -0.35940917685E+02  0.50528858457E+02  0.29999995767E+02 0.  0.
         12    1    1    2    0    0  0.16338912783E+02  0.97188556955E+01  0.35940917685E+02  0.40659141543E+02  0.00000000000E+00 0. -1.
         11    1    3    3    0    0 -0.40902877194E+01 -0.48955648094E+01  0.21009255726E+01  0.67164646171E+01  0.51100000000E-03 0. -1.
        -11    1    3    3    0    0 -0.41737507089E+01 -0.71489867209E+01 -0.48953098495E+01  0.96172898937E+01  0.51100000000E-03 0.  1.
        -12    1    3    3    0    0 -0.80748743549E+01  0.23256958347E+01 -0.33146533408E+02  0.34195103946E+02  0.00000000000E+00 0.  1.
</event>
<event>
 7    1  0.5843820E-012  0.5052886E+02  0.7816164E-02  0.1300439E+00
        -11   -1    0    0    0    0  0.00000000000E+00  0.00000000000E+00  0.45593999997E+02  0.45594000000E+02  0.51100000000E-03 0. -1.
         11   -1    0    0    0    0 -0.00000000000E+00 -0.00000000000E+00 -0.45593999997E+02  0.45594000000E+02  0.51100000000E-03 0.  1.
    9900012    2    1    2    0    0  0.13639960250E+02 -0.32456816856E+02  0.20338941212E+02  0.50528855817E+02  0.29999987742E+02 0.  0.
        -12    1    1    2    0    0 -0.13639960250E+02  0.32456816856E+02 -0.20338941212E+02  0.40659144183E+02  0.00000000000E+00 0.  1.
         11    1    3    3    0    0  0.80120933635E+00 -0.47838002845E+01 -0.52088850467E+01  0.71175252197E+01  0.51100000000E-03 0. -1.
        -11    1    3    3    0    0  0.54197846905E+01 -0.93611392980E+01 -0.36788947530E+00  0.10823139007E+02  0.51100000000E-03 0.  1.
         12    1    3    3    0    0  0.74189662236E+01 -0.18311877273E+02  0.25915715734E+02  0.32588191590E+02  0.00000000000E+00 0. -1.
</event>
<event>
 7    1  0.5843820E-012  0.5052881E+02  0.7816164E-02  0.1300439E+00
        -11   -1    0    0    0    0  0.00000000000E+00  0.00000000000E+00  0.45593999997E+02  0.45594000000E+02  0.51100000000E-03 0. -1.
         11   -1    0    0    0    0 -0.00000000000E+00 -0.00000000000E+00 -0.45593999997E+02  0.45594000000E+02  0.51100000000E-03 0.  1.
    9900012    2    1    2    0    0  0.32145524369E+02 -0.92223061455E+01 -0.23125400596E+02  0.50528808907E+02  0.29999845152E+02 0.  0.
         12    1    1    2    0    0 -0.32145524369E+02  0.92223061455E+01  0.23125400596E+02  0.40659191093E+02  0.00000000000E+00 0. -1.
         11    1    3    3    0    0  0.26774908563E+02 -0.15423410017E+02 -0.17195571343E+02  0.35361914247E+02  0.51100000000E-03 0. -1.
        -11    1    3    3    0    0  0.56219669391E+01 -0.94952841819E+00  0.25782222602E+00  0.57074152681E+01  0.51100000000E-03 0.  1.
         12    1    3    3    0    0 -0.25135113297E+00  0.71506322897E+01 -0.61876514793E+01  0.94594793918E+01  0.00000000000E+00 0. -1.
</event>
<event>
 7    1  0.5843820E-012  0.5052886E+02  0.7816164E-02  0.1300439E+00
        -11   -1    0    0    0    0  0.00000000000E+00  0.00000000000E+00  0.45593999997E+02  0.45594000000E+02  0.51100000000E-03 0. -1.
         11   -1    0    0    0    0 -0.00000000000E+00 -0.00000000000E+00 -0.45593999997E+02  0.45594000000E+02  0.51100000000E-03 0.  1.
    9900012    2    1    2    0    0 -0.19591644268E+02  0.11349114949E+02  0.33771738750E+02  0.50528864822E+02  0.30000015113E+02 0.  0.
        -12    1    1    2    0    0  0.19591644268E+02 -0.11349114949E+02 -0.33771738750E+02  0.40659135178E+02  0.00000000000E+00 0.  1.
         11    1    3    3    0    0 -0.55054631061E+01  0.14077369463E+02  0.16292629351E+02  0.22224586081E+02  0.51100000000E-03 0. -1.
        -11    1    3    3    0    0 -0.19722340743E+01  0.66498930717E+01  0.57620884766E+01  0.90173415695E+01  0.51100000000E-03 0.  1.
        -12    1    3    3    0    0 -0.12113947088E+02 -0.93781475859E+01  0.11717020922E+02  0.19286937172E+02  0.00000000000E+00 0.  1.
</event>
<event>
 7    1  0.5843820E-012  0.5052889E+02  0.7816164E-02  0.1300439E+00
        -11   -1    0    0    0    0  0.00000000000E+00  0.00000000000E+00  0.45593999997E+02  0.45594000000E+02  0.51100000000E-03 0. -1.
         11   -1    0    0    0    0 -0.00000000000E+00 -0.00000000000E+00 -0.45593999997E+02  0.45594000000E+02  0.51100000000E-03 0.  1.
    9900012    2    1    2    0    0 -0.19039264636E+01 -0.16777323162E+02  0.36987290732E+02  0.50528890515E+02  0.30000093208E+02 0.  0.
        -12    1    1    2    0    0  0.19039264636E+01  0.16777323162E+02 -0.36987290732E+02  0.40659109485E+02  0.00000000000E+00 0.  1.
         11    1    3    3    0    0 -0.89806906855E+01 -0.78304750459E+01  0.48821626993E+01  0.12876515737E+02  0.51100000000E-03 0. -1.
        -11    1    3    3    0    0 -0.18475121682E+01  0.10754669241E+01 -0.66675029092E+00  0.22393049208E+01  0.51100000000E-03 0.  1.
        -12    1    3    3    0    0  0.89242763902E+01 -0.10022315040E+02  0.32771878324E+02  0.35413069857E+02  0.00000000000E+00 0.  1.
</event>
<event>
 7    1  0.5843820E-012  0.5052886E+02  0.7816164E-02  0.1300439E+00
        -11   -1    0    0    0    0  0.00000000000E+00  0.00000000000E+00  0.45593999997E+02  0.45594000000E+02  0.51100000000E-03 0.  1.
         11   -1    0    0    0    0 -0.00000000000E+00 -0.00000000000E+00 -0.45593999997E+02  0.45594000000E+02  0.51100000000E-03 0. -1.
    9900012    2    1    2    0    0  0.39105736964E+02 -0.10999026532E+02 -0.17112779167E+01  0.50528859327E+02  0.29999998411E+02 0.  0.
         12    1    1    2    0    0 -0.39105736964E+02  0.10999026532E+02  0.17112779167E+01  0.40659140673E+02  0.00000000000E+00 0. -1.
         11    1    3    3    0    0 -0.26419912192E+01  0.59810216292E+00  0.15465629403E+00  0.27132568308E+01  0.51100000000E-03 0. -1.
        -11    1    3    3    0    0  0.18603861588E+02  0.41540051475E+01  0.33060584809E+01  0.19346561650E+02  0.51100000000E-03 0.  1.
         12    1    3    3    0    0  0.23143866595E+02 -0.15751133842E+02 -0.51719926916E+01  0.28469040846E+02  0.00000000000E+00 0. -1.
</event>
<event>
 7    1  0.5843820E-012  0.5052884E+02  0.7816164E-02  0.1300439E+00
        -11   -1    0    0    0    0  0.00000000000E+00  0.00000000000E+00  0.45593999997E+02  0.45594000000E+02  0.51100000000E-03 0. -1.
         11   -1    0    0    0    0 -0.00000000000E+00 -0.00000000000E+00 -0.45593999997E+02  0.45594000000E+02  0.51100000000E-03 0.  1.
    9900012    2    1    2    0    0 -0.28306020493E+02 -0.10517940883E+00 -0.29187756052E+02  0.50528844054E+02  0.29999951988E+02 0.  0.
         12    1    1    2    0    0  0.28306020493E+02  0.10517940883E+00  0.29187756052E+02  0.40659155946E+02  0.00000000000E+00 0. -1.
         11    1    3    3    0    0 -0.83118598034E+01  0.84549762748E+01 -0.90706815937E+01  0.14928191519E+02  0.51100000000E-03 0. -1.
        -11    1    3    3    0    0 -0.13897929727E+02  0.13767856270E+01 -0.19422055028E+02  0.23922044460E+02  0.51100000000E-03 0.  1.
         12    1    3    3    0    0 -0.60962309632E+01 -0.99369413107E+01 -0.69501942945E+00  0.11678608075E+02  0.00000000000E+00 0. -1.
</event>
<event>
 7    1  0.5843820E-012  0.5052886E+02  0.7816164E-02  0.1300439E+00
        -11   -1    0    0    0    0  0.00000000000E+00  0.00000000000E+00  0.45593999997E+02  0.45594000000E+02  0.51100000000E-03 0. -1.
         11   -1    0    0    0    0 -0.00000000000E+00 -0.00000000000E+00 -0.45593999997E+02  0.45594000000E+02  0.51100000000E-03 0.  1.
    9900012    2    1    2    0    0 -0.21200178454E+02 -0.28114782114E+02 -0.20329221032E+02  0.50528858745E+02  0.29999996643E+02 0.  0.
         12    1    1    2    0    0  0.21200178454E+02  0.28114782114E+02  0.20329221032E+02  0.40659141255E+02  0.00000000000E+00 0. -1.
         11    1    3    3    0    0 -0.64256280571E+01 -0.46225379136E+01  0.62354044400E+01  0.10076548094E+02  0.51100000000E-03 0. -1.
        -11    1    3    3    0    0 -0.71931976900E+01 -0.16631236652E+01 -0.70080958672E+01  0.10179463703E+02  0.51100000000E-03 0.  1.
        -12    1    3    3    0    0 -0.75813527067E+01 -0.21829120535E+02 -0.19556529605E+02  0.30272846949E+02  0.00000000000E+00 0.  1.
</event>
<event>
 7    1  0.5843820E-012  0.5052886E+02  0.7816164E-02  0.1300439E+00
        -11   -1    0    0    0    0  0.00000000000E+00  0.00000000000E+00  0.45593999997E+02  0.45594000000E+02  0.51100000000E-03 0. -1.
         11   -1    0    0    0    0 -0.00000000000E+00 -0.00000000000E+00 -0.45593999997E+02  0.45594000000E+02  0.51100000000E-03 0.  1.
    9900012    2    1    2    0    0 -0.13652816785E+02 -0.16867948660E+02  0.34383699708E+02  0.50528857070E+02  0.29999991550E+02 0.  0.
        -12    1    1    2    0    0  0.13652816785E+02  0.16867948660E+02 -0.34383699708E+02  0.40659142930E+02  0.00000000000E+00 0.  1.
         11    1    3    3    0    0 -0.84021266327E+01 -0.78493217322E+01  0.30687452170E+02  0.32770830087E+02  0.51100000000E-03 0. -1.
        -11    1    3    3    0    0 -0.66789679377E+01 -0.38887483907E+01  0.78413390949E+01  0.11009885368E+02  0.51100000000E-03 0.  1.
        -12    1    3    3    0    0  0.14282777852E+01 -0.51298785374E+01 -0.41450915570E+01  0.67481416150E+01  0.00000000000E+00 0.  1.
</event>
<event>
 7    1  0.5843820E-012  0.5052886E+02  0.7816164E-02  0.1300439E+00
        -11   -1    0    0    0    0  0.00000000000E+00  0.00000000000E+00  0.45593999997E+02  0.45594000000E+02  0.51100000000E-03 0.  1.
         11   -1    0    0    0    0 -0.00000000000E+00 -0.00000000000E+00 -0.45593999997E+02  0.45594000000E+02  0.51100000000E-03 0. -1.
    9900012    2    1    2    0    0  0.17858311554E+01  0.36454432863E+02 -0.17917888589E+02  0.50528860809E+02  0.30000002916E+02 0.  0.
         12    1    1    2    0    0 -0.17858311554E+01 -0.36454432863E+02  0.17917888589E+02  0.40659139191E+02  0.00000000000E+00 0. -1.
         11    1    3    3    0    0 -0.53498739636E+01  0.18308574724E+02  0.16595799714E+01  0.19146259838E+02  0.51100000000E-03 0. -1.
        -11    1    3    3    0    0 -0.37100419602E+01  0.99668330651E+01 -0.61643494232E+01  0.12292329997E+02  0.51100000000E-03 0.  1.
        -12    1    3    3    0    0  0.10845747079E+02  0.81790250737E+01 -0.13413119137E+02  0.19090270973E+02  0.00000000000E+00 0.  1.
</event>
<event>
 7    1  0.5843820E-012  0.5052884E+02  0.7816164E-02  0.1300439E+00
        -11   -1    0    0    0    0  0.00000000000E+00  0.00000000000E+00  0.45593999997E+02  0.45594000000E+02  0.51100000000E-03 0. -1.
         11   -1    0    0    0    0 -0.00000000000E+00 -0.00000000000E+00 -0.45593999997E+02  0.45594000000E+02  0.51100000000E-03 0.  1.
    9900012    2    1    2    0    0  0.26169179276E+02  0.26647029681E+01  0.31003875826E+02  0.50528844793E+02  0.29999954233E+02 0.  0.
        -12    1    1    2    0    0 -0.26169179276E+02 -0.26647029681E+01 -0.31003875826E+02  0.40659155207E+02  0.00000000000E+00 0.  1.
         11    1    3    3    0    0 -0.27375156409E+00  0.37457239819E+01 -0.19348899688E+01  0.42248298806E+01  0.51100000000E-03 0. -1.
        -11    1    3    3    0    0  0.52588930052E+01  0.53809623563E+01  0.12263501830E+01  0.76232963049E+01  0.51100000000E-03 0.  1.
         12    1    3    3    0    0  0.21184037835E+02 -0.64619833701E+01  0.31712415612E+02  0.38680718608E+02  0.00000000000E+00 0. -1.
</event>
<event>
 7    1  0.5843820E-012  0.5052886E+02  0.7816164E-02  0.1300439E+00
        -11   -1    0    0    0    0  0.00000000000E+00  0.00000000000E+00  0.45593999997E+02  0.45594000000E+02  0.51100000000E-03 0. -1.
         11   -1    0    0    0    0 -0.00000000000E+00 -0.00000000000E+00 -0.45593999997E+02  0.45594000000E+02  0.51100000000E-03 0.  1.
    9900012    2    1    2    0    0 -0.13915607417E+02 -0.63153849411E+01  0.37678075390E+02  0.50528861029E+02  0.30000003584E+02 0.  0.
        -12    1    1    2    0    0  0.13915607417E+02  0.63153849411E+01 -0.37678075390E+02  0.40659138971E+02  0.00000000000E+00 0.  1.
         11    1    3    3    0    0 -0.94682233108E+01  0.61361035281E+01  0.12075751165E+02  0.16526426886E+02  0.51100000000E-03 0.  1.
        -11    1    3    3    0    0 -0.73556854577E+01  0.10831716557E+01  0.14353300464E+02  0.16164671474E+02  0.51100000000E-03 0. -1.
        -12    1    3    3    0    0  0.29083013519E+01 -0.13534660125E+02  0.11249023761E+02  0.17837762669E+02  0.00000000000E+00 0.  1.
</event>
<event>
 7    1  0.5843820E-012  0.5052885E+02  0.7816164E-02  0.1300439E+00
        -11   -1    0    0    0    0  0.00000000000E+00  0.00000000000E+00  0.45593999997E+02  0.45594000000E+02  0.51100000000E-03 0. -1.
         11   -1    0    0    0    0 -0.00000000000E+00 -0.00000000000E+00 -0.45593999997E+02  0.45594000000E+02  0.51100000000E-03 0.  1.
    9900012    2    1    2    0    0  0.26573183247E+02  0.12714082516E+01  0.30747614174E+02  0.50528851901E+02  0.29999975837E+02 0.  0.
        -12    1    1    2    0    0 -0.26573183247E+02 -0.12714082516E+01 -0.30747614174E+02  0.40659148099E+02  0.00000000000E+00 0.  1.
         11    1    3    3    0    0  0.29909825975E+02  0.28017453224E+01  0.28295545498E+02  0.41268454805E+02  0.51100000000E-03 0. -1.
        -11    1    3    3    0    0 -0.27711665429E+01  0.16712220358E+01  0.44064276198E+01  0.54670789030E+01  0.51100000000E-03 0.  1.
        -12    1    3    3    0    0 -0.56547618583E+00 -0.32015591066E+01 -0.19543589437E+01  0.37933181927E+01  0.00000000000E+00 0.  1.
</event>
<event>
 7    1  0.5843820E-012  0.5052886E+02  0.7816164E-02  0.1300439E+00
        -11   -1    0    0    0    0  0.00000000000E+00  0.00000000000E+00  0.45593999997E+02  0.45594000000E+02  0.51100000000E-03 0. -1.
         11   -1    0    0    0    0 -0.00000000000E+00 -0.00000000000E+00 -0.45593999997E+02  0.45594000000E+02  0.51100000000E-03 0.  1.
    9900012    2    1    2    0    0 -0.28859240032E+02  0.11350654243E+02 -0.26295861203E+02  0.50528863224E+02  0.30000010256E+02 0.  0.
         12    1    1    2    0    0  0.28859240032E+02 -0.11350654243E+02  0.26295861203E+02  0.40659136776E+02  0.00000000000E+00 0. -1.
         11    1    3    3    0    0 -0.34627273418E+01  0.73134412145E+01  0.39932418179E+00  0.81016271887E+01  0.51100000000E-03 0. -1.
        -11    1    3    3    0    0  0.27739156828E+00 -0.33675379605E+01  0.13973650276E+01  0.36564856459E+01  0.51100000000E-03 0.  1.
        -12    1    3    3    0    0 -0.25673904258E+02  0.74047509886E+01 -0.28092550413E+02  0.38770750389E+02  0.00000000000E+00 0.  1.
</event>
<event>
 7    1  0.5843820E-012  0.5052886E+02  0.7816164E-02  0.1300439E+00
        -11   -1    0    0    0    0  0.00000000000E+00  0.00000000000E+00  0.45593999997E+02  0.45594000000E+02  0.51100000000E-03 0. -1.
         11   -1    0    0    0    0 -0.00000000000E+00 -0.00000000000E+00 -0.45593999997E+02  0.45594000000E+02  0.51100000000E-03 0.  1.
    9900012    2    1    2    0    0 -0.98359054039E+01 -0.20594327136E+02  0.33649575586E+02  0.50528864711E+02  0.30000014777E+02 0.  0.
        -12    1    1    2    0    0  0.98359054039E+01  0.20594327136E+02 -0.33649575586E+02  0.40659135289E+02  0.00000000000E+00 0.  1.
         11    1    3    3    0    0  0.27194989589E+01  0.75897303787E+00  0.71053649311E+00  0.29114561698E+01  0.51100000000E-03 0.  1.
        -11    1    3    3    0    0 -0.18762029643E+02 -0.11502859560E+02  0.26000265734E+02  0.34063812953E+02  0.51100000000E-03 0. -1.
         12    1    3    3    0    0  0.62066252802E+01 -0.98504406143E+01  0.69387733588E+01  0.13553595589E+02  0.00000000000E+00 0. -1.
</event>
<event>
 7    1  0.5843820E-012  0.5052892E+02  0.7816164E-02  0.1300439E+00
        -11   -1    0    0    0    0  0.00000000000E+00  0.00000000000E+00  0.45593999997E+02  0.45594000000E+02  0.51100000000E-03 0.  1.
         11   -1    0    0    0    0 -0.00000000000E+00 -0.00000000000E+00 -0.45593999997E+02  0.45594000000E+02  0.51100000000E-03 0. -1.
    9900012    2    1    2    0    0 -0.37573440632E+02  0.21248829800E+01 -0.15390987442E+02  0.50528916599E+02  0.30000172493E+02 0.  0.
         12    1    1    2    0    0  0.37573440632E+02 -0.21248829800E+01  0.15390987442E+02  0.40659083401E+02  0.00000000000E+00 0. -1.
         11    1    3    3    0    0 -0.87809443637E+01 -0.35537944909E+01 -0.54879489277E+01  0.10947694867E+02  0.51100000000E-03 0. -1.
        -11    1    3    3    0    0 -0.25311321024E+02 -0.49567309341E+01 -0.11567842825E+02  0.28267421910E+02  0.51100000000E-03 0.  1.
         12    1    3    3    0    0 -0.34811752436E+01  0.10635408405E+02  0.16648043109E+01  0.11313799822E+02  0.00000000000E+00 0. -1.
</event>
<event>
 7    1  0.5843820E-012  0.5052885E+02  0.7816164E-02  0.1300439E+00
        -11   -1    0    0    0    0  0.00000000000E+00  0.00000000000E+00  0.45593999997E+02  0.45594000000E+02  0.51100000000E-03 0. -1.
         11   -1    0    0    0    0 -0.00000000000E+00 -0.00000000000E+00 -0.45593999997E+02  0.45594000000E+02  0.51100000000E-03 0.  1.
    9900012    2    1    2    0    0 -0.59327133767E+01 -0.22380690590E+02  0.33422658454E+02  0.50528849770E+02  0.29999969360E+02 0.  0.
        -12    1    1    2    0    0  0.59327133767E+01  0.22380690590E+02 -0.33422658454E+02  0.40659150230E+02  0.00000000000E+00 0.  1.
         11    1    3    3    0    0  0.46867495430E+00 -0.32661040856E+00 -0.13086968601E+01  0.14279419822E+01  0.51100000000E-03 0. -1.
        -11    1    3    3    0    0  0.13911937938E+01  0.39009282744E+01 -0.99499423193E+00  0.42594219510E+01  0.51100000000E-03 0.  1.
         12    1    3    3    0    0 -0.77925821248E+01 -0.25955008456E+02  0.35726349546E+02  0.44841485836E+02  0.00000000000E+00 0. -1.
</event>
<event>
 7    1  0.5843820E-012  0.5052886E+02  0.7816164E-02  0.1300439E+00
        -11   -1    0    0    0    0  0.00000000000E+00  0.00000000000E+00  0.45593999997E+02  0.45594000000E+02  0.51100000000E-03 0.  1.
         11   -1    0    0    0    0 -0.00000000000E+00 -0.00000000000E+00 -0.45593999997E+02  0.45594000000E+02  0.51100000000E-03 0. -1.
    9900012    2    1    2    0    0  0.23340746056E+02 -0.33039232118E+02 -0.40968584450E+01  0.50528861611E+02  0.30000005354E+02 0.  0.
         12    1    1    2    0    0 -0.23340746056E+02  0.33039232118E+02  0.40968584450E+01  0.40659138389E+02  0.00000000000E+00 0. -1.
         11    1    3    3    0    0  0.20297044704E+01 -0.10163109585E+02 -0.80579149698E+01  0.13127775539E+02  0.51100000000E-03 0. -1.
        -11    1    3    3    0    0  0.51406224290E+01 -0.10297547447E+02 -0.76814958229E+01  0.13837299618E+02  0.51100000000E-03 0.  1.
        -12    1    3    3    0    0  0.16170419157E+02 -0.12578575085E+02  0.11642552348E+02  0.23563786454E+02  0.00000000000E+00 0.  1.
</event>
<event>
 7    1  0.5843820E-012  0.5052886E+02  0.7816164E-02  0.1300439E+00
        -11   -1    0    0    0    0  0.00000000000E+00  0.00000000000E+00  0.45593999997E+02  0.45594000000E+02  0.51100000000E-03 0. -1.
         11   -1    0    0    0    0 -0.00000000000E+00 -0.00000000000E+00 -0.45593999997E+02  0.45594000000E+02  0.51100000000E-03 0.  1.
    9900012    2    1    2    0    0  0.11308224707E+01 -0.84162018429E+01  0.39762475612E+02  0.50528859825E+02  0.29999999925E+02 0.  0.
        -12    1    1    2    0    0 -0.11308224707E+01  0.84162018429E+01 -0.39762475612E+02  0.40659140175E+02  0.00000000000E+00 0.  1.
         11    1    3    3    0    0 -0.54647456987E+01 -0.60734160660E+01  0.14206597398E+02  0.16388326277E+02  0.51100000000E-03 0. -1.
        -11    1    3    3    0    0  0.88157618853E+01 -0.10772797958E+02  0.15790288814E+02  0.21050036925E+02  0.51100000000E-03 0.  1.
        -12    1    3    3    0    0 -0.22201937159E+01  0.84300121811E+01  0.97655894004E+01  0.13090496623E+02  0.00000000000E+00 0.  1.
</event>
<event>
 7    1  0.5843820E-012  0.5052884E+02  0.7816164E-02  0.1300439E+00
        -11   -1    0    0    0    0  0.00000000000E+00  0.00000000000E+00  0.45593999997E+02  0.45594000000E+02  0.51100000000E-03 0. -1.
         11   -1    0    0    0    0 -0.00000000000E+00 -0.00000000000E+00 -0.45593999997E+02  0.45594000000E+02  0.51100000000E-03 0.  1.
    9900012    2    1    2    0    0  0.24403923192E+02  0.14938531064E+02 -0.28886948069E+02  0.50528844251E+02  0.29999952584E+02 0.  0.
         12    1    1    2    0    0 -0.24403923192E+02 -0.14938531064E+02  0.28886948069E+02  0.40659155749E+02  0.00000000000E+00 0. -1.
         11    1    3    3    0    0  0.74912787472E+01 -0.22142312578E+01 -0.15780991734E+02  0.17608571143E+02  0.51100000000E-03 0. -1.
        -11    1    3    3    0    0  0.28585741808E+01  0.10709490841E+02 -0.13483753121E+02  0.17454977482E+02  0.51100000000E-03 0.  1.
         12    1    3    3    0    0  0.14054070264E+02  0.64432714812E+01  0.37779678613E+00  0.15465295625E+02  0.00000000000E+00 0. -1.
</event>
<event>
 7    1  0.5843820E-012  0.5052886E+02  0.7816164E-02  0.1300439E+00
        -11   -1    0    0    0    0  0.00000000000E+00  0.00000000000E+00  0.45593999997E+02  0.45594000000E+02  0.51100000000E-03 0. -1.
         11   -1    0    0    0    0 -0.00000000000E+00 -0.00000000000E+00 -0.45593999997E+02  0.45594000000E+02  0.51100000000E-03 0.  1.
    9900012    2    1    2    0    0  0.13610095025E+02 -0.57520712810E+01 -0.37879339141E+02  0.50528863950E+02  0.30000012462E+02 0.  0.
         12    1    1    2    0    0 -0.13610095025E+02  0.57520712810E+01  0.37879339141E+02  0.40659136050E+02  0.00000000000E+00 0. -1.
         11    1    3    3    0    0  0.71713481104E+01 -0.44657103159E+01 -0.24037395554E+02  0.25478759539E+02  0.51100000000E-03 0. -1.
        -11    1    3    3    0    0  0.76889388164E+01 -0.34344162389E+01 -0.18188373671E+02  0.20043251535E+02  0.51100000000E-03 0.  1.
         12    1    3    3    0    0 -0.12501919021E+01  0.21480552738E+01  0.43464300842E+01  0.50068528766E+01  0.00000000000E+00 0. -1.
</event>
<event>
 7    1  0.5843820E-012  0.5052886E+02  0.7816164E-02  0.1300439E+00
        -11   -1    0    0    0    0  0.00000000000E+00  0.00000000000E+00  0.45593999997E+02  0.45594000000E+02  0.51100000000E-03 0. -1.
         11   -1    0    0    0    0 -0.00000000000E+00 -0.00000000000E+00 -0.45593999997E+02  0.45594000000E+02  0.51100000000E-03 0.  1.
    9900012    2    1    2    0    0  0.11624627817E+02 -0.11515552189E+02 -0.37221307373E+02  0.50528860355E+02  0.30000001535E+02 0.  0.
         12    1    1    2    0    0 -0.11624627817E+02  0.11515552189E+02  0.37221307373E+02  0.40659139645E+02  0.00000000000E+00 0. -1.
         11    1    3    3    0    0  0.15638765117E+02 -0.25861973429E+01 -0.13589352706E+02  0.20878934319E+02  0.51100000000E-03 0. -1.
        -11    1    3    3    0    0  0.56418755508E+01 -0.18642177494E+01 -0.78087826514E+01  0.98123979896E+01  0.51100000000E-03 0.  1.
         12    1    3    3    0    0 -0.96560128503E+01 -0.70651370968E+01 -0.15823172015E+02  0.19837528046E+02  0.00000000000E+00 0. -1.
</event>
<event>
 7    1  0.5843820E-012  0.5052886E+02  0.7816164E-02  0.1300439E+00
        -11   -1    0    0    0    0  0.00000000000E+00  0.00000000000E+00  0.45593999997E+02  0.45594000000E+02  0.51100000000E-03 0. -1.
         11   -1    0    0    0    0 -0.00000000000E+00 -0.00000000000E+00 -0.45593999997E+02  0.45594000000E+02  0.51100000000E-03 0.  1.
    9900012    2    1    2    0    0 -0.28539822315E+02 -0.15773527713E+02 -0.24286630029E+02  0.50528855488E+02  0.29999986742E+02 0.  0.
         12    1    1    2    0    0  0.28539822315E+02  0.15773527713E+02  0.24286630029E+02  0.40659144512E+02  0.00000000000E+00 0. -1.
         11    1    3    3    0    0 -0.17297951103E+02 -0.30747573157E+01  0.29736508543E+01  0.17818974285E+02  0.51100000000E-03 0. -1.
        -11    1    3    3    0    0 -0.18580932121E+01 -0.60637911412E+01 -0.72354612450E+01  0.96215369395E+01  0.51100000000E-03 0.  1.
        -12    1    3    3    0    0 -0.93837779996E+01 -0.66349792557E+01 -0.20024819638E+02  0.23088344263E+02  0.00000000000E+00 0.  1.
</event>
<event>
 7    1  0.5843820E-012  0.5052877E+02  0.7816164E-02  0.1300439E+00
        -11   -1    0    0    0    0  0.00000000000E+00  0.00000000000E+00  0.45593999997E+02  0.45594000000E+02  0.51100000000E-03 0. -1.
         11   -1    0    0    0    0 -0.00000000000E+00 -0.00000000000E+00 -0.45593999997E+02  0.45594000000E+02  0.51100000000E-03 0.  1.
    9900012    2    1    2    0    0  0.22605748185E+02  0.25149091869E+02 -0.22576011034E+02  0.50528770457E+02  0.29999728279E+02 0.  0.
         12    1    1    2    0    0 -0.22605748185E+02 -0.25149091869E+02  0.22576011034E+02  0.40659229543E+02  0.00000000000E+00 0. -1.
         11    1    3    3    0    0  0.39010400310E+00 -0.12453318480E+01 -0.65319280934E+01  0.66610147443E+01  0.51100000000E-03 0. -1.
        -11    1    3    3    0    0 -0.19396164059E+01 -0.24965225446E+01 -0.10052545656E+01  0.33174197233E+01  0.51100000000E-03 0.  1.
        -12    1    3    3    0    0  0.24155260588E+02  0.28890946261E+02 -0.15038828375E+02  0.40550335989E+02  0.00000000000E+00 0.  1.
</event>
<event>
 7    1  0.5843820E-012  0.5052885E+02  0.7816164E-02  0.1300439E+00
        -11   -1    0    0    0    0  0.00000000000E+00  0.00000000000E+00  0.45593999997E+02  0.45594000000E+02  0.51100000000E-03 0. -1.
         11   -1    0    0    0    0 -0.00000000000E+00 -0.00000000000E+00 -0.45593999997E+02  0.45594000000E+02  0.51100000000E-03 0.  1.
    9900012    2    1    2    0    0  0.37771577012E+02  0.11473724032E+02 -0.97379678900E+01  0.50528851070E+02  0.29999973312E+02 0.  0.
         12    1    1    2    0    0 -0.37771577012E+02 -0.11473724032E+02  0.97379678900E+01  0.40659148930E+02  0.00000000000E+00 0. -1.
         11    1    3    3    0    0  0.72443061762E+01  0.17614454668E+00 -0.40733501532E+01  0.83128322856E+01  0.51100000000E-03 0. -1.
        -11    1    3    3    0    0  0.14728151028E+02 -0.80096950778E+01 -0.70413157181E+00  0.16780031271E+02  0.51100000000E-03 0.  1.
        -12    1    3    3    0    0  0.15799119807E+02  0.19307274563E+02 -0.49604861650E+01  0.25435987513E+02  0.00000000000E+00 0.  1.
</event>
<event>
 7    1  0.5843820E-012  0.5052885E+02  0.7816164E-02  0.1300439E+00
        -11   -1    0    0    0    0  0.00000000000E+00  0.00000000000E+00  0.45593999997E+02  0.45594000000E+02  0.51100000000E-03 0. -1.
         11   -1    0    0    0    0 -0.00000000000E+00 -0.00000000000E+00 -0.45593999997E+02  0.45594000000E+02  0.51100000000E-03 0.  1.
    9900012    2    1    2    0    0 -0.28157789044E+02  0.40223769314E+01 -0.29053848703E+02  0.50528846978E+02  0.29999960874E+02 0.  0.
         12    1    1    2    0    0  0.28157789044E+02 -0.40223769314E+01  0.29053848703E+02  0.40659153022E+02  0.00000000000E+00 0. -1.
         11    1    3    3    0    0 -0.12661996389E+02 -0.78365504488E+01 -0.18724730031E+02  0.23923904165E+02  0.51100000000E-03 0. -1.
        -11    1    3    3    0    0 -0.69084293988E+01 -0.21092394563E+01 -0.66111772233E+01  0.97919840880E+01  0.51100000000E-03 0.  1.
        -12    1    3    3    0    0 -0.85873632566E+01  0.13968166836E+02 -0.37179414482E+01  0.16812958725E+02  0.00000000000E+00 0.  1.
</event>
<event>
 7    1  0.5843820E-012  0.5052887E+02  0.7816164E-02  0.1300439E+00
        -11   -1    0    0    0    0  0.00000000000E+00  0.00000000000E+00  0.45593999997E+02  0.45594000000E+02  0.51100000000E-03 0.  1.
         11   -1    0    0    0    0 -0.00000000000E+00 -0.00000000000E+00 -0.45593999997E+02  0.45594000000E+02  0.51100000000E-03 0. -1.
    9900012    2    1    2    0    0  0.23206037235E+02 -0.32702514217E+02 -0.67223802890E+01  0.50528868221E+02  0.30000025445E+02 0.  0.
         12    1    1    2    0    0 -0.23206037235E+02  0.32702514217E+02  0.67223802890E+01  0.40659131779E+02  0.00000000000E+00 0. -1.
         11    1    3    3    0    0  0.51908529816E+01 -0.23790017313E+01 -0.46864967018E+01  0.73870058556E+01  0.51100000000E-03 0. -1.
        -11    1    3    3    0    0  0.17735379915E+02 -0.60138716608E+01  0.19688091483E+00  0.18728297185E+02  0.51100000000E-03 0.  1.
         12    1    3    3    0    0  0.27980433827E+00 -0.24309640825E+02 -0.22327645020E+01  0.24413565181E+02  0.00000000000E+00 0. -1.
</event>
<event>
 7    1  0.5843820E-012  0.5052886E+02  0.7816164E-02  0.1300439E+00
        -11   -1    0    0    0    0  0.00000000000E+00  0.00000000000E+00  0.45593999997E+02  0.45594000000E+02  0.51100000000E-03 0. -1.
         11   -1    0    0    0    0 -0.00000000000E+00 -0.00000000000E+00 -0.45593999997E+02  0.45594000000E+02  0.51100000000E-03 0.  1.
    9900012    2    1    2    0    0  0.62278249720E+01  0.74300253509E+01  0.39486385046E+02  0.50528859766E+02  0.29999999744E+02 0.  0.
        -12    1    1    2    0    0 -0.62278249720E+01 -0.74300253509E+01 -0.39486385046E+02  0.40659140234E+02  0.00000000000E+00 0.  1.
         11    1    3    3    0    0 -0.14996623996E+01 -0.32221334118E+01  0.11569502207E+02  0.12103078642E+02  0.51100000000E-03 0. -1.
        -11    1    3    3    0    0 -0.79514191928E+01  0.10745683433E+01  0.80578012606E+01  0.11371364286E+02  0.51100000000E-03 0.  1.
         12    1    3    3    0    0  0.15678906564E+02  0.95775904195E+01  0.19859081578E+02  0.27054416838E+02  0.00000000000E+00 0. -1.
</event>
<event>
 7    1  0.5843820E-012  0.5052887E+02  0.7816164E-02  0.1300439E+00
        -11   -1    0    0    0    0  0.00000000000E+00  0.00000000000E+00  0.45593999997E+02  0.45594000000E+02  0.51100000000E-03 0. -1.
         11   -1    0    0    0    0 -0.00000000000E+00 -0.00000000000E+00 -0.45593999997E+02  0.45594000000E+02  0.51100000000E-03 0.  1.
    9900012    2    1    2    0    0 -0.40094887234E+02 -0.55770537096E+01 -0.38028401492E+01  0.50528866910E+02  0.30000021461E+02 0.  0.
         12    1    1    2    0    0  0.40094887234E+02  0.55770537096E+01  0.38028401492E+01  0.40659133090E+02  0.00000000000E+00 0. -1.
         11    1    3    3    0    0 -0.49142304708E+01 -0.31135033192E+00 -0.63905739065E+01  0.80675916645E+01  0.51100000000E-03 0.  1.
        -11    1    3    3    0    0 -0.25112541742E+00 -0.57943786226E+01 -0.38201752943E+01  0.69448993613E+01  0.51100000000E-03 0. -1.
        -12    1    3    3    0    0 -0.34929531346E+02  0.52867524490E+00  0.64079090516E+01  0.35516375885E+02  0.00000000000E+00 0.  1.
</event>
<event>
 7    1  0.5843820E-012  0.5052886E+02  0.7816164E-02  0.1300439E+00
        -11   -1    0    0    0    0  0.00000000000E+00  0.00000000000E+00  0.45593999997E+02  0.45594000000E+02  0.51100000000E-03 0. -1.
         11   -1    0    0    0    0 -0.00000000000E+00 -0.00000000000E+00 -0.45593999997E+02  0.45594000000E+02  0.51100000000E-03 0.  1.
    9900012    2    1    2    0    0  0.55708184000E+01  0.30471628639E+02  0.26336509759E+02  0.50528856922E+02  0.29999991099E+02 0.  0.
        -12    1    1    2    0    0 -0.55708184000E+01 -0.30471628639E+02 -0.26336509759E+02  0.40659143078E+02  0.00000000000E+00 0.  1.
         11    1    3    3    0    0  0.35486365822E+01 -0.28939407654E+01 -0.17529308025E+01  0.49031093610E+01  0.51100000000E-03 0. -1.
        -11    1    3    3    0    0  0.48604730700E+01  0.36847819000E+01  0.55834986931E+01  0.82690552080E+01  0.51100000000E-03 0.  1.
        -12    1    3    3    0    0 -0.28382912522E+01  0.29680787505E+02  0.22505941869E+02  0.37356692353E+02  0.00000000000E+00 0.  1.
</event>
<event>
 7    1  0.5843820E-012  0.5052886E+02  0.7816164E-02  0.1300439E+00
        -11   -1    0    0    0    0  0.00000000000E+00  0.00000000000E+00  0.45593999997E+02  0.45594000000E+02  0.51100000000E-03 0. -1.
         11   -1    0    0    0    0 -0.00000000000E+00 -0.00000000000E+00 -0.45593999997E+02  0.45594000000E+02  0.51100000000E-03 0.  1.
    9900012    2    1    2    0    0 -0.19508527593E+02  0.12279643740E+02 -0.33493183793E+02  0.50528860070E+02  0.30000000669E+02 0.  0.
         12    1    1    2    0    0  0.19508527593E+02 -0.12279643740E+02  0.33493183793E+02  0.40659139930E+02  0.00000000000E+00 0. -1.
         11    1    3    3    0    0 -0.72903145183E+01 -0.31168156620E+01 -0.48651649238E+01  0.93023145315E+01  0.51100000000E-03 0. -1.
        -11    1    3    3    0    0 -0.14611269265E+02  0.10590313781E+01 -0.10673012140E+02  0.18125228975E+02  0.51100000000E-03 0.  1.
         12    1    3    3    0    0  0.23930561910E+01  0.14337428024E+02 -0.17955006730E+02  0.23101316563E+02  0.00000000000E+00 0. -1.
</event>
<event>
 7    1  0.5843820E-012  0.5052886E+02  0.7816164E-02  0.1300439E+00
        -11   -1    0    0    0    0  0.00000000000E+00  0.00000000000E+00  0.45593999997E+02  0.45594000000E+02  0.51100000000E-03 0.  1.
         11   -1    0    0    0    0 -0.00000000000E+00 -0.00000000000E+00 -0.45593999997E+02  0.45594000000E+02  0.51100000000E-03 0. -1.
    9900012    2    1    2    0    0 -0.36193070790E+02 -0.17971173883E+02  0.45015887784E+01  0.50528858771E+02  0.29999996721E+02 0.  0.
        -12    1    1    2    0    0  0.36193070790E+02  0.17971173883E+02 -0.45015887784E+01  0.40659141229E+02  0.00000000000E+00 0.  1.
         11    1    3    3    0    0 -0.13647622013E+02 -0.62103243521E+01  0.16439894708E+02  0.22250749502E+02  0.51100000000E-03 0.  1.
        -11    1    3    3    0    0 -0.80323475612E+01 -0.59728747244E+01 -0.47076795674E+01  0.11061468573E+02  0.51100000000E-03 0. -1.
        -12    1    3    3    0    0 -0.14513101216E+02 -0.57879748069E+01 -0.72306263617E+01  0.17216640696E+02  0.00000000000E+00 0.  1.
</event>
<event>
 7    1  0.5843820E-012  0.5052884E+02  0.7816164E-02  0.1300439E+00
        -11   -1    0    0    0    0  0.00000000000E+00  0.00000000000E+00  0.45593999997E+02  0.45594000000E+02  0.51100000000E-03 0. -1.
         11   -1    0    0    0    0 -0.00000000000E+00 -0.00000000000E+00 -0.45593999997E+02  0.45594000000E+02  0.51100000000E-03 0.  1.
    9900012    2    1    2    0    0  0.76112578346E+01 -0.21002981104E+02 -0.33972206624E+02  0.50528840097E+02  0.29999939959E+02 0.  0.
         12    1    1    2    0    0 -0.76112578346E+01  0.21002981104E+02  0.33972206624E+02  0.40659159903E+02  0.00000000000E+00 0. -1.
         11    1    3    3    0    0 -0.47925831256E+01 -0.25396680066E+00 -0.92570603851E+01  0.10427200937E+02  0.51100000000E-03 0. -1.
        -11    1    3    3    0    0  0.22772058404E+01 -0.19946544900E+02 -0.21570742753E+02  0.29467732574E+02  0.51100000000E-03 0.  1.
        -12    1    3    3    0    0  0.10126635120E+02 -0.80246940407E+00 -0.31444034858E+01  0.10633906586E+02  0.00000000000E+00 0.  1.
</event>
<event>
 7    1  0.5843820E-012  0.5052885E+02  0.7816164E-02  0.1300439E+00
        -11   -1    0    0    0    0  0.00000000000E+00  0.00000000000E+00  0.45593999997E+02  0.45594000000E+02  0.51100000000E-03 0. -1.
         11   -1    0    0    0    0 -0.00000000000E+00 -0.00000000000E+00 -0.45593999997E+02  0.45594000000E+02  0.51100000000E-03 0.  1.
    9900012    2    1    2    0    0  0.84501263091E+01  0.31562104596E+02 -0.24199081804E+02  0.50528848000E+02  0.29999963982E+02 0.  0.
         12    1    1    2    0    0 -0.84501263091E+01 -0.31562104596E+02  0.24199081804E+02  0.40659152000E+02  0.00000000000E+00 0. -1.
         11    1    3    3    0    0  0.48006549697E+01  0.18630744485E+02 -0.10378530822E+02  0.21860119636E+02  0.51100000000E-03 0. -1.
        -11    1    3    3    0    0  0.85534149272E+01  0.16492524265E+02 -0.78749104989E+01  0.20178663959E+02  0.51100000000E-03 0.  1.
         12    1    3    3    0    0 -0.49039435878E+01 -0.35611641544E+01 -0.59456404836E+01  0.84900644054E+01  0.00000000000E+00 0. -1.
</event>
<event>
 7    1  0.5843820E-012  0.5052885E+02  0.7816164E-02  0.1300439E+00
        -11   -1    0    0    0    0  0.00000000000E+00  0.00000000000E+00  0.45593999997E+02  0.45594000000E+02  0.51100000000E-03 0. -1.
         11   -1    0    0    0    0 -0.00000000000E+00 -0.00000000000E+00 -0.45593999997E+02  0.45594000000E+02  0.51100000000E-03 0.  1.
    9900012    2    1    2    0    0  0.29440370070E+02  0.14662084513E+02  0.23905112153E+02  0.50528849749E+02  0.29999969296E+02 0.  0.
        -12    1    1    2    0    0 -0.29440370070E+02 -0.14662084513E+02 -0.23905112153E+02  0.40659150251E+02  0.00000000000E+00 0.  1.
         11    1    3    3    0    0  0.23347697391E+02  0.56531782022E-01  0.16494920442E+02  0.28586720168E+02  0.51100000000E-03 0. -1.
        -11    1    3    3    0    0 -0.27506400075E+01 -0.27264553828E+00  0.30038585560E+01  0.40820978095E+01  0.51100000000E-03 0.  1.
        -12    1    3    3    0    0  0.88433126863E+01  0.14878198269E+02  0.44063331550E+01  0.17860031771E+02  0.00000000000E+00 0.  1.
</event>
<event>
 7    1  0.5843820E-012  0.5052886E+02  0.7816164E-02  0.1300439E+00
        -11   -1    0    0    0    0  0.00000000000E+00  0.00000000000E+00  0.45593999997E+02  0.45594000000E+02  0.51100000000E-03 0. -1.
         11   -1    0    0    0    0 -0.00000000000E+00 -0.00000000000E+00 -0.45593999997E+02  0.45594000000E+02  0.51100000000E-03 0.  1.
    9900012    2    1    2    0    0 -0.68771297168E+01  0.28471824581E+02 -0.28199748948E+02  0.50528861436E+02  0.30000004820E+02 0.  0.
         12    1    1    2    0    0  0.68771297168E+01 -0.28471824581E+02  0.28199748948E+02  0.40659138564E+02  0.00000000000E+00 0. -1.
         11    1    3    3    0    0  0.98736607656E+00  0.25311232902E+02 -0.22547886399E+02  0.33912248291E+02  0.51100000000E-03 0. -1.
        -11    1    3    3    0    0  0.63664651467E+00  0.51448531445E+01 -0.59376488891E+01  0.78822907365E+01  0.51100000000E-03 0.  1.
         12    1    3    3    0    0 -0.85011423080E+01 -0.19842614657E+01  0.28578634082E+00  0.87343224086E+01  0.00000000000E+00 0. -1.
</event>
<event>
 7    1  0.5843820E-012  0.5052886E+02  0.7816164E-02  0.1300439E+00
        -11   -1    0    0    0    0  0.00000000000E+00  0.00000000000E+00  0.45593999997E+02  0.45594000000E+02  0.51100000000E-03 0. -1.
         11   -1    0    0    0    0 -0.00000000000E+00 -0.00000000000E+00 -0.45593999997E+02  0.45594000000E+02  0.51100000000E-03 0.  1.
    9900012    2    1    2    0    0  0.24015280732E+02  0.32767505073E+02 -0.16500304888E+01  0.50528859601E+02  0.29999999244E+02 0.  0.
        -12    1    1    2    0    0 -0.24015280732E+02 -0.32767505073E+02  0.16500304888E+01  0.40659140399E+02  0.00000000000E+00 0.  1.
         11    1    3    3    0    0  0.88108970748E+01  0.16798740015E+02  0.10204171762E+02  0.21539607586E+02  0.51100000000E-03 0. -1.
        -11    1    3    3    0    0  0.91153985857E+01  0.78926685178E+01  0.15936025703E+01  0.12162412471E+02  0.51100000000E-03 0.  1.
        -12    1    3    3    0    0  0.60889850716E+01  0.80760965399E+01 -0.13447804821E+02  0.16826839544E+02  0.00000000000E+00 0.  1.
</event>
<event>
 7    1  0.5843820E-012  0.5052889E+02  0.7816164E-02  0.1300439E+00
        -11   -1    0    0    0    0  0.00000000000E+00  0.00000000000E+00  0.45593999997E+02  0.45594000000E+02  0.51100000000E-03 0. -1.
         11   -1    0    0    0    0 -0.00000000000E+00 -0.00000000000E+00 -0.45593999997E+02  0.45594000000E+02  0.51100000000E-03 0.  1.
    9900012    2    1    2    0    0  0.29351025213E+02  0.21432894663E+02  0.18229414568E+02  0.50528890194E+02  0.30000092235E+02 0.  0.
        -12    1    1    2    0    0 -0.29351025213E+02 -0.21432894663E+02 -0.18229414568E+02  0.40659109806E+02  0.00000000000E+00 0.  1.
         11    1    3    3    0    0 -0.24968331849E+00  0.81625382409E+01  0.26361637177E+01  0.85813012826E+01  0.51100000000E-03 0. -1.
        -11    1    3    3    0    0  0.43473438161E+00  0.30834141859E+01 -0.42212521934E+01  0.52455130698E+01  0.51100000000E-03 0.  1.
         12    1    3    3    0    0  0.29165974150E+02  0.10186942236E+02  0.19814503044E+02  0.36702075842E+02  0.00000000000E+00 0. -1.
</event>
<event>
 7    1  0.5843820E-012  0.5052886E+02  0.7816164E-02  0.1300439E+00
        -11   -1    0    0    0    0  0.00000000000E+00  0.00000000000E+00  0.45593999997E+02  0.45594000000E+02  0.51100000000E-03 0. -1.
         11   -1    0    0    0    0 -0.00000000000E+00 -0.00000000000E+00 -0.45593999997E+02  0.45594000000E+02  0.51100000000E-03 0.  1.
    9900012    2    1    2    0    0  0.83659289032E+01 -0.31578731740E+02 -0.24206623064E+02  0.50528860008E+02  0.30000000480E+02 0.  0.
         12    1    1    2    0    0 -0.83659289032E+01  0.31578731740E+02  0.24206623064E+02  0.40659139992E+02  0.00000000000E+00 0. -1.
         11    1    3    3    0    0  0.30175409176E+01 -0.22237361940E+01 -0.14964871372E+02  0.15427181573E+02  0.51100000000E-03 0. -1.
        -11    1    3    3    0    0 -0.37615245526E+01 -0.12308036096E+01 -0.27919616949E+01  0.48434486528E+01  0.51100000000E-03 0.  1.
        -12    1    3    3    0    0  0.91099125382E+01 -0.28124191937E+02 -0.64497899974E+01  0.30258229782E+02  0.00000000000E+00 0.  1.
</event>
<event>
 7    1  0.5843820E-012  0.5052888E+02  0.7816164E-02  0.1300439E+00
        -11   -1    0    0    0    0  0.00000000000E+00  0.00000000000E+00  0.45593999997E+02  0.45594000000E+02  0.51100000000E-03 0. -1.
         11   -1    0    0    0    0 -0.00000000000E+00 -0.00000000000E+00 -0.45593999997E+02  0.45594000000E+02  0.51100000000E-03 0.  1.
    9900012    2    1    2    0    0 -0.10940187060E+02  0.34624789055E+02 -0.18292091926E+02  0.50528876337E+02  0.30000050113E+02 0.  0.
         12    1    1    2    0    0  0.10940187060E+02 -0.34624789055E+02  0.18292091926E+02  0.40659123663E+02  0.00000000000E+00 0. -1.
         11    1    3    3    0    0 -0.50683081469E+01 -0.15367874666E+01  0.32463225770E+01  0.62119299517E+01  0.51100000000E-03 0. -1.
        -11    1    3    3    0    0 -0.25155523689E+00  0.71143878402E+01  0.91248235972E+00  0.71770759155E+01  0.51100000000E-03 0.  1.
        -12    1    3    3    0    0 -0.56203236760E+01  0.29047188682E+02 -0.22450896863E+02  0.37139870469E+02  0.00000000000E+00 0.  1.
</event>
<event>
 7    1  0.5843820E-012  0.5052886E+02  0.7816164E-02  0.1300439E+00
        -11   -1    0    0    0    0  0.00000000000E+00  0.00000000000E+00  0.45593999997E+02  0.45594000000E+02  0.51100000000E-03 0. -1.
         11   -1    0    0    0    0 -0.00000000000E+00 -0.00000000000E+00 -0.45593999997E+02  0.45594000000E+02  0.51100000000E-03 0.  1.
    9900012    2    1    2    0    0  0.10439997664E+02 -0.30966179421E+02  0.24192306486E+02  0.50528861885E+02  0.30000006185E+02 0.  0.
        -12    1    1    2    0    0 -0.10439997664E+02  0.30966179421E+02 -0.24192306486E+02  0.40659138115E+02  0.00000000000E+00 0.  1.
         11    1    3    3    0    0  0.19691002114E+01 -0.59005568742E+01 -0.56426896208E+01  0.83984447063E+01  0.51100000000E-03 0.  1.
        -11    1    3    3    0    0  0.12822688602E+01  0.14175692999E+01  0.53136375438E+00  0.19839515746E+01  0.51100000000E-03 0. -1.
        -12    1    3    3    0    0  0.71886285921E+01 -0.26483191847E+02  0.29303632353E+02  0.40146465604E+02  0.00000000000E+00 0.  1.
</event>
<event>
 7    1  0.5843820E-012  0.5052888E+02  0.7816164E-02  0.1300439E+00
        -11   -1    0    0    0    0  0.00000000000E+00  0.00000000000E+00  0.45593999997E+02  0.45594000000E+02  0.51100000000E-03 0. -1.
         11   -1    0    0    0    0 -0.00000000000E+00 -0.00000000000E+00 -0.45593999997E+02  0.45594000000E+02  0.51100000000E-03 0.  1.
    9900012    2    1    2    0    0 -0.36184438614E+02  0.12557616926E+02 -0.13643935178E+02  0.50528876696E+02  0.30000051206E+02 0.  0.
         12    1    1    2    0    0  0.36184438614E+02 -0.12557616926E+02  0.13643935178E+02  0.40659123304E+02  0.00000000000E+00 0. -1.
         11    1    3    3    0    0 -0.13808757674E+02  0.71009146432E+01 -0.20451890125E+01  0.15661659415E+02  0.51100000000E-03 0. -1.
        -11    1    3    3    0    0 -0.23712670752E+02  0.10686026705E+02 -0.13293897009E+02  0.29209752120E+02  0.51100000000E-03 0.  1.
         12    1    3    3    0    0  0.13369898122E+01 -0.52293244222E+01  0.16951508441E+01  0.56574651616E+01  0.00000000000E+00 0. -1.
</event>
<event>
 7    1  0.5843820E-012  0.5052888E+02  0.7816164E-02  0.1300439E+00
        -11   -1    0    0    0    0  0.00000000000E+00  0.00000000000E+00  0.45593999997E+02  0.45594000000E+02  0.51100000000E-03 0. -1.
         11   -1    0    0    0    0 -0.00000000000E+00 -0.00000000000E+00 -0.45593999997E+02  0.45594000000E+02  0.51100000000E-03 0.  1.
    9900012    2    1    2    0    0 -0.18985154706E+02  0.13430220645E+02  0.33352023718E+02  0.50528875417E+02  0.30000047317E+02 0.  0.
        -12    1    1    2    0    0  0.18985154706E+02 -0.13430220645E+02 -0.33352023718E+02  0.40659124583E+02  0.00000000000E+00 0.  1.
         11    1    3    3    0    0 -0.16660629266E+02  0.10095213464E+02  0.18461278460E+02  0.26838567493E+02  0.51100000000E-03 0.  1.
        -11    1    3    3    0    0 -0.60046697183E+01 -0.38399006559E+01  0.13828123416E+02  0.15556924277E+02  0.51100000000E-03 0. -1.
        -12    1    3    3    0    0  0.36801442779E+01  0.71749078374E+01  0.10626218416E+01  0.81333836477E+01  0.00000000000E+00 0.  1.
</event>
<event>
 7    1  0.5843820E-012  0.5052887E+02  0.7816164E-02  0.1300439E+00
        -11   -1    0    0    0    0  0.00000000000E+00  0.00000000000E+00  0.45593999997E+02  0.45594000000E+02  0.51100000000E-03 0. -1.
         11   -1    0    0    0    0 -0.00000000000E+00 -0.00000000000E+00 -0.45593999997E+02  0.45594000000E+02  0.51100000000E-03 0.  1.
    9900012    2    1    2    0    0 -0.11244243411E+02  0.10779259600E+02  0.37557143837E+02  0.50528874325E+02  0.30000043999E+02 0.  0.
        -12    1    1    2    0    0  0.11244243411E+02 -0.10779259600E+02 -0.37557143837E+02  0.40659125675E+02  0.00000000000E+00 0.  1.
         11    1    3    3    0    0 -0.83863067309E+01  0.16482516644E+02  0.34957467006E+02  0.39547793810E+02  0.51100000000E-03 0. -1.
        -11    1    3    3    0    0  0.28828151817E+01 -0.34317309151E+01  0.82437535558E+00  0.45570818989E+01  0.51100000000E-03 0.  1.
        -12    1    3    3    0    0 -0.57407518617E+01 -0.22715261293E+01  0.17753014758E+01  0.64239986164E+01  0.00000000000E+00 0.  1.
</event>
<event>
 7    1  0.5843820E-012  0.5052886E+02  0.7816164E-02  0.1300439E+00
        -11   -1    0    0    0    0  0.00000000000E+00  0.00000000000E+00  0.45593999997E+02  0.45594000000E+02  0.51100000000E-03 0.  1.
         11   -1    0    0    0    0 -0.00000000000E+00 -0.00000000000E+00 -0.45593999997E+02  0.45594000000E+02  0.51100000000E-03 0. -1.
    9900012    2    1    2    0    0 -0.35773225961E+02  0.18606697465E+02  0.52184899183E+01  0.50528861750E+02  0.30000005775E+02 0.  0.
        -12    1    1    2    0    0  0.35773225961E+02 -0.18606697465E+02 -0.52184899183E+01  0.40659138250E+02  0.00000000000E+00 0.  1.
         11    1    3    3    0    0 -0.69332290600E+01  0.56953816800E+01  0.32935010074E+01  0.95579384193E+01  0.51100000000E-03 0. -1.
        -11    1    3    3    0    0 -0.22064817661E+02  0.43770430958E+01  0.12543903903E+02  0.25755857781E+02  0.51100000000E-03 0.  1.
         12    1    3    3    0    0 -0.67751792403E+01  0.85342726891E+01 -0.10618914992E+02  0.15215065549E+02  0.00000000000E+00 0. -1.
</event>
<event>
 7    1  0.5843820E-012  0.5052885E+02  0.7816164E-02  0.1300439E+00
        -11   -1    0    0    0    0  0.00000000000E+00  0.00000000000E+00  0.45593999997E+02  0.45594000000E+02  0.51100000000E-03 0. -1.
         11   -1    0    0    0    0 -0.00000000000E+00 -0.00000000000E+00 -0.45593999997E+02  0.45594000000E+02  0.51100000000E-03 0.  1.
    9900012    2    1    2    0    0 -0.14618520577E+02  0.44599261419E+00  0.37937664027E+02  0.50528850906E+02  0.29999972813E+02 0.  0.
        -12    1    1    2    0    0  0.14618520577E+02 -0.44599261419E+00 -0.37937664027E+02  0.40659149094E+02  0.00000000000E+00 0.  1.
         11    1    3    3    0    0 -0.18331874846E+02  0.17408269338E+01  0.11791068101E+02  0.21865895843E+02  0.51100000000E-03 0. -1.
        -11    1    3    3    0    0 -0.24358073296E+01 -0.30478268265E+01  0.39034429282E+01  0.55189919972E+01  0.51100000000E-03 0.  1.
        -12    1    3    3    0    0  0.61491615994E+01  0.17529925069E+01  0.22243152998E+02  0.23143963066E+02  0.00000000000E+00 0.  1.
</event>
<event>
 7    1  0.5843820E-012  0.5052886E+02  0.7816164E-02  0.1300439E+00
        -11   -1    0    0    0    0  0.00000000000E+00  0.00000000000E+00  0.45593999997E+02  0.45594000000E+02  0.51100000000E-03 0. -1.
         11   -1    0    0    0    0 -0.00000000000E+00 -0.00000000000E+00 -0.45593999997E+02  0.45594000000E+02  0.51100000000E-03 0.  1.
    9900012    2    1    2    0    0  0.63631310072E+01  0.21452767754E+02  0.33947827678E+02  0.50528859766E+02  0.29999999745E+02 0.  0.
        -12    1    1    2    0    0 -0.63631310072E+01 -0.21452767754E+02 -0.33947827678E+02  0.40659140234E+02  0.00000000000E+00 0.  1.
         11    1    3    3    0    0  0.42392799607E+01  0.16997052569E+02  0.21429136302E+02  0.27678135297E+02  0.51100000000E-03 0. -1.
        -11    1    3    3    0    0  0.72759832794E+01  0.62655214066E+01  0.45967262047E+00  0.96129074872E+01  0.51100000000E-03 0.  1.
        -12    1    3    3    0    0 -0.51521322329E+01 -0.18098062214E+01  0.12059018756E+02  0.13237816982E+02  0.00000000000E+00 0.  1.
</event>
<event>
 7    1  0.5843820E-012  0.5052881E+02  0.7816164E-02  0.1300439E+00
        -11   -1    0    0    0    0  0.00000000000E+00  0.00000000000E+00  0.45593999997E+02  0.45594000000E+02  0.51100000000E-03 0. -1.
         11   -1    0    0    0    0 -0.00000000000E+00 -0.00000000000E+00 -0.45593999997E+02  0.45594000000E+02  0.51100000000E-03 0.  1.
    9900012    2    1    2    0    0  0.23322714847E+02 -0.16731567531E+02  0.28797142811E+02  0.50528808985E+02  0.29999845391E+02 0.  0.
        -12    1    1    2    0    0 -0.23322714847E+02  0.16731567531E+02 -0.28797142811E+02  0.40659191015E+02  0.00000000000E+00 0.  1.
         11    1    3    3    0    0 -0.19825511802E+01 -0.60785269728E+01  0.10861860955E+02  0.12603928872E+02  0.51100000000E-03 0. -1.
        -11    1    3    3    0    0  0.31360422604E+01 -0.10610841560E+02  0.41393685722E+01  0.11813513115E+02  0.51100000000E-03 0.  1.
        -12    1    3    3    0    0  0.22169223767E+02 -0.42198997692E-01  0.13795913283E+02  0.26111366998E+02  0.00000000000E+00 0.  1.
</event>
<event>
 7    1  0.5843820E-012  0.5052887E+02  0.7816164E-02  0.1300439E+00
        -11   -1    0    0    0    0  0.00000000000E+00  0.00000000000E+00  0.45593999997E+02  0.45594000000E+02  0.51100000000E-03 0.  1.
         11   -1    0    0    0    0 -0.00000000000E+00 -0.00000000000E+00 -0.45593999997E+02  0.45594000000E+02  0.51100000000E-03 0. -1.
    9900012    2    1    2    0    0  0.48159496468E+01 -0.11594644109E+02  0.38672157582E+02  0.50528869229E+02  0.30000028508E+02 0.  0.
        -12    1    1    2    0    0 -0.48159496468E+01  0.11594644109E+02 -0.38672157582E+02  0.40659130771E+02  0.00000000000E+00 0.  1.
         11    1    3    3    0    0 -0.12611020884E+01  0.40729663159E+01 -0.12175619799E+01  0.44341730372E+01  0.51100000000E-03 0. -1.
        -11    1    3    3    0    0  0.52026360794E+01 -0.50255867927E+01  0.32488029395E+01  0.79296068999E+01  0.51100000000E-03 0.  1.
        -12    1    3    3    0    0  0.87441565569E+00 -0.10642023632E+02  0.36640916622E+02  0.38165089292E+02  0.00000000000E+00 0.  1.
</event>
<event>
 7    1  0.5843820E-012  0.5052886E+02  0.7816164E-02  0.1300439E+00
        -11   -1    0    0    0    0  0.00000000000E+00  0.00000000000E+00  0.45593999997E+02  0.45594000000E+02  0.51100000000E-03 0.  1.
         11   -1    0    0    0    0 -0.00000000000E+00 -0.00000000000E+00 -0.45593999997E+02  0.45594000000E+02  0.51100000000E-03 0. -1.
    9900012    2    1    2    0    0  0.30953837895E+02 -0.22581823087E+02 -0.13604676029E+02  0.50528855589E+02  0.29999987048E+02 0.  0.
         12    1    1    2    0    0 -0.30953837895E+02  0.22581823087E+02  0.13604676029E+02  0.40659144411E+02  0.00000000000E+00 0. -1.
         11    1    3    3    0    0  0.80526944381E+01  0.78302815546E+00  0.50404041129E+01  0.95322974507E+01  0.51100000000E-03 0. -1.
        -11    1    3    3    0    0  0.62209824614E+01 -0.83205878154E+01  0.18931164496E+01  0.10560146520E+02  0.51100000000E-03 0.  1.
         12    1    3    3    0    0  0.16680160996E+02 -0.15044263427E+02 -0.20538196592E+02  0.30436411618E+02  0.00000000000E+00 0. -1.
</event>
<event>
 7    1  0.5843820E-012  0.5052887E+02  0.7816164E-02  0.1300439E+00
        -11   -1    0    0    0    0  0.00000000000E+00  0.00000000000E+00  0.45593999997E+02  0.45594000000E+02  0.51100000000E-03 0. -1.
         11   -1    0    0    0    0 -0.00000000000E+00 -0.00000000000E+00 -0.45593999997E+02  0.45594000000E+02  0.51100000000E-03 0.  1.
    9900012    2    1    2    0    0 -0.18195971800E+02 -0.18069212841E+01 -0.36315378701E+02  0.50528867146E+02  0.30000022176E+02 0.  0.
         12    1    1    2    0    0  0.18195971800E+02  0.18069212841E+01  0.36315378701E+02  0.40659132854E+02  0.00000000000E+00 0. -1.
         11    1    3    3    0    0  0.74107894770E+00 -0.25535701886E+01 -0.75853225666E+01  0.80378502982E+01  0.51100000000E-03 0.  1.
        -11    1    3    3    0    0 -0.17317942858E+02 -0.72478055164E+01 -0.83641370489E+01  0.20552387172E+02  0.51100000000E-03 0. -1.
         12    1    3    3    0    0 -0.16191078899E+01  0.79944544209E+01 -0.20365919085E+02  0.21938629675E+02  0.00000000000E+00 0. -1.
</event>
<event>
 7    1  0.5843820E-012  0.5052876E+02  0.7816164E-02  0.1300439E+00
        -11   -1    0    0    0    0  0.00000000000E+00  0.00000000000E+00  0.45593999997E+02  0.45594000000E+02  0.51100000000E-03 0.  1.
         11   -1    0    0    0    0 -0.00000000000E+00 -0.00000000000E+00 -0.45593999997E+02  0.45594000000E+02  0.51100000000E-03 0. -1.
    9900012    2    1    2    0    0 -0.24883896873E+02  0.31448012037E+02 -0.67073368042E+01  0.50528755643E+02  0.29999683250E+02 0.  0.
         12    1    1    2    0    0  0.24883896873E+02 -0.31448012037E+02  0.67073368042E+01  0.40659244357E+02  0.00000000000E+00 0. -1.
         11    1    3    3    0    0 -0.20265311886E+02  0.22114210115E+02 -0.69837008555E+01  0.30797617323E+02  0.51100000000E-03 0. -1.
        -11    1    3    3    0    0 -0.77655944728E+01  0.42617472506E+00  0.49215559365E+01  0.92036838010E+01  0.51100000000E-03 0.  1.
        -12    1    3    3    0    0  0.31470094860E+01  0.89076271979E+01 -0.46451918852E+01  0.10527454519E+02  0.00000000000E+00 0.  1.
</event>
<event>
 7    1  0.5843820E-012  0.5052887E+02  0.7816164E-02  0.1300439E+00
        -11   -1    0    0    0    0  0.00000000000E+00  0.00000000000E+00  0.45593999997E+02  0.45594000000E+02  0.51100000000E-03 0. -1.
         11   -1    0    0    0    0 -0.00000000000E+00 -0.00000000000E+00 -0.45593999997E+02  0.45594000000E+02  0.51100000000E-03 0.  1.
    9900012    2    1    2    0    0 -0.16173456864E+02  0.20396464451E+02 -0.31234091241E+02  0.50528869111E+02  0.30000028148E+02 0.  0.
         12    1    1    2    0    0  0.16173456864E+02 -0.20396464451E+02  0.31234091241E+02  0.40659130889E+02  0.00000000000E+00 0. -1.
         11    1    3    3    0    0 -0.27827706586E+01 -0.41559962096E+01 -0.80158170084E+01  0.94482506108E+01  0.51100000000E-03 0. -1.
        -11    1    3    3    0    0 -0.65419849429E+01 -0.16691904039E+01 -0.38776233872E+01  0.77858671316E+01  0.51100000000E-03 0.  1.
        -12    1    3    3    0    0 -0.68487012621E+01  0.26221651064E+02 -0.19340650846E+02  0.33294751368E+02  0.00000000000E+00 0.  1.
</event>
<event>
 7    1  0.5843820E-012  0.5052885E+02  0.7816164E-02  0.1300439E+00
        -11   -1    0    0    0    0  0.00000000000E+00  0.00000000000E+00  0.45593999997E+02  0.45594000000E+02  0.51100000000E-03 0. -1.
         11   -1    0    0    0    0 -0.00000000000E+00 -0.00000000000E+00 -0.45593999997E+02  0.45594000000E+02  0.51100000000E-03 0.  1.
    9900012    2    1    2    0    0  0.16552491629E+02 -0.35062728299E+02 -0.12238729317E+02  0.50528851089E+02  0.29999973370E+02 0.  0.
         12    1    1    2    0    0 -0.16552491629E+02  0.35062728299E+02  0.12238729317E+02  0.40659148911E+02  0.00000000000E+00 0. -1.
         11    1    3    3    0    0  0.44165881018E+01 -0.81523873616E+01  0.67652150452E+01  0.11477621924E+02  0.51100000000E-03 0. -1.
        -11    1    3    3    0    0  0.15381074079E+02 -0.23426396663E+02 -0.11780704572E+02  0.30399975344E+02  0.51100000000E-03 0.  1.
        -12    1    3    3    0    0 -0.32451705518E+01 -0.34839442744E+01 -0.72232397901E+01  0.86512538214E+01  0.00000000000E+00 0.  1.
</event>
<event>
 7    1  0.1221989E-011  0.5052887E+02  0.7816164E-02  0.1300439E+00
        -11   -1    0    0    0    0  0.00000000000E+00  0.00000000000E+00  0.45593999997E+02  0.45594000000E+02  0.51100000000E-03 0. -1.
         11   -1    0    0    0    0 -0.00000000000E+00 -0.00000000000E+00 -0.45593999997E+02  0.45594000000E+02  0.51100000000E-03 0.  1.
    9900012    2    1    2    0    0 -0.72749506413E+01 -0.71491841061E+01 -0.39358973521E+02  0.50528873880E+02  0.30000042645E+02 0.  0.
         12    1    1    2    0    0  0.72749506413E+01  0.71491841061E+01  0.39358973521E+02  0.40659126120E+02  0.00000000000E+00 0. -1.
         11    1    3    3    0    0  0.28204548701E+01  0.36446641050E+00  0.21560172462E+01  0.35687829951E+01  0.51100000000E-03 0. -1.
        -11    1    3    3    0    0 -0.12517430131E+02 -0.18929931005E+01 -0.14447847790E+02  0.19209627429E+02  0.51100000000E-03 0.  1.
        -12    1    3    3    0    0  0.24220246191E+01 -0.56206574161E+01 -0.27067142977E+02  0.27750463455E+02  0.00000000000E+00 0.  1.
</event>
<event>
 7    1  0.5843820E-012  0.5052886E+02  0.7816164E-02  0.1300439E+00
        -11   -1    0    0    0    0  0.00000000000E+00  0.00000000000E+00  0.45593999997E+02  0.45594000000E+02  0.51100000000E-03 0. -1.
         11   -1    0    0    0    0 -0.00000000000E+00 -0.00000000000E+00 -0.45593999997E+02  0.45594000000E+02  0.51100000000E-03 0.  1.
    9900012    2    1    2    0    0 -0.11782493803E+02  0.30280418232E+02  0.24442475232E+02  0.50528862232E+02  0.30000007242E+02 0.  0.
        -12    1    1    2    0    0  0.11782493803E+02 -0.30280418232E+02 -0.24442475232E+02  0.40659137768E+02  0.00000000000E+00 0.  1.
         11    1    3    3    0    0  0.26963242835E+01 -0.25000222287E+01  0.91990726909E+00  0.37903173258E+01  0.51100000000E-03 0.  1.
        -11    1    3    3    0    0 -0.96703181649E-01  0.34393919542E-01 -0.25038427201E+01  0.25059455451E+01  0.51100000000E-03 0. -1.
         12    1    3    3    0    0 -0.14382114905E+02  0.32746046541E+02  0.26026410683E+02  0.44232599361E+02  0.00000000000E+00 0. -1.
</event>
<event>
 7    1  0.5843820E-012  0.5052886E+02  0.7816164E-02  0.1300439E+00
        -11   -1    0    0    0    0  0.00000000000E+00  0.00000000000E+00  0.45593999997E+02  0.45594000000E+02  0.51100000000E-03 0.  1.
         11   -1    0    0    0    0 -0.00000000000E+00 -0.00000000000E+00 -0.45593999997E+02  0.45594000000E+02  0.51100000000E-03 0. -1.
    9900012    2    1    2    0    0 -0.40631050826E+02 -0.13397573858E+01 -0.69883837523E+00  0.50528860607E+02  0.30000002302E+02 0.  0.
        -12    1    1    2    0    0  0.40631050826E+02  0.13397573858E+01  0.69883837523E+00  0.40659139393E+02  0.00000000000E+00 0.  1.
         11    1    3    3    0    0 -0.77026169844E+01 -0.39005238328E+01 -0.22645636101E+01  0.89259533487E+01  0.51100000000E-03 0. -1.
        -11    1    3    3    0    0 -0.29683451647E+02 -0.66429583673E+01  0.57985607003E+01  0.30965456625E+02  0.51100000000E-03 0.  1.
         12    1    3    3    0    0 -0.32449821945E+01  0.92037248143E+01 -0.42328354655E+01  0.10637450633E+02  0.00000000000E+00 0. -1.
</event>
<event>
 7    1  0.5843820E-012  0.5052882E+02  0.7816164E-02  0.1300439E+00
        -11   -1    0    0    0    0  0.00000000000E+00  0.00000000000E+00  0.45593999997E+02  0.45594000000E+02  0.51100000000E-03 0. -1.
         11   -1    0    0    0    0 -0.00000000000E+00 -0.00000000000E+00 -0.45593999997E+02  0.45594000000E+02  0.51100000000E-03 0.  1.
    9900012    2    1    2    0    0 -0.20861437584E+02  0.70877386155E+01  0.34172116552E+02  0.50528816948E+02  0.29999869595E+02 0.  0.
        -12    1    1    2    0    0  0.20861437584E+02 -0.70877386155E+01 -0.34172116552E+02  0.40659183052E+02  0.00000000000E+00 0.  1.
         11    1    3    3    0    0 -0.76956802472E+01  0.34933719529E+01  0.20464118622E+01  0.86956853577E+01  0.51100000000E-03 0.  1.
        -11    1    3    3    0    0 -0.18320469704E+02 -0.19593674272E+01  0.17756733906E+02  0.25588675819E+02  0.51100000000E-03 0. -1.
         12    1    3    3    0    0  0.51547123669E+01  0.55537340898E+01  0.14368970784E+02  0.16244455772E+02  0.00000000000E+00 0. -1.
</event>
<event>
 7    1  0.5843820E-012  0.5052887E+02  0.7816164E-02  0.1300439E+00
        -11   -1    0    0    0    0  0.00000000000E+00  0.00000000000E+00  0.45593999997E+02  0.45594000000E+02  0.51100000000E-03 0.  1.
         11   -1    0    0    0    0 -0.00000000000E+00 -0.00000000000E+00 -0.45593999997E+02  0.45594000000E+02  0.51100000000E-03 0. -1.
    9900012    2    1    2    0    0 -0.23730646156E+02  0.32999475360E+02  0.10277731913E+01  0.50528865002E+02  0.30000015660E+02 0.  0.
         12    1    1    2    0    0  0.23730646156E+02 -0.32999475360E+02 -0.10277731913E+01  0.40659134998E+02  0.00000000000E+00 0. -1.
         11    1    3    3    0    0 -0.61852473384E+01  0.12643600629E+02  0.11996473277E+02  0.18494142123E+02  0.51100000000E-03 0. -1.
        -11    1    3    3    0    0 -0.31786972832E+01  0.10361639652E+02  0.92042197561E+00  0.10877263883E+02  0.51100000000E-03 0.  1.
         12    1    3    3    0    0 -0.14366701535E+02  0.99942350788E+01 -0.11889122061E+02  0.21157458996E+02  0.00000000000E+00 0. -1.
</event>
<event>
 7    1  0.5843820E-012  0.5052886E+02  0.7816164E-02  0.1300439E+00
        -11   -1    0    0    0    0  0.00000000000E+00  0.00000000000E+00  0.45593999997E+02  0.45594000000E+02  0.51100000000E-03 0. -1.
         11   -1    0    0    0    0 -0.00000000000E+00 -0.00000000000E+00 -0.45593999997E+02  0.45594000000E+02  0.51100000000E-03 0.  1.
    9900012    2    1    2    0    0 -0.28840389806E+02 -0.24268436905E+02 -0.15246009169E+02  0.50528857000E+02  0.29999991336E+02 0.  0.
         12    1    1    2    0    0  0.28840389806E+02  0.24268436905E+02  0.15246009169E+02  0.40659143000E+02  0.00000000000E+00 0. -1.
         11    1    3    3    0    0 -0.14589026530E+02 -0.16274699858E+02 -0.61078226614E+01  0.22693854861E+02  0.51100000000E-03 0. -1.
        -11    1    3    3    0    0 -0.20713183614E+01 -0.31673352406E+01 -0.13504795685E+02  0.14025044707E+02  0.51100000000E-03 0.  1.
         12    1    3    3    0    0 -0.12180044915E+02 -0.48264018059E+01  0.43666091777E+01  0.13809957431E+02  0.00000000000E+00 0. -1.
</event>
<event>
 7    1  0.5843820E-012  0.5052882E+02  0.7816164E-02  0.1300439E+00
        -11   -1    0    0    0    0  0.00000000000E+00  0.00000000000E+00  0.45593999997E+02  0.45594000000E+02  0.51100000000E-03 0. -1.
         11   -1    0    0    0    0 -0.00000000000E+00 -0.00000000000E+00 -0.45593999997E+02  0.45594000000E+02  0.51100000000E-03 0.  1.
    9900012    2    1    2    0    0  0.18262315775E+02  0.25028995020E+01  0.36240754267E+02  0.50528819570E+02  0.29999877565E+02 0.  0.
        -12    1    1    2    0    0 -0.18262315775E+02 -0.25028995020E+01 -0.36240754267E+02  0.40659180430E+02  0.00000000000E+00 0.  1.
         11    1    3    3    0    0  0.13529294707E+02 -0.35344563026E+01  0.34199697911E+02  0.36947984168E+02  0.51100000000E-03 0. -1.
        -11    1    3    3    0    0  0.20515546162E+01 -0.73086185870E+00  0.52055463584E+01  0.56427607206E+01  0.51100000000E-03 0.  1.
        -12    1    3    3    0    0  0.26814664519E+01  0.67682176634E+01 -0.31644900025E+01  0.79380746814E+01  0.00000000000E+00 0.  1.
</event>
<event>
 7    1  0.5843820E-012  0.5052885E+02  0.7816164E-02  0.1300439E+00
        -11   -1    0    0    0    0  0.00000000000E+00  0.00000000000E+00  0.45593999997E+02  0.45594000000E+02  0.51100000000E-03 0. -1.
         11   -1    0    0    0    0 -0.00000000000E+00 -0.00000000000E+00 -0.45593999997E+02  0.45594000000E+02  0.51100000000E-03 0.  1.
    9900012    2    1    2    0    0 -0.26976276908E+02  0.62031019989E+01  0.29782020907E+02  0.50528846547E+02  0.29999959563E+02 0.  0.
        -12    1    1    2    0    0  0.26976276908E+02 -0.62031019989E+01 -0.29782020907E+02  0.40659153453E+02  0.00000000000E+00 0.  1.
         11    1    3    3    0    0 -0.60470901491E+01  0.31496135398E+01  0.55452201129E+01  0.87884487302E+01  0.51100000000E-03 0. -1.
        -11    1    3    3    0    0 -0.69507429191E+01  0.13708565449E+02  0.62511266336E+01  0.16592594078E+02  0.51100000000E-03 0.  1.
         12    1    3    3    0    0 -0.13978443840E+02 -0.10655076990E+02  0.17985674161E+02  0.25147803738E+02  0.00000000000E+00 0. -1.
</event>
<event>
 7    1  0.5843820E-012  0.5052886E+02  0.7816164E-02  0.1300439E+00
        -11   -1    0    0    0    0  0.00000000000E+00  0.00000000000E+00  0.45593999997E+02  0.45594000000E+02  0.51100000000E-03 0. -1.
         11   -1    0    0    0    0 -0.00000000000E+00 -0.00000000000E+00 -0.45593999997E+02  0.45594000000E+02  0.51100000000E-03 0.  1.
    9900012    2    1    2    0    0 -0.36752952385E+02  0.81845954128E+00  0.17369974594E+02  0.50528863236E+02  0.30000010291E+02 0.  0.
        -12    1    1    2    0    0  0.36752952385E+02 -0.81845954128E+00 -0.17369974594E+02  0.40659136764E+02  0.00000000000E+00 0.  1.
         11    1    3    3    0    0  0.30854532708E+00  0.47012796684E+01  0.16035344264E+01  0.49768015489E+01  0.51100000000E-03 0. -1.
        -11    1    3    3    0    0 -0.98053260182E+01 -0.36274126695E+01 -0.47036009328E+01  0.11464135510E+02  0.51100000000E-03 0.  1.
         12    1    3    3    0    0 -0.27256171694E+02 -0.25540745762E+00  0.20470041101E+02  0.34087926177E+02  0.00000000000E+00 0. -1.
</event>
<event>
 7    1  0.5843820E-012  0.5052884E+02  0.7816164E-02  0.1300439E+00
        -11   -1    0    0    0    0  0.00000000000E+00  0.00000000000E+00  0.45593999997E+02  0.45594000000E+02  0.51100000000E-03 0. -1.
         11   -1    0    0    0    0 -0.00000000000E+00 -0.00000000000E+00 -0.45593999997E+02  0.45594000000E+02  0.51100000000E-03 0.  1.
    9900012    2    1    2    0    0 -0.30645456527E+02  0.37297421484E+01  0.26459627815E+02  0.50528844988E+02  0.29999954824E+02 0.  0.
        -12    1    1    2    0    0  0.30645456527E+02 -0.37297421484E+01 -0.26459627815E+02  0.40659155012E+02  0.00000000000E+00 0.  1.
         11    1    3    3    0    0 -0.21183144658E+02 -0.11520634028E+01  0.22695783911E+02  0.31066887119E+02  0.51100000000E-03 0. -1.
        -11    1    3    3    0    0  0.20130211216E+00  0.72800380929E+01  0.57865706189E+01  0.93018211638E+01  0.51100000000E-03 0.  1.
        -12    1    3    3    0    0 -0.96636139811E+01 -0.23982325416E+01 -0.20227267148E+01  0.10160136705E+02  0.00000000000E+00 0.  1.
</event>
<event>
 7    1  0.5843820E-012  0.5052887E+02  0.7816164E-02  0.1300439E+00
        -11   -1    0    0    0    0  0.00000000000E+00  0.00000000000E+00  0.45593999997E+02  0.45594000000E+02  0.51100000000E-03 0. -1.
         11   -1    0    0    0    0 -0.00000000000E+00 -0.00000000000E+00 -0.45593999997E+02  0.45594000000E+02  0.51100000000E-03 0.  1.
    9900012    2    1    2    0    0  0.46788591390E+01  0.25737523329E+02 -0.31126408357E+02  0.50528866621E+02  0.30000020581E+02 0.  0.
         12    1    1    2    0    0 -0.46788591390E+01 -0.25737523329E+02  0.31126408357E+02  0.40659133379E+02  0.00000000000E+00 0. -1.
         11    1    3    3    0    0  0.16628618278E+01  0.64049600531E+01 -0.17533154167E+02  0.18740333990E+02  0.51100000000E-03 0. -1.
        -11    1    3    3    0    0  0.12090901982E+02  0.96954624318E+01 -0.73751315039E+01  0.17163463154E+02  0.51100000000E-03 0.  1.
         12    1    3    3    0    0 -0.90749046703E+01  0.96371008442E+01 -0.62181226854E+01  0.14625069476E+02  0.00000000000E+00 0. -1.
</event>
<event>
 7    1  0.5843820E-012  0.5052882E+02  0.7816164E-02  0.1300439E+00
        -11   -1    0    0    0    0  0.00000000000E+00  0.00000000000E+00  0.45593999997E+02  0.45594000000E+02  0.51100000000E-03 0. -1.
         11   -1    0    0    0    0 -0.00000000000E+00 -0.00000000000E+00 -0.45593999997E+02  0.45594000000E+02  0.51100000000E-03 0.  1.
    9900012    2    1    2    0    0 -0.90890977450E+01 -0.20269622984E+02  0.34054364973E+02  0.50528817919E+02  0.29999872547E+02 0.  0.
        -12    1    1    2    0    0  0.90890977450E+01  0.20269622984E+02 -0.34054364973E+02  0.40659182081E+02  0.00000000000E+00 0.  1.
         11    1    3    3    0    0 -0.22921319979E+01 -0.73619364220E+01  0.88519080412E+01  0.11739176002E+02  0.51100000000E-03 0. -1.
        -11    1    3    3    0    0 -0.15757412965E+02 -0.92189010550E+01  0.10150224220E+02  0.20888064822E+02  0.51100000000E-03 0.  1.
         12    1    3    3    0    0  0.89604472183E+01 -0.36887855074E+01  0.15052232712E+02  0.17901577095E+02  0.00000000000E+00 0. -1.
</event>
<event>
 7    1  0.5843820E-012  0.5052885E+02  0.7816164E-02  0.1300439E+00
        -11   -1    0    0    0    0  0.00000000000E+00  0.00000000000E+00  0.45593999997E+02  0.45594000000E+02  0.51100000000E-03 0. -1.
         11   -1    0    0    0    0 -0.00000000000E+00 -0.00000000000E+00 -0.45593999997E+02  0.45594000000E+02  0.51100000000E-03 0.  1.
    9900012    2    1    2    0    0  0.14403059514E+02 -0.11480737254E+02  0.36247909787E+02  0.50528850782E+02  0.29999972436E+02 0.  0.
        -12    1    1    2    0    0 -0.14403059514E+02  0.11480737254E+02 -0.36247909787E+02  0.40659149218E+02  0.00000000000E+00 0.  1.
         11    1    3    3    0    0  0.29101585998E+01  0.63162958917E+00  0.95296813230E+01  0.99841276731E+01  0.51100000000E-03 0. -1.
        -11    1    3    3    0    0  0.36011972966E+01  0.69939584968E+01  0.16242136383E+01  0.80325679348E+01  0.51100000000E-03 0.  1.
        -12    1    3    3    0    0  0.78917036177E+01 -0.19106325339E+02  0.25094014825E+02  0.32512155174E+02  0.00000000000E+00 0.  1.
</event>
<event>
 7    1  0.5843820E-012  0.5052883E+02  0.7816164E-02  0.1300439E+00
        -11   -1    0    0    0    0  0.00000000000E+00  0.00000000000E+00  0.45593999997E+02  0.45594000000E+02  0.51100000000E-03 0. -1.
         11   -1    0    0    0    0 -0.00000000000E+00 -0.00000000000E+00 -0.45593999997E+02  0.45594000000E+02  0.51100000000E-03 0.  1.
    9900012    2    1    2    0    0 -0.11527087538E+02  0.37356760136E+02  0.11169899211E+02  0.50528832235E+02  0.29999916061E+02 0.  0.
        -12    1    1    2    0    0  0.11527087538E+02 -0.37356760136E+02 -0.11169899211E+02  0.40659167765E+02  0.00000000000E+00 0.  1.
         11    1    3    3    0    0 -0.34302290004E+01  0.21377058004E+02 -0.86573362241E+00  0.21667823492E+02  0.51100000000E-03 0. -1.
        -11    1    3    3    0    0 -0.90652063274E+01  0.14907080598E+02  0.72884511311E+00  0.17462251664E+02  0.51100000000E-03 0.  1.
        -12    1    3    3    0    0  0.96834779019E+00  0.10726215338E+01  0.11306787720E+02  0.11398757079E+02  0.00000000000E+00 0.  1.
</event>
<event>
 7    1  0.5843820E-012  0.5052886E+02  0.7816164E-02  0.1300439E+00
        -11   -1    0    0    0    0  0.00000000000E+00  0.00000000000E+00  0.45593999997E+02  0.45594000000E+02  0.51100000000E-03 0. -1.
         11   -1    0    0    0    0 -0.00000000000E+00 -0.00000000000E+00 -0.45593999997E+02  0.45594000000E+02  0.51100000000E-03 0.  1.
    9900012    2    1    2    0    0 -0.13395696252E+02  0.45242821992E+01  0.38121541894E+02  0.50528858791E+02  0.29999996782E+02 0.  0.
        -12    1    1    2    0    0  0.13395696252E+02 -0.45242821992E+01 -0.38121541894E+02  0.40659141209E+02  0.00000000000E+00 0.  1.
         11    1    3    3    0    0 -0.11083998677E+02  0.45568409552E+01  0.27094198871E+02  0.29626262655E+02  0.51100000000E-03 0. -1.
        -11    1    3    3    0    0 -0.24542651289E+01  0.69772949255E+01  0.11718335823E+02  0.13857325013E+02  0.51100000000E-03 0.  1.
        -12    1    3    3    0    0  0.14256755335E+00 -0.70098536815E+01 -0.69099280110E+00  0.70452711228E+01  0.00000000000E+00 0.  1.
</event>
<event>
 7    1  0.5843820E-012  0.5052875E+02  0.7816164E-02  0.1300439E+00
        -11   -1    0    0    0    0  0.00000000000E+00  0.00000000000E+00  0.45593999997E+02  0.45594000000E+02  0.51100000000E-03 0. -1.
         11   -1    0    0    0    0 -0.00000000000E+00 -0.00000000000E+00 -0.45593999997E+02  0.45594000000E+02  0.51100000000E-03 0.  1.
    9900012    2    1    2    0    0 -0.19929522028E+02 -0.97296419706E+01 -0.34078187131E+02  0.50528749893E+02  0.29999665773E+02 0.  0.
         12    1    1    2    0    0  0.19929522028E+02  0.97296419706E+01  0.34078187131E+02  0.40659250107E+02  0.00000000000E+00 0. -1.
         11    1    3    3    0    0 -0.25610718910E+01  0.18812866645E+01 -0.19702726454E+01  0.37390243785E+01  0.51100000000E-03 0. -1.
        -11    1    3    3    0    0 -0.23034061548E+02 -0.23535973867E+01 -0.22724130357E+02  0.32442156414E+02  0.51100000000E-03 0.  1.
         12    1    3    3    0    0  0.56656114116E+01 -0.92573312484E+01 -0.93837841290E+01  0.14347569100E+02  0.00000000000E+00 0. -1.
</event>
<event>
 7    1  0.5843820E-012  0.5052887E+02  0.7816164E-02  0.1300439E+00
        -11   -1    0    0    0    0  0.00000000000E+00  0.00000000000E+00  0.45593999997E+02  0.45594000000E+02  0.51100000000E-03 0. -1.
         11   -1    0    0    0    0 -0.00000000000E+00 -0.00000000000E+00 -0.45593999997E+02  0.45594000000E+02  0.51100000000E-03 0.  1.
    9900012    2    1    2    0    0 -0.10848965623E+02  0.11188260472E+02 -0.37553794464E+02  0.50528871799E+02  0.30000036319E+02 0.  0.
         12    1    1    2    0    0  0.10848965623E+02 -0.11188260472E+02  0.37553794464E+02  0.40659128201E+02  0.00000000000E+00 0. -1.
         11    1    3    3    0    0  0.11260572910E+01  0.22165722262E+01 -0.10837357907E+02  0.11118881424E+02  0.51100000000E-03 0. -1.
        -11    1    3    3    0    0 -0.77432036528E+01  0.15968192116E+02 -0.25611236146E+02  0.31158879625E+02  0.51100000000E-03 0.  1.
         12    1    3    3    0    0 -0.42318192612E+01 -0.69965038703E+01 -0.11052004106E+01  0.82511107503E+01  0.00000000000E+00 0. -1.
</event>
<event>
 7    1  0.5843820E-012  0.5052886E+02  0.7816164E-02  0.1300439E+00
        -11   -1    0    0    0    0  0.00000000000E+00  0.00000000000E+00  0.45593999997E+02  0.45594000000E+02  0.51100000000E-03 0. -1.
         11   -1    0    0    0    0 -0.00000000000E+00 -0.00000000000E+00 -0.45593999997E+02  0.45594000000E+02  0.51100000000E-03 0.  1.
    9900012    2    1    2    0    0 -0.10168126739E+02  0.36533214597E+02  0.14666244715E+02  0.50528864443E+02  0.30000013962E+02 0.  0.
        -12    1    1    2    0    0  0.10168126739E+02 -0.36533214597E+02 -0.14666244715E+02  0.40659135557E+02  0.00000000000E+00 0.  1.
         11    1    3    3    0    0 -0.93214343521E+01  0.19073212044E+02 -0.66664647238E+00  0.21239608609E+02  0.51100000000E-03 0. -1.
        -11    1    3    3    0    0 -0.38729848609E+01  0.18297445706E+02  0.63148136277E+01  0.19740146973E+02  0.51100000000E-03 0.  1.
        -12    1    3    3    0    0  0.30262924743E+01 -0.83744315309E+00  0.90180775601E+01  0.95491088618E+01  0.00000000000E+00 0.  1.
</event>
<event>
 7    1  0.5843820E-012  0.5052887E+02  0.7816164E-02  0.1300439E+00
        -11   -1    0    0    0    0  0.00000000000E+00  0.00000000000E+00  0.45593999997E+02  0.45594000000E+02  0.51100000000E-03 0. -1.
         11   -1    0    0    0    0 -0.00000000000E+00 -0.00000000000E+00 -0.45593999997E+02  0.45594000000E+02  0.51100000000E-03 0.  1.
    9900012    2    1    2    0    0  0.10256068976E+02  0.20257299595E+02  0.33728616023E+02  0.50528872162E+02  0.30000037424E+02 0.  0.
        -12    1    1    2    0    0 -0.10256068976E+02 -0.20257299595E+02 -0.33728616023E+02  0.40659127838E+02  0.00000000000E+00 0.  1.
         11    1    3    3    0    0  0.11597655337E+02  0.97680993414E+01  0.71281890983E+01  0.16755072490E+02  0.51100000000E-03 0. -1.
        -11    1    3    3    0    0  0.75500498635E+01  0.62418660178E+01  0.77046702865E+01  0.12462988759E+02  0.51100000000E-03 0.  1.
         12    1    3    3    0    0 -0.88916362245E+01  0.42473342357E+01  0.18895756638E+02  0.21310810913E+02  0.00000000000E+00 0. -1.
</event>
<event>
 7    1  0.5843820E-012  0.5052894E+02  0.7816164E-02  0.1300439E+00
        -11   -1    0    0    0    0  0.00000000000E+00  0.00000000000E+00  0.45593999997E+02  0.45594000000E+02  0.51100000000E-03 0. -1.
         11   -1    0    0    0    0 -0.00000000000E+00 -0.00000000000E+00 -0.45593999997E+02  0.45594000000E+02  0.51100000000E-03 0.  1.
    9900012    2    1    2    0    0 -0.80108988438E+01 -0.18847018588E+02  0.35125125385E+02  0.50528941437E+02  0.30000247990E+02 0.  0.
        -12    1    1    2    0    0  0.80108988438E+01  0.18847018588E+02 -0.35125125385E+02  0.40659058563E+02  0.00000000000E+00 0.  1.
         11    1    3    3    0    0 -0.26740526550E+01 -0.69795839646E+01 -0.32177601657E+01  0.81375137890E+01  0.51100000000E-03 0. -1.
        -11    1    3    3    0    0  0.39728627887E+01 -0.18112091781E+01  0.87029886093E+01  0.97368438634E+01  0.51100000000E-03 0.  1.
        -12    1    3    3    0    0 -0.93097089775E+01 -0.10056225446E+02  0.29639896941E+02  0.32654583784E+02  0.00000000000E+00 0.  1.
</event>
<event>
 7    1  0.5843820E-012  0.5052885E+02  0.7816164E-02  0.1300439E+00
        -11   -1    0    0    0    0  0.00000000000E+00  0.00000000000E+00  0.45593999997E+02  0.45594000000E+02  0.51100000000E-03 0. -1.
         11   -1    0    0    0    0 -0.00000000000E+00 -0.00000000000E+00 -0.45593999997E+02  0.45594000000E+02  0.51100000000E-03 0.  1.
    9900012    2    1    2    0    0  0.25691660342E+02 -0.20442428765E+02 -0.23983580429E+02  0.50528850536E+02  0.29999971690E+02 0.  0.
         12    1    1    2    0    0 -0.25691660342E+02  0.20442428765E+02  0.23983580429E+02  0.40659149464E+02  0.00000000000E+00 0. -1.
         11    1    3    3    0    0  0.11412541148E+02  0.24184038506E+01 -0.44403966646E+01  0.12482463516E+02  0.51100000000E-03 0. -1.
        -11    1    3    3    0    0  0.52634104900E+01  0.12151447557E+00 -0.10515908994E+02  0.11760212497E+02  0.51100000000E-03 0.  1.
         12    1    3    3    0    0  0.90157087040E+01 -0.22982347091E+02 -0.90272747709E+01  0.26286174523E+02  0.00000000000E+00 0. -1.
</event>
<event>
 7    1  0.5843820E-012  0.5052886E+02  0.7816164E-02  0.1300439E+00
        -11   -1    0    0    0    0  0.00000000000E+00  0.00000000000E+00  0.45593999997E+02  0.45594000000E+02  0.51100000000E-03 0. -1.
         11   -1    0    0    0    0 -0.00000000000E+00 -0.00000000000E+00 -0.45593999997E+02  0.45594000000E+02  0.51100000000E-03 0.  1.
    9900012    2    1    2    0    0 -0.13706252108E+02 -0.22451886226E+02 -0.31003501169E+02  0.50528860478E+02  0.30000001908E+02 0.  0.
         12    1    1    2    0    0  0.13706252108E+02  0.22451886226E+02  0.31003501169E+02  0.40659139522E+02  0.00000000000E+00 0. -1.
         11    1    3    3    0    0  0.87529168365E-01 -0.13753113615E+02 -0.72501614408E+01  0.15547367515E+02  0.51100000000E-03 0. -1.
        -11    1    3    3    0    0 -0.24051431101E+01 -0.63713530539E+01  0.16829212052E+01  0.70150607382E+01  0.51100000000E-03 0.  1.
        -12    1    3    3    0    0 -0.11388638166E+02 -0.23274195569E+01 -0.25436260933E+02  0.27966432224E+02  0.00000000000E+00 0.  1.
</event>
<event>
 7    1  0.5843820E-012  0.5052886E+02  0.7816164E-02  0.1300439E+00
        -11   -1    0    0    0    0  0.00000000000E+00  0.00000000000E+00  0.45593999997E+02  0.45594000000E+02  0.51100000000E-03 0. -1.
         11   -1    0    0    0    0 -0.00000000000E+00 -0.00000000000E+00 -0.45593999997E+02  0.45594000000E+02  0.51100000000E-03 0.  1.
    9900012    2    1    2    0    0  0.21514237552E+02 -0.19859618784E+02  0.28211681631E+02  0.50528857656E+02  0.29999993331E+02 0.  0.
        -12    1    1    2    0    0 -0.21514237552E+02  0.19859618784E+02 -0.28211681631E+02  0.40659142344E+02  0.00000000000E+00 0.  1.
         11    1    3    3    0    0  0.61777602931E+01 -0.39470800527E+01  0.77968766373E+01  0.10702123562E+02  0.51100000000E-03 0. -1.
        -11    1    3    3    0    0  0.57800464429E+01 -0.21683759071E+02  0.16997468172E+02  0.28151523385E+02  0.51100000000E-03 0.  1.
        -12    1    3    3    0    0  0.95564308159E+01  0.57712203398E+01  0.34173368214E+01  0.11675210709E+02  0.00000000000E+00 0.  1.
</event>
<event>
 7    1  0.5843820E-012  0.5052886E+02  0.7816164E-02  0.1300439E+00
        -11   -1    0    0    0    0  0.00000000000E+00  0.00000000000E+00  0.45593999997E+02  0.45594000000E+02  0.51100000000E-03 0. -1.
         11   -1    0    0    0    0 -0.00000000000E+00 -0.00000000000E+00 -0.45593999997E+02  0.45594000000E+02  0.51100000000E-03 0.  1.
    9900012    2    1    2    0    0 -0.23483960895E+02 -0.33078098678E+02 -0.27402118578E+01  0.50528858439E+02  0.29999995711E+02 0.  0.
         12    1    1    2    0    0  0.23483960895E+02  0.33078098678E+02  0.27402118578E+01  0.40659141561E+02  0.00000000000E+00 0. -1.
         11    1    3    3    0    0 -0.84026871445E+01 -0.87322926146E+01  0.55000185979E+01  0.13308203876E+02  0.51100000000E-03 0.  1.
        -11    1    3    3    0    0 -0.28201956187E+01  0.16513815795E+01  0.46789401683E+01  0.57072800710E+01  0.51100000000E-03 0. -1.
        -12    1    3    3    0    0 -0.12261078132E+02 -0.25997187643E+02 -0.12919170624E+02  0.31513374492E+02  0.00000000000E+00 0.  1.
</event>
<event>
 7    1  0.5843820E-012  0.5052886E+02  0.7816164E-02  0.1300439E+00
        -11   -1    0    0    0    0  0.00000000000E+00  0.00000000000E+00  0.45593999997E+02  0.45594000000E+02  0.51100000000E-03 0. -1.
         11   -1    0    0    0    0 -0.00000000000E+00 -0.00000000000E+00 -0.45593999997E+02  0.45594000000E+02  0.51100000000E-03 0.  1.
    9900012    2    1    2    0    0 -0.14740786026E+02 -0.20276999334E+02  0.32011219158E+02  0.50528860478E+02  0.30000001910E+02 0.  0.
        -12    1    1    2    0    0  0.14740786026E+02  0.20276999334E+02 -0.32011219158E+02  0.40659139522E+02  0.00000000000E+00 0.  1.
         11    1    3    3    0    0 -0.83108258850E+00  0.66817338862E+01  0.86902005369E+01  0.10993445849E+02  0.51100000000E-03 0. -1.
        -11    1    3    3    0    0 -0.21801364025E+01 -0.93378089945E+01  0.26491334016E+01  0.99481445301E+01  0.51100000000E-03 0.  1.
        -12    1    3    3    0    0 -0.11729567035E+02 -0.17620924226E+02  0.20671885219E+02  0.29587270099E+02  0.00000000000E+00 0.  1.
</event>
<event>
 7    1  0.5843820E-012  0.5052886E+02  0.7816164E-02  0.1300439E+00
        -11   -1    0    0    0    0  0.00000000000E+00  0.00000000000E+00  0.45593999997E+02  0.45594000000E+02  0.51100000000E-03 0. -1.
         11   -1    0    0    0    0 -0.00000000000E+00 -0.00000000000E+00 -0.45593999997E+02  0.45594000000E+02  0.51100000000E-03 0.  1.
    9900012    2    1    2    0    0 -0.10607831489E+02 -0.13553184141E+02  0.36836812846E+02  0.50528859946E+02  0.30000000293E+02 0.  0.
        -12    1    1    2    0    0  0.10607831489E+02  0.13553184141E+02 -0.36836812846E+02  0.40659140054E+02  0.00000000000E+00 0.  1.
         11    1    3    3    0    0  0.26382645502E+01  0.29615915728E+00  0.38067971487E+00  0.26819894462E+01  0.51100000000E-03 0. -1.
        -11    1    3    3    0    0  0.45748461621E+01 -0.54167016101E+01  0.84213395529E+00  0.71399624369E+01  0.51100000000E-03 0.  1.
        -12    1    3    3    0    0 -0.17820942201E+02 -0.84326416882E+01  0.35613999176E+02  0.40706908063E+02  0.00000000000E+00 0.  1.
</event>
<event>
 7    1  0.5843820E-012  0.5052886E+02  0.7816164E-02  0.1300439E+00
        -11   -1    0    0    0    0  0.00000000000E+00  0.00000000000E+00  0.45593999997E+02  0.45594000000E+02  0.51100000000E-03 0. -1.
         11   -1    0    0    0    0 -0.00000000000E+00 -0.00000000000E+00 -0.45593999997E+02  0.45594000000E+02  0.51100000000E-03 0.  1.
    9900012    2    1    2    0    0 -0.13028321685E+02  0.17531783783E+02 -0.34293803809E+02  0.50528860950E+02  0.30000003345E+02 0.  0.
         12    1    1    2    0    0  0.13028321685E+02 -0.17531783783E+02  0.34293803809E+02  0.40659139050E+02  0.00000000000E+00 0. -1.
         11    1    3    3    0    0 -0.55789917866E+01  0.44800071591E+00 -0.15440184845E+02  0.16423311551E+02  0.51100000000E-03 0. -1.
        -11    1    3    3    0    0 -0.15017986649E+02  0.10821714975E+02 -0.11034146035E+02  0.21549984152E+02  0.51100000000E-03 0.  1.
         12    1    3    3    0    0  0.75686567498E+01  0.62620680923E+01 -0.78194729297E+01  0.12555565248E+02  0.00000000000E+00 0. -1.
</event>
<event>
 7    1  0.5843820E-012  0.5052885E+02  0.7816164E-02  0.1300439E+00
        -11   -1    0    0    0    0  0.00000000000E+00  0.00000000000E+00  0.45593999997E+02  0.45594000000E+02  0.51100000000E-03 0. -1.
         11   -1    0    0    0    0 -0.00000000000E+00 -0.00000000000E+00 -0.45593999997E+02  0.45594000000E+02  0.51100000000E-03 0.  1.
    9900012    2    1    2    0    0 -0.34352100380E+02  0.13226691516E+02 -0.17267133663E+02  0.50528854978E+02  0.29999985192E+02 0.  0.
         12    1    1    2    0    0  0.34352100380E+02 -0.13226691516E+02  0.17267133663E+02  0.40659145022E+02  0.00000000000E+00 0. -1.
         11    1    3    3    0    0 -0.27248926524E+02  0.36245733219E+01 -0.11512900908E+02  0.29802490098E+02  0.51100000000E-03 0. -1.
        -11    1    3    3    0    0 -0.94638164849E+01 -0.75852971960E-01 -0.50813277524E+01  0.10741948991E+02  0.51100000000E-03 0.  1.
         12    1    3    3    0    0  0.23606426293E+01  0.96779711658E+01 -0.67290500294E+00  0.99844158894E+01  0.00000000000E+00 0. -1.
</event>
<event>
 7    1  0.5843820E-012  0.5052886E+02  0.7816164E-02  0.1300439E+00
        -11   -1    0    0    0    0  0.00000000000E+00  0.00000000000E+00  0.45593999997E+02  0.45594000000E+02  0.51100000000E-03 0. -1.
         11   -1    0    0    0    0 -0.00000000000E+00 -0.00000000000E+00 -0.45593999997E+02  0.45594000000E+02  0.51100000000E-03 0.  1.
    9900012    2    1    2    0    0 -0.16237690000E+02 -0.18539825591E+02 -0.32338487530E+02  0.50528862218E+02  0.30000007197E+02 0.  0.
         12    1    1    2    0    0  0.16237690000E+02  0.18539825591E+02  0.32338487530E+02  0.40659137782E+02  0.00000000000E+00 0. -1.
         11    1    3    3    0    0 -0.75371265095E+01 -0.12166757775E+02 -0.13565180143E+02  0.19719340337E+02  0.51100000000E-03 0. -1.
        -11    1    3    3    0    0  0.18964766497E+01 -0.10487919331E+02 -0.15800930273E+02  0.19059445778E+02  0.51100000000E-03 0.  1.
         12    1    3    3    0    0 -0.10597040140E+02  0.41148515148E+01 -0.29723771137E+01  0.11750076103E+02  0.00000000000E+00 0. -1.
</event>
<event>
 7    1  0.5843820E-012  0.5052887E+02  0.7816164E-02  0.1300439E+00
        -11   -1    0    0    0    0  0.00000000000E+00  0.00000000000E+00  0.45593999997E+02  0.45594000000E+02  0.51100000000E-03 0. -1.
         11   -1    0    0    0    0 -0.00000000000E+00 -0.00000000000E+00 -0.45593999997E+02  0.45594000000E+02  0.51100000000E-03 0.  1.
    9900012    2    1    2    0    0  0.20764029403E+02  0.14456091768E+02  0.31828310979E+02  0.50528869586E+02  0.30000029593E+02 0.  0.
        -12    1    1    2    0    0 -0.20764029403E+02 -0.14456091768E+02 -0.31828310979E+02  0.40659130414E+02  0.00000000000E+00 0.  1.
         11    1    3    3    0    0  0.42441194223E+01  0.88910018631E+01  0.15281538537E+02  0.18182075902E+02  0.51100000000E-03 0. -1.
        -11    1    3    3    0    0  0.78758219331E+01  0.99272764897E+01  0.18544366168E+02  0.22460474315E+02  0.51100000000E-03 0.  1.
        -12    1    3    3    0    0  0.86440880475E+01 -0.43621865852E+01 -0.19975937251E+01  0.98863193691E+01  0.00000000000E+00 0.  1.
</event>
<event>
 7    1  0.5843820E-012  0.5052882E+02  0.7816164E-02  0.1300439E+00
        -11   -1    0    0    0    0  0.00000000000E+00  0.00000000000E+00  0.45593999997E+02  0.45594000000E+02  0.51100000000E-03 0. -1.
         11   -1    0    0    0    0 -0.00000000000E+00 -0.00000000000E+00 -0.45593999997E+02  0.45594000000E+02  0.51100000000E-03 0.  1.
    9900012    2    1    2    0    0 -0.62373223789E+01  0.31045065905E+02  0.25504285451E+02  0.50528820423E+02  0.29999880157E+02 0.  0.
        -12    1    1    2    0    0  0.62373223789E+01 -0.31045065905E+02 -0.25504285451E+02  0.40659179577E+02  0.00000000000E+00 0.  1.
         11    1    3    3    0    0  0.23046920163E+00 -0.14849359991E+01  0.72156667523E+01  0.73704815254E+01  0.51100000000E-03 0. -1.
        -11    1    3    3    0    0 -0.85782299750E+01  0.24930446305E+01  0.33013126200E+01  0.95236529919E+01  0.51100000000E-03 0.  1.
        -12    1    3    3    0    0  0.21104383945E+01  0.30036957274E+02  0.14987306079E+02  0.33634685906E+02  0.00000000000E+00 0.  1.
</event>
<event>
 7    1  0.5843820E-012  0.5052886E+02  0.7816164E-02  0.1300439E+00
        -11   -1    0    0    0    0  0.00000000000E+00  0.00000000000E+00  0.45593999997E+02  0.45594000000E+02  0.51100000000E-03 0. -1.
         11   -1    0    0    0    0 -0.00000000000E+00 -0.00000000000E+00 -0.45593999997E+02  0.45594000000E+02  0.51100000000E-03 0.  1.
    9900012    2    1    2    0    0 -0.77051448944E+01 -0.71495657159E+01  0.39276962670E+02  0.50528863950E+02  0.30000012462E+02 0.  0.
        -12    1    1    2    0    0  0.77051448944E+01  0.71495657159E+01 -0.39276962670E+02  0.40659136050E+02  0.00000000000E+00 0.  1.
         11    1    3    3    0    0 -0.10249900535E+02 -0.60650873745E+01  0.28689862687E+02  0.31063708199E+02  0.51100000000E-03 0. -1.
        -11    1    3    3    0    0 -0.37386937272E+01 -0.47782967446E+01  0.10557137373E+02  0.12176333616E+02  0.51100000000E-03 0.  1.
        -12    1    3    3    0    0  0.62834493674E+01  0.36938184032E+01  0.29962610353E-01  0.72888221343E+01  0.00000000000E+00 0.  1.
</event>
<event>
 7    1  0.5843820E-012  0.5052887E+02  0.7816164E-02  0.1300439E+00
        -11   -1    0    0    0    0  0.00000000000E+00  0.00000000000E+00  0.45593999997E+02  0.45594000000E+02  0.51100000000E-03 0. -1.
         11   -1    0    0    0    0 -0.00000000000E+00 -0.00000000000E+00 -0.45593999997E+02  0.45594000000E+02  0.51100000000E-03 0.  1.
    9900012    2    1    2    0    0 -0.18528303501E+02 -0.25415611373E+02 -0.25766524017E+02  0.50528867053E+02  0.30000021894E+02 0.  0.
         12    1    1    2    0    0  0.18528303501E+02  0.25415611373E+02  0.25766524017E+02  0.40659132947E+02  0.00000000000E+00 0. -1.
         11    1    3    3    0    0 -0.93080760647E+01 -0.11428795592E+02 -0.21760426578E+02  0.26282576240E+02  0.51100000000E-03 0. -1.
        -11    1    3    3    0    0 -0.32600228688E+01 -0.16278598191E+02 -0.58457475910E+01  0.17600945240E+02  0.51100000000E-03 0.  1.
         12    1    3    3    0    0 -0.59602045676E+01  0.22917824095E+01  0.18396501527E+01  0.66453455730E+01  0.00000000000E+00 0. -1.
</event>
<event>
 7    1  0.5843820E-012  0.5052886E+02  0.7816164E-02  0.1300439E+00
        -11   -1    0    0    0    0  0.00000000000E+00  0.00000000000E+00  0.45593999997E+02  0.45594000000E+02  0.51100000000E-03 0. -1.
         11   -1    0    0    0    0 -0.00000000000E+00 -0.00000000000E+00 -0.45593999997E+02  0.45594000000E+02  0.51100000000E-03 0.  1.
    9900012    2    1    2    0    0 -0.14139503253E+02  0.17132140527E+02 -0.34054812758E+02  0.50528855109E+02  0.29999985588E+02 0.  0.
         12    1    1    2    0    0  0.14139503253E+02 -0.17132140527E+02  0.34054812758E+02  0.40659144891E+02  0.00000000000E+00 0. -1.
         11    1    3    3    0    0 -0.13022418369E+02  0.90881416408E+01 -0.36627363454E+01  0.16297034591E+02  0.51100000000E-03 0. -1.
        -11    1    3    3    0    0 -0.51160111379E+01  0.60556766752E+01 -0.75165791005E+01  0.10924456581E+02  0.51100000000E-03 0.  1.
         12    1    3    3    0    0  0.39989262536E+01  0.19883222112E+01 -0.22875497313E+02  0.23307363937E+02  0.00000000000E+00 0. -1.
</event>
<event>
 7    1  0.5843820E-012  0.5052887E+02  0.7816164E-02  0.1300439E+00
        -11   -1    0    0    0    0  0.00000000000E+00  0.00000000000E+00  0.45593999997E+02  0.45594000000E+02  0.51100000000E-03 0. -1.
         11   -1    0    0    0    0 -0.00000000000E+00 -0.00000000000E+00 -0.45593999997E+02  0.45594000000E+02  0.51100000000E-03 0.  1.
    9900012    2    1    2    0    0 -0.31628654070E+02 -0.20022858766E+01  0.25471244811E+02  0.50528865488E+02  0.30000017137E+02 0.  0.
        -12    1    1    2    0    0  0.31628654070E+02  0.20022858766E+01 -0.25471244811E+02  0.40659134512E+02  0.00000000000E+00 0.  1.
         11    1    3    3    0    0 -0.51684057637E+01  0.63191825158E+01  0.13445153851E+02  0.15729483404E+02  0.51100000000E-03 0. -1.
        -11    1    3    3    0    0  0.18259917431E+01 -0.80770537151E+00 -0.15587553274E+01  0.25330519625E+01  0.51100000000E-03 0.  1.
         12    1    3    3    0    0 -0.28286240050E+02 -0.75137630209E+01  0.13584846288E+02  0.32266330122E+02  0.00000000000E+00 0. -1.
</event>
<event>
 7    1  0.5843820E-012  0.5052885E+02  0.7816164E-02  0.1300439E+00
        -11   -1    0    0    0    0  0.00000000000E+00  0.00000000000E+00  0.45593999997E+02  0.45594000000E+02  0.51100000000E-03 0. -1.
         11   -1    0    0    0    0 -0.00000000000E+00 -0.00000000000E+00 -0.45593999997E+02  0.45594000000E+02  0.51100000000E-03 0.  1.
    9900012    2    1    2    0    0  0.73912279155E+01  0.19624430305E+02 -0.34834148562E+02  0.50528850710E+02  0.29999972219E+02 0.  0.
         12    1    1    2    0    0 -0.73912279155E+01 -0.19624430305E+02  0.34834148562E+02  0.40659149290E+02  0.00000000000E+00 0. -1.
         11    1    3    3    0    0 -0.46077848868E+01  0.20759303642E+02 -0.29627551041E+02  0.36468783229E+02  0.51100000000E-03 0. -1.
        -11    1    3    3    0    0  0.10288634130E+01 -0.13407249432E+00 -0.25145279218E+01  0.27201812967E+01  0.51100000000E-03 0.  1.
         12    1    3    3    0    0  0.10970149389E+02 -0.10008008425E+01 -0.26920695995E+01  0.11339886185E+02  0.00000000000E+00 0. -1.
</event>
<event>
 7    1  0.5843820E-012  0.5052886E+02  0.7816164E-02  0.1300439E+00
        -11   -1    0    0    0    0  0.00000000000E+00  0.00000000000E+00  0.45593999997E+02  0.45594000000E+02  0.51100000000E-03 0. -1.
         11   -1    0    0    0    0 -0.00000000000E+00 -0.00000000000E+00 -0.45593999997E+02  0.45594000000E+02  0.51100000000E-03 0.  1.
    9900012    2    1    2    0    0 -0.29399826337E+02 -0.97911609338E+00  0.28068795717E+02  0.50528858962E+02  0.29999997300E+02 0.  0.
        -12    1    1    2    0    0  0.29399826337E+02  0.97911609338E+00 -0.28068795717E+02  0.40659141038E+02  0.00000000000E+00 0.  1.
         11    1    3    3    0    0 -0.11031655032E+02 -0.24143588788E+01  0.19877972817E+02  0.22861766010E+02  0.51100000000E-03 0. -1.
        -11    1    3    3    0    0 -0.89699319824E+01 -0.62837459818E+01  0.10630729539E+02  0.15262947098E+02  0.51100000000E-03 0.  1.
         12    1    3    3    0    0 -0.93982393219E+01  0.77189887673E+01 -0.24399066386E+01  0.12404145853E+02  0.00000000000E+00 0. -1.
</event>
<event>
 7    1  0.5843820E-012  0.5052887E+02  0.7816164E-02  0.1300439E+00
        -11   -1    0    0    0    0  0.00000000000E+00  0.00000000000E+00  0.45593999997E+02  0.45594000000E+02  0.51100000000E-03 0. -1.
         11   -1    0    0    0    0 -0.00000000000E+00 -0.00000000000E+00 -0.45593999997E+02  0.45594000000E+02  0.51100000000E-03 0.  1.
    9900012    2    1    2    0    0 -0.83236026304E+01 -0.15827257525E+02  0.36515486577E+02  0.50528865707E+02  0.30000017804E+02 0.  0.
        -12    1    1    2    0    0  0.83236026304E+01  0.15827257525E+02 -0.36515486577E+02  0.40659134293E+02  0.00000000000E+00 0.  1.
         11    1    3    3    0    0 -0.48021256298E+00 -0.78866253561E+01  0.18985718216E+01  0.81261330801E+01  0.51100000000E-03 0. -1.
        -11    1    3    3    0    0 -0.46832133865E+01 -0.14397215536E+01 -0.18418874897E+01  0.52342941799E+01  0.51100000000E-03 0.  1.
        -12    1    3    3    0    0 -0.31601766809E+01 -0.65009106155E+01  0.36458802245E+02  0.37168438447E+02  0.00000000000E+00 0.  1.
</event>
<event>
 7    1  0.5843820E-012  0.5052885E+02  0.7816164E-02  0.1300439E+00
        -11   -1    0    0    0    0  0.00000000000E+00  0.00000000000E+00  0.45593999997E+02  0.45594000000E+02  0.51100000000E-03 0. -1.
         11   -1    0    0    0    0 -0.00000000000E+00 -0.00000000000E+00 -0.45593999997E+02  0.45594000000E+02  0.51100000000E-03 0.  1.
    9900012    2    1    2    0    0 -0.17264229003E+02  0.43746249864E+01 -0.36550994417E+02  0.50528854169E+02  0.29999982732E+02 0.  0.
         12    1    1    2    0    0  0.17264229003E+02 -0.43746249864E+01  0.36550994417E+02  0.40659145831E+02  0.00000000000E+00 0. -1.
         11    1    3    3    0    0 -0.36704770918E+01 -0.54920429051E+01 -0.11563185356E+01  0.67061173692E+01  0.51100000000E-03 0. -1.
        -11    1    3    3    0    0 -0.52983795117E+01 -0.42826267828E+01 -0.20731399722E+02  0.21822113837E+02  0.51100000000E-03 0.  1.
        -12    1    3    3    0    0 -0.82953723993E+01  0.14149294674E+02 -0.14663276160E+02  0.22000622963E+02  0.00000000000E+00 0.  1.
</event>
<event>
 7    1  0.5843820E-012  0.5052885E+02  0.7816164E-02  0.1300439E+00
        -11   -1    0    0    0    0  0.00000000000E+00  0.00000000000E+00  0.45593999997E+02  0.45594000000E+02  0.51100000000E-03 0. -1.
         11   -1    0    0    0    0 -0.00000000000E+00 -0.00000000000E+00 -0.45593999997E+02  0.45594000000E+02  0.51100000000E-03 0.  1.
    9900012    2    1    2    0    0  0.16899790567E+02  0.16429297706E+02 -0.33130680216E+02  0.50528847084E+02  0.29999961195E+02 0.  0.
         12    1    1    2    0    0 -0.16899790567E+02 -0.16429297706E+02  0.33130680216E+02  0.40659152916E+02  0.00000000000E+00 0. -1.
         11    1    3    3    0    0  0.11421750048E+01  0.14091245392E+02 -0.14895247070E+02  0.20536215474E+02  0.51100000000E-03 0.  1.
        -11    1    3    3    0    0 -0.23443384081E+01  0.24488915549E+01 -0.91099534694E+01  0.97203006587E+01  0.51100000000E-03 0. -1.
        -12    1    3    3    0    0  0.18101953970E+02 -0.11083924125E+00 -0.91254796768E+01  0.20272330951E+02  0.00000000000E+00 0.  1.
</event>
<event>
 7    1  0.5843820E-012  0.5052886E+02  0.7816164E-02  0.1300439E+00
        -11   -1    0    0    0    0  0.00000000000E+00  0.00000000000E+00  0.45593999997E+02  0.45594000000E+02  0.51100000000E-03 0. -1.
         11   -1    0    0    0    0 -0.00000000000E+00 -0.00000000000E+00 -0.45593999997E+02  0.45594000000E+02  0.51100000000E-03 0.  1.
    9900012    2    1    2    0    0 -0.98449984711E+00 -0.16540842654E+02  0.37129466969E+02  0.50528855480E+02  0.29999986718E+02 0.  0.
        -12    1    1    2    0    0  0.98449984711E+00  0.16540842654E+02 -0.37129466969E+02  0.40659144520E+02  0.00000000000E+00 0.  1.
         11    1    3    3    0    0 -0.36102959627E+01 -0.42749383885E+01  0.15410015284E+02  0.16394447429E+02  0.51100000000E-03 0. -1.
        -11    1    3    3    0    0 -0.71931593856E+01  0.23428172307E+01  0.22605574321E+01  0.78955971711E+01  0.51100000000E-03 0.  1.
        -12    1    3    3    0    0  0.98189555012E+01 -0.14608721496E+02  0.19458894253E+02  0.26238810881E+02  0.00000000000E+00 0.  1.
</event>
<event>
 7    1  0.5843820E-012  0.5052886E+02  0.7816164E-02  0.1300439E+00
        -11   -1    0    0    0    0  0.00000000000E+00  0.00000000000E+00  0.45593999997E+02  0.45594000000E+02  0.51100000000E-03 0. -1.
         11   -1    0    0    0    0 -0.00000000000E+00 -0.00000000000E+00 -0.45593999997E+02  0.45594000000E+02  0.51100000000E-03 0.  1.
    9900012    2    1    2    0    0 -0.58464624689E+01 -0.23046966098E+02  0.32982149476E+02  0.50528856456E+02  0.29999989682E+02 0.  0.
        -12    1    1    2    0    0  0.58464624689E+01  0.23046966098E+02 -0.32982149476E+02  0.40659143544E+02  0.00000000000E+00 0.  1.
         11    1    3    3    0    0 -0.12940103026E+02 -0.61999688810E+01  0.14065585822E+02  0.20092948644E+02  0.51100000000E-03 0. -1.
        -11    1    3    3    0    0 -0.46437471295E+00 -0.16163175773E+02  0.11654587339E+02  0.19932217670E+02  0.51100000000E-03 0.  1.
        -12    1    3    3    0    0  0.75580152701E+01 -0.68382144468E+00  0.72619763150E+01  0.10503690142E+02  0.00000000000E+00 0.  1.
</event>
<event>
 7    1  0.5843820E-012  0.5052886E+02  0.7816164E-02  0.1300439E+00
        -11   -1    0    0    0    0  0.00000000000E+00  0.00000000000E+00  0.45593999997E+02  0.45594000000E+02  0.51100000000E-03 0. -1.
         11   -1    0    0    0    0 -0.00000000000E+00 -0.00000000000E+00 -0.45593999997E+02  0.45594000000E+02  0.51100000000E-03 0.  1.
    9900012    2    1    2    0    0  0.14894028180E+02  0.14015380238E+01 -0.37807004607E+02  0.50528856113E+02  0.29999988641E+02 0.  0.
         12    1    1    2    0    0 -0.14894028180E+02 -0.14015380238E+01  0.37807004607E+02  0.40659143887E+02  0.00000000000E+00 0. -1.
         11    1    3    3    0    0  0.47461292380E+01 -0.83577000724E+01 -0.26030165503E+02  0.27747908203E+02  0.51100000000E-03 0. -1.
        -11    1    3    3    0    0 -0.20287525962E+01 -0.17787646861E+01 -0.12237174021E+01  0.29626551346E+01  0.51100000000E-03 0.  1.
        -12    1    3    3    0    0  0.12176651538E+02  0.11538002782E+02 -0.10553121702E+02  0.19818292776E+02  0.00000000000E+00 0.  1.
</event>
<event>
 7    1  0.5843820E-012  0.5052885E+02  0.7816164E-02  0.1300439E+00
        -11   -1    0    0    0    0  0.00000000000E+00  0.00000000000E+00  0.45593999997E+02  0.45594000000E+02  0.51100000000E-03 0. -1.
         11   -1    0    0    0    0 -0.00000000000E+00 -0.00000000000E+00 -0.45593999997E+02  0.45594000000E+02  0.51100000000E-03 0.  1.
    9900012    2    1    2    0    0 -0.69544965176E+01 -0.39718866154E+02  0.52166338061E+01  0.50528848280E+02  0.29999964831E+02 0.  0.
        -12    1    1    2    0    0  0.69544965176E+01  0.39718866154E+02 -0.52166338061E+01  0.40659151720E+02  0.00000000000E+00 0.  1.
         11    1    3    3    0    0  0.34883913601E+01 -0.67358539838E+01 -0.38639701143E+01  0.85129823492E+01  0.51100000000E-03 0. -1.
        -11    1    3    3    0    0 -0.60411874412E+01 -0.50053920473E+01 -0.60487010753E+01  0.99063959242E+01  0.51100000000E-03 0.  1.
         12    1    3    3    0    0 -0.44017004365E+01 -0.27977620122E+02  0.15129304996E+02  0.32109470006E+02  0.00000000000E+00 0. -1.
</event>
<event>
 7    1  0.5843820E-012  0.5052885E+02  0.7816164E-02  0.1300439E+00
        -11   -1    0    0    0    0  0.00000000000E+00  0.00000000000E+00  0.45593999997E+02  0.45594000000E+02  0.51100000000E-03 0.  1.
         11   -1    0    0    0    0 -0.00000000000E+00 -0.00000000000E+00 -0.45593999997E+02  0.45594000000E+02  0.51100000000E-03 0. -1.
    9900012    2    1    2    0    0 -0.56805219521E+01  0.19024417710E+02 -0.35481961238E+02  0.50528851311E+02  0.29999974045E+02 0.  0.
         12    1    1    2    0    0  0.56805219521E+01 -0.19024417710E+02  0.35481961238E+02  0.40659148689E+02  0.00000000000E+00 0. -1.
         11    1    3    3    0    0  0.12414669804E+01 -0.43328624324E+01 -0.22334790631E+01  0.50302451339E+01  0.51100000000E-03 0. -1.
        -11    1    3    3    0    0 -0.38274878177E+01 -0.17867831261E+01 -0.10996651654E+02  0.11780008693E+02  0.51100000000E-03 0.  1.
        -12    1    3    3    0    0 -0.30945011149E+01  0.25144063268E+02 -0.22251830520E+02  0.33718597484E+02  0.00000000000E+00 0.  1.
</event>
<event>
 7    1  0.5843820E-012  0.5052872E+02  0.7816164E-02  0.1300439E+00
        -11   -1    0    0    0    0  0.00000000000E+00  0.00000000000E+00  0.45593999997E+02  0.45594000000E+02  0.51100000000E-03 0. -1.
         11   -1    0    0    0    0 -0.00000000000E+00 -0.00000000000E+00 -0.45593999997E+02  0.45594000000E+02  0.51100000000E-03 0.  1.
    9900012    2    1    2    0    0 -0.95794098496E+00 -0.55943113420E+01  0.40261184587E+02  0.50528721174E+02  0.29999578478E+02 0.  0.
        -12    1    1    2    0    0  0.95794098496E+00  0.55943113420E+01 -0.40261184587E+02  0.40659278826E+02  0.00000000000E+00 0.  1.
         11    1    3    3    0    0 -0.33688214440E+01  0.38148227305E+01  0.44758977663E+01  0.67775726821E+01  0.51100000000E-03 0. -1.
        -11    1    3    3    0    0  0.30019986672E+01  0.22887870347E+01 -0.19436065520E+01  0.42459567565E+01  0.51100000000E-03 0.  1.
         12    1    3    3    0    0 -0.59111820819E+00 -0.11697921107E+02  0.37728893372E+02  0.39505191736E+02  0.00000000000E+00 0. -1.
</event>
<event>
 7    1  0.5843820E-012  0.5052886E+02  0.7816164E-02  0.1300439E+00
        -11   -1    0    0    0    0  0.00000000000E+00  0.00000000000E+00  0.45593999997E+02  0.45594000000E+02  0.51100000000E-03 0. -1.
         11   -1    0    0    0    0 -0.00000000000E+00 -0.00000000000E+00 -0.45593999997E+02  0.45594000000E+02  0.51100000000E-03 0.  1.
    9900012    2    1    2    0    0  0.15053567304E+02  0.12588113285E+02  0.35610327035E+02  0.50528857409E+02  0.29999992582E+02 0.  0.
        -12    1    1    2    0    0 -0.15053567304E+02 -0.12588113285E+02 -0.35610327035E+02  0.40659142591E+02  0.00000000000E+00 0.  1.
         11    1    3    3    0    0  0.86517405237E+01  0.13087246976E+02  0.11392123632E+02  0.19388376121E+02  0.51100000000E-03 0. -1.
        -11    1    3    3    0    0  0.23052783451E+01  0.28362983149E+01 -0.21552826713E+01  0.42431285668E+01  0.51100000000E-03 0.  1.
        -12    1    3    3    0    0  0.40965484354E+01 -0.33354320053E+01  0.26373486074E+02  0.26897352722E+02  0.00000000000E+00 0.  1.
</event>
<event>
 7    1  0.5843820E-012  0.5052887E+02  0.7816164E-02  0.1300439E+00
        -11   -1    0    0    0    0  0.00000000000E+00  0.00000000000E+00  0.45593999997E+02  0.45594000000E+02  0.51100000000E-03 0.  1.
         11   -1    0    0    0    0 -0.00000000000E+00 -0.00000000000E+00 -0.45593999997E+02  0.45594000000E+02  0.51100000000E-03 0. -1.
    9900012    2    1    2    0    0  0.29065245229E+02  0.27148323829E+02 -0.84466127270E+01  0.50528865313E+02  0.30000016605E+02 0.  0.
         12    1    1    2    0    0 -0.29065245229E+02 -0.27148323829E+02  0.84466127270E+01  0.40659134687E+02  0.00000000000E+00 0. -1.
         11    1    3    3    0    0  0.53137768550E+00 -0.27855225502E+01 -0.51963485613E+01  0.59197581669E+01  0.51100000000E-03 0. -1.
        -11    1    3    3    0    0  0.18979137317E+00  0.72264777480E+01 -0.40420545103E+01  0.82822826765E+01  0.51100000000E-03 0.  1.
        -12    1    3    3    0    0  0.28344076170E+02  0.22707368631E+02  0.79179034472E+00  0.36326824470E+02  0.00000000000E+00 0.  1.
</event>
<event>
 7    1  0.5843820E-012  0.5052887E+02  0.7816164E-02  0.1300439E+00
        -11   -1    0    0    0    0  0.00000000000E+00  0.00000000000E+00  0.45593999997E+02  0.45594000000E+02  0.51100000000E-03 0. -1.
         11   -1    0    0    0    0 -0.00000000000E+00 -0.00000000000E+00 -0.45593999997E+02  0.45594000000E+02  0.51100000000E-03 0.  1.
    9900012    2    1    2    0    0 -0.12415873569E+02  0.29411224914E+02 -0.25179178258E+02  0.50528867137E+02  0.30000022150E+02 0.  0.
         12    1    1    2    0    0  0.12415873569E+02 -0.29411224914E+02  0.25179178258E+02  0.40659132863E+02  0.00000000000E+00 0. -1.
         11    1    3    3    0    0  0.55206743169E+01  0.10675753171E+02  0.98019397407E+00  0.12058620616E+02  0.51100000000E-03 0. -1.
        -11    1    3    3    0    0 -0.54997190720E+01  0.10314967565E+02 -0.17760204592E+02  0.21261945658E+02  0.51100000000E-03 0.  1.
        -12    1    3    3    0    0 -0.12436828814E+02  0.84205041784E+01 -0.83991676396E+01  0.17208300863E+02  0.00000000000E+00 0.  1.
</event>
<event>
 7    1  0.5843820E-012  0.5052886E+02  0.7816164E-02  0.1300439E+00
        -11   -1    0    0    0    0  0.00000000000E+00  0.00000000000E+00  0.45593999997E+02  0.45594000000E+02  0.51100000000E-03 0. -1.
         11   -1    0    0    0    0 -0.00000000000E+00 -0.00000000000E+00 -0.45593999997E+02  0.45594000000E+02  0.51100000000E-03 0.  1.
    9900012    2    1    2    0    0  0.30137206613E+02  0.91732190406E+01  0.25705377925E+02  0.50528860507E+02  0.30000001998E+02 0.  0.
        -12    1    1    2    0    0 -0.30137206613E+02 -0.91732190406E+01 -0.25705377925E+02  0.40659139493E+02  0.00000000000E+00 0.  1.
         11    1    3    3    0    0  0.23699652915E+00 -0.29953746209E+01  0.19996481700E+01  0.36092976518E+01  0.51100000000E-03 0.  1.
        -11    1    3    3    0    0  0.32440816250E+01 -0.21947997483E+01  0.14869875942E+02  0.15377074569E+02  0.51100000000E-03 0. -1.
        -12    1    3    3    0    0  0.26656128459E+02  0.14363393410E+02  0.88358538133E+01  0.31542488286E+02  0.00000000000E+00 0.  1.
</event>
<event>
 7    1  0.5843820E-012  0.5052888E+02  0.7816164E-02  0.1300439E+00
        -11   -1    0    0    0    0  0.00000000000E+00  0.00000000000E+00  0.45593999997E+02  0.45594000000E+02  0.51100000000E-03 0. -1.
         11   -1    0    0    0    0 -0.00000000000E+00 -0.00000000000E+00 -0.45593999997E+02  0.45594000000E+02  0.51100000000E-03 0.  1.
    9900012    2    1    2    0    0 -0.29678078867E+02  0.25030555397E+02 -0.12076706674E+02  0.50528881553E+02  0.30000065970E+02 0.  0.
         12    1    1    2    0    0  0.29678078867E+02 -0.25030555397E+02  0.12076706674E+02  0.40659118447E+02  0.00000000000E+00 0. -1.
         11    1    3    3    0    0 -0.29023019700E+01  0.33526352829E+01  0.29024975745E+01  0.52998124964E+01  0.51100000000E-03 0. -1.
        -11    1    3    3    0    0 -0.94346976585E+01  0.23293394682E+02 -0.71123809074E+01  0.26118608656E+02  0.51100000000E-03 0.  1.
        -12    1    3    3    0    0 -0.17341079239E+02 -0.16154745673E+01 -0.78668233414E+01  0.19110460401E+02  0.00000000000E+00 0.  1.
</event>
<event>
 7    1  0.5843820E-012  0.5052886E+02  0.7816164E-02  0.1300439E+00
        -11   -1    0    0    0    0  0.00000000000E+00  0.00000000000E+00  0.45593999997E+02  0.45594000000E+02  0.51100000000E-03 0. -1.
         11   -1    0    0    0    0 -0.00000000000E+00 -0.00000000000E+00 -0.45593999997E+02  0.45594000000E+02  0.51100000000E-03 0.  1.
    9900012    2    1    2    0    0  0.15808655074E+02  0.99176217258E+01 -0.36123302223E+02  0.50528858845E+02  0.29999996946E+02 0.  0.
         12    1    1    2    0    0 -0.15808655074E+02 -0.99176217258E+01  0.36123302223E+02  0.40659141155E+02  0.00000000000E+00 0. -1.
         11    1    3    3    0    0  0.42493720695E+01  0.12123099981E+02 -0.12013736082E+02  0.17588535216E+02  0.51100000000E-03 0. -1.
        -11    1    3    3    0    0  0.35301506251E+01 -0.83481772483E-02 -0.24357817678E+02  0.24612300084E+02  0.51100000000E-03 0.  1.
        -12    1    3    3    0    0  0.80291323798E+01 -0.21971300779E+01  0.24825153686E+00  0.83280235456E+01  0.00000000000E+00 0.  1.
</event>
<event>
 7    1  0.5843820E-012  0.5052885E+02  0.7816164E-02  0.1300439E+00
        -11   -1    0    0    0    0  0.00000000000E+00  0.00000000000E+00  0.45593999997E+02  0.45594000000E+02  0.51100000000E-03 0. -1.
         11   -1    0    0    0    0 -0.00000000000E+00 -0.00000000000E+00 -0.45593999997E+02  0.45594000000E+02  0.51100000000E-03 0.  1.
    9900012    2    1    2    0    0  0.71499868814E+01  0.27710037285E+01 -0.39929507264E+02  0.50528851898E+02  0.29999975829E+02 0.  0.
         12    1    1    2    0    0 -0.71499868814E+01 -0.27710037285E+01  0.39929507264E+02  0.40659148102E+02  0.00000000000E+00 0. -1.
         11    1    3    3    0    0  0.45964700688E+01  0.98282458428E+01 -0.10469281704E+02  0.15077394108E+02  0.51100000000E-03 0. -1.
        -11    1    3    3    0    0  0.45565603634E+01  0.37055790043E+01 -0.20438116506E+02  0.21265233709E+02  0.51100000000E-03 0.  1.
        -12    1    3    3    0    0 -0.20030435509E+01 -0.10762821119E+02 -0.90221090533E+01  0.14186224081E+02  0.00000000000E+00 0.  1.
</event>
<event>
 7    1  0.5843820E-012  0.5052886E+02  0.7816164E-02  0.1300439E+00
        -11   -1    0    0    0    0  0.00000000000E+00  0.00000000000E+00  0.45593999997E+02  0.45594000000E+02  0.51100000000E-03 0. -1.
         11   -1    0    0    0    0 -0.00000000000E+00 -0.00000000000E+00 -0.45593999997E+02  0.45594000000E+02  0.51100000000E-03 0.  1.
    9900012    2    1    2    0    0 -0.11018632525E+02 -0.36394305244E+02  0.14394789563E+02  0.50528859779E+02  0.29999999786E+02 0.  0.
        -12    1    1    2    0    0  0.11018632525E+02  0.36394305244E+02 -0.14394789563E+02  0.40659140221E+02  0.00000000000E+00 0.  1.
         11    1    3    3    0    0 -0.82147228899E+01 -0.51660404667E+01  0.90430215414E+01  0.13264459473E+02  0.51100000000E-03 0. -1.
        -11    1    3    3    0    0  0.78420162947E+01 -0.86254445420E+01  0.36782583413E+01  0.12223955898E+02  0.51100000000E-03 0.  1.
        -12    1    3    3    0    0 -0.10645925930E+02 -0.22602820235E+02  0.16735096803E+01  0.25040444408E+02  0.00000000000E+00 0.  1.
</event>
<event>
 7    1  0.5843820E-012  0.5052886E+02  0.7816164E-02  0.1300439E+00
        -11   -1    0    0    0    0  0.00000000000E+00  0.00000000000E+00  0.45593999997E+02  0.45594000000E+02  0.51100000000E-03 0. -1.
         11   -1    0    0    0    0 -0.00000000000E+00 -0.00000000000E+00 -0.45593999997E+02  0.45594000000E+02  0.51100000000E-03 0.  1.
    9900012    2    1    2    0    0  0.25933737565E+02  0.10680296190E+02 -0.29437025278E+02  0.50528856772E+02  0.29999990644E+02 0.  0.
         12    1    1    2    0    0 -0.25933737565E+02 -0.10680296190E+02  0.29437025278E+02  0.40659143228E+02  0.00000000000E+00 0. -1.
         11    1    3    3    0    0  0.18874415281E+02  0.75279135929E+01 -0.27758689822E+01  0.20508985449E+02  0.51100000000E-03 0.  1.
        -11    1    3    3    0    0  0.16589703972E+01  0.12376317968E+00  0.81657698438E+00  0.18531859960E+01  0.51100000000E-03 0. -1.
        -12    1    3    3    0    0  0.54003518870E+01  0.30286194176E+01 -0.27477733281E+02  0.28166685327E+02  0.00000000000E+00 0.  1.
</event>
<event>
 7    1  0.5843820E-012  0.5052886E+02  0.7816164E-02  0.1300439E+00
        -11   -1    0    0    0    0  0.00000000000E+00  0.00000000000E+00  0.45593999997E+02  0.45594000000E+02  0.51100000000E-03 0.  1.
         11   -1    0    0    0    0 -0.00000000000E+00 -0.00000000000E+00 -0.45593999997E+02  0.45594000000E+02  0.51100000000E-03 0. -1.
    9900012    2    1    2    0    0  0.22978362399E+02 -0.27423851673E+02 -0.19315620875E+02  0.50528856023E+02  0.29999988369E+02 0.  0.
         12    1    1    2    0    0 -0.22978362399E+02  0.27423851673E+02  0.19315620875E+02  0.40659143977E+02  0.00000000000E+00 0. -1.
         11    1    3    3    0    0 -0.13959224680E+00  0.11249403537E+01  0.21175224661E+00  0.11531765128E+01  0.51100000000E-03 0. -1.
        -11    1    3    3    0    0  0.18753350404E+02 -0.46382488283E+01 -0.15436323223E+02  0.24728153560E+02  0.51100000000E-03 0.  1.
         12    1    3    3    0    0  0.43646042417E+01 -0.23910543199E+02 -0.40910498987E+01  0.24647525951E+02  0.00000000000E+00 0. -1.
</event>
<event>
 7    1  0.5843820E-012  0.5052881E+02  0.7816164E-02  0.1300439E+00
        -11   -1    0    0    0    0  0.00000000000E+00  0.00000000000E+00  0.45593999997E+02  0.45594000000E+02  0.51100000000E-03 0. -1.
         11   -1    0    0    0    0 -0.00000000000E+00 -0.00000000000E+00 -0.45593999997E+02  0.45594000000E+02  0.51100000000E-03 0.  1.
    9900012    2    1    2    0    0  0.15770631714E+01 -0.29916446696E+02  0.27489791947E+02  0.50528811955E+02  0.29999854418E+02 0.  0.
        -12    1    1    2    0    0 -0.15770631714E+01  0.29916446696E+02 -0.27489791947E+02  0.40659188045E+02  0.00000000000E+00 0.  1.
         11    1    3    3    0    0  0.39919806202E+01 -0.53258356457E+00  0.56887802299E+01  0.69700627896E+01  0.51100000000E-03 0. -1.
        -11    1    3    3    0    0  0.50563968004E+01 -0.27652017449E+02  0.10725758048E+02  0.30087258160E+02  0.51100000000E-03 0.  1.
         12    1    3    3    0    0 -0.74713142493E+01 -0.17318456826E+01  0.11075253670E+02  0.13471491006E+02  0.00000000000E+00 0. -1.
</event>
<event>
 7    1  0.5843820E-012  0.5052883E+02  0.7816164E-02  0.1300439E+00
        -11   -1    0    0    0    0  0.00000000000E+00  0.00000000000E+00  0.45593999997E+02  0.45594000000E+02  0.51100000000E-03 0. -1.
         11   -1    0    0    0    0 -0.00000000000E+00 -0.00000000000E+00 -0.45593999997E+02  0.45594000000E+02  0.51100000000E-03 0.  1.
    9900012    2    1    2    0    0 -0.23790988589E+02 -0.73154467183E+01 -0.32150286993E+02  0.50528833106E+02  0.29999918710E+02 0.  0.
         12    1    1    2    0    0  0.23790988589E+02  0.73154467183E+01  0.32150286993E+02  0.40659166894E+02  0.00000000000E+00 0. -1.
         11    1    3    3    0    0  0.13828203400E+01 -0.57406579283E+01 -0.75104194295E+01  0.95537294190E+01  0.51100000000E-03 0. -1.
        -11    1    3    3    0    0 -0.53281633949E+01 -0.84850937843E+01 -0.14544810646E+02  0.17661756953E+02  0.51100000000E-03 0.  1.
        -12    1    3    3    0    0 -0.19845645534E+02  0.69103049943E+01 -0.10095056918E+02  0.23313346734E+02  0.00000000000E+00 0.  1.
</event>
<event>
 7    1  0.5843820E-012  0.5052887E+02  0.7816164E-02  0.1300439E+00
        -11   -1    0    0    0    0  0.00000000000E+00  0.00000000000E+00  0.45593999997E+02  0.45594000000E+02  0.51100000000E-03 0.  1.
         11   -1    0    0    0    0 -0.00000000000E+00 -0.00000000000E+00 -0.45593999997E+02  0.45594000000E+02  0.51100000000E-03 0. -1.
    9900012    2    1    2    0    0 -0.61947731508E+01  0.38897819680E+02  0.10087064617E+02  0.50528874790E+02  0.30000045412E+02 0.  0.
         12    1    1    2    0    0  0.61947731508E+01 -0.38897819680E+02 -0.10087064617E+02  0.40659125210E+02  0.00000000000E+00 0. -1.
         11    1    3    3    0    0 -0.58211053899E+01 -0.15603998767E+01  0.38809018163E+01  0.71680900458E+01  0.51100000000E-03 0. -1.
        -11    1    3    3    0    0  0.10190362582E+01  0.57330714399E+01  0.63389216981E+01  0.86074660375E+01  0.51100000000E-03 0.  1.
        -12    1    3    3    0    0 -0.13927040191E+01  0.34725148117E+02 -0.13275889765E+00  0.34753318707E+02  0.00000000000E+00 0.  1.
</event>
<event>
 7    1  0.5843820E-012  0.5052886E+02  0.7816164E-02  0.1300439E+00
        -11   -1    0    0    0    0  0.00000000000E+00  0.00000000000E+00  0.45593999997E+02  0.45594000000E+02  0.51100000000E-03 0. -1.
         11   -1    0    0    0    0 -0.00000000000E+00 -0.00000000000E+00 -0.45593999997E+02  0.45594000000E+02  0.51100000000E-03 0.  1.
    9900012    2    1    2    0    0  0.31412594662E+02  0.20462816508E+02 -0.15738097455E+02  0.50528859892E+02  0.30000000128E+02 0.  0.
         12    1    1    2    0    0 -0.31412594662E+02 -0.20462816508E+02  0.15738097455E+02  0.40659140108E+02  0.00000000000E+00 0. -1.
         11    1    3    3    0    0  0.13006043293E+02 -0.23152711822E+01 -0.69631103239E+01  0.14933269850E+02  0.51100000000E-03 0. -1.
        -11    1    3    3    0    0  0.80939158504E+01  0.66635204457E+01 -0.12278599317E+02  0.16145525076E+02  0.51100000000E-03 0.  1.
         12    1    3    3    0    0  0.10312635519E+02  0.16114567245E+02  0.35036121861E+01  0.19450064966E+02  0.00000000000E+00 0. -1.
</event>
<event>
 7    1  0.5843820E-012  0.5052886E+02  0.7816164E-02  0.1300439E+00
        -11   -1    0    0    0    0  0.00000000000E+00  0.00000000000E+00  0.45593999997E+02  0.45594000000E+02  0.51100000000E-03 0. -1.
         11   -1    0    0    0    0 -0.00000000000E+00 -0.00000000000E+00 -0.45593999997E+02  0.45594000000E+02  0.51100000000E-03 0.  1.
    9900012    2    1    2    0    0  0.93116048155E+01 -0.24212765457E+02  0.31308168373E+02  0.50528863238E+02  0.30000010300E+02 0.  0.
        -12    1    1    2    0    0 -0.93116048155E+01  0.24212765457E+02 -0.31308168373E+02  0.40659136762E+02  0.00000000000E+00 0.  1.
         11    1    3    3    0    0 -0.49539301951E+01 -0.64989751036E+01  0.13941682614E+02  0.16160093321E+02  0.51100000000E-03 0. -1.
        -11    1    3    3    0    0  0.66418374582E+00 -0.93160452680E+01 -0.16946166819E+01  0.94921844400E+01  0.51100000000E-03 0.  1.
        -12    1    3    3    0    0  0.13601351265E+02 -0.83977450852E+01  0.19061102441E+02  0.24876585477E+02  0.00000000000E+00 0.  1.
</event>
<event>
 7    1  0.5843820E-012  0.5052886E+02  0.7816164E-02  0.1300439E+00
        -11   -1    0    0    0    0  0.00000000000E+00  0.00000000000E+00  0.45593999997E+02  0.45594000000E+02  0.51100000000E-03 0. -1.
         11   -1    0    0    0    0 -0.00000000000E+00 -0.00000000000E+00 -0.45593999997E+02  0.45594000000E+02  0.51100000000E-03 0.  1.
    9900012    2    1    2    0    0  0.20086386221E+02 -0.31461880563E+02 -0.16119939645E+02  0.50528864567E+02  0.30000014338E+02 0.  0.
         12    1    1    2    0    0 -0.20086386221E+02  0.31461880563E+02  0.16119939645E+02  0.40659135433E+02  0.00000000000E+00 0. -1.
         11    1    3    3    0    0  0.37581461789E+01  0.10901962534E+01 -0.37116197502E+01  0.53933581380E+01  0.51100000000E-03 0. -1.
        -11    1    3    3    0    0 -0.35303735678E+01 -0.45651442651E+00 -0.58200572903E+01  0.68223903490E+01  0.51100000000E-03 0.  1.
        -12    1    3    3    0    0  0.19858613610E+02 -0.32095562390E+02 -0.65882626047E+01  0.38313116080E+02  0.00000000000E+00 0.  1.
</event>
<event>
 7    1  0.5843820E-012  0.5052887E+02  0.7816164E-02  0.1300439E+00
        -11   -1    0    0    0    0  0.00000000000E+00  0.00000000000E+00  0.45593999997E+02  0.45594000000E+02  0.51100000000E-03 0. -1.
         11   -1    0    0    0    0 -0.00000000000E+00 -0.00000000000E+00 -0.45593999997E+02  0.45594000000E+02  0.51100000000E-03 0.  1.
    9900012    2    1    2    0    0  0.28908373574E+02  0.16721667602E+01 -0.28542507091E+02  0.50528869224E+02  0.30000028494E+02 0.  0.
         12    1    1    2    0    0 -0.28908373574E+02 -0.16721667602E+01  0.28542507091E+02  0.40659130776E+02  0.00000000000E+00 0. -1.
         11    1    3    3    0    0  0.21217384780E+02  0.16415694776E+01 -0.25772973268E+02  0.33423319981E+02  0.51100000000E-03 0. -1.
        -11    1    3    3    0    0  0.10656567286E+02  0.21235629272E+01 -0.58536274719E+01  0.12342483570E+02  0.51100000000E-03 0.  1.
         12    1    3    3    0    0 -0.29655784916E+01 -0.20929656446E+01  0.30840936483E+01  0.47630656736E+01  0.00000000000E+00 0. -1.
</event>
<event>
 7    1  0.5843820E-012  0.5052886E+02  0.7816164E-02  0.1300439E+00
        -11   -1    0    0    0    0  0.00000000000E+00  0.00000000000E+00  0.45593999997E+02  0.45594000000E+02  0.51100000000E-03 0. -1.
         11   -1    0    0    0    0 -0.00000000000E+00 -0.00000000000E+00 -0.45593999997E+02  0.45594000000E+02  0.51100000000E-03 0.  1.
    9900012    2    1    2    0    0  0.18567173323E+02  0.14656705239E+02 -0.33069724712E+02  0.50528860483E+02  0.30000001925E+02 0.  0.
         12    1    1    2    0    0 -0.18567173323E+02 -0.14656705239E+02  0.33069724712E+02  0.40659139517E+02  0.00000000000E+00 0. -1.
         11    1    3    3    0    0 -0.22814823160E+01  0.16990795655E+01  0.22729646765E+01  0.36412088116E+01  0.51100000000E-03 0. -1.
        -11    1    3    3    0    0  0.14312270455E+02 -0.14215934450E+01 -0.12152906356E+02  0.18829634799E+02  0.51100000000E-03 0.  1.
        -12    1    3    3    0    0  0.65363851842E+01  0.14379219119E+02 -0.23189783033E+02  0.28058016873E+02  0.00000000000E+00 0.  1.
</event>
<event>
 7    1  0.5843820E-012  0.5052886E+02  0.7816164E-02  0.1300439E+00
        -11   -1    0    0    0    0  0.00000000000E+00  0.00000000000E+00  0.45593999997E+02  0.45594000000E+02  0.51100000000E-03 0. -1.
         11   -1    0    0    0    0 -0.00000000000E+00 -0.00000000000E+00 -0.45593999997E+02  0.45594000000E+02  0.51100000000E-03 0.  1.
    9900012    2    1    2    0    0 -0.31330192946E+01 -0.14881051800E+02  0.37708146872E+02  0.50528857693E+02  0.29999993445E+02 0.  0.
        -12    1    1    2    0    0  0.31330192946E+01  0.14881051800E+02 -0.37708146872E+02  0.40659142307E+02  0.00000000000E+00 0.  1.
         11    1    3    3    0    0  0.86112571367E+00 -0.71350902008E-01  0.90403146423E+01  0.90815151566E+01  0.51100000000E-03 0. -1.
        -11    1    3    3    0    0  0.10918217856E+01  0.71084690605E+01  0.93202353010E+01  0.11772391156E+02  0.51100000000E-03 0.  1.
        -12    1    3    3    0    0 -0.50859667939E+01 -0.21918169958E+02  0.19347596929E+02  0.29674951381E+02  0.00000000000E+00 0.  1.
</event>
<event>
 7    1  0.5843820E-012  0.5052891E+02  0.7816164E-02  0.1300439E+00
        -11   -1    0    0    0    0  0.00000000000E+00  0.00000000000E+00  0.45593999997E+02  0.45594000000E+02  0.51100000000E-03 0. -1.
         11   -1    0    0    0    0 -0.00000000000E+00 -0.00000000000E+00 -0.45593999997E+02  0.45594000000E+02  0.51100000000E-03 0.  1.
    9900012    2    1    2    0    0 -0.13674442825E+02 -0.26263029856E+01  0.38200446608E+02  0.50528905384E+02  0.30000138404E+02 0.  0.
        -12    1    1    2    0    0  0.13674442825E+02  0.26263029856E+01 -0.38200446608E+02  0.40659094616E+02  0.00000000000E+00 0.  1.
         11    1    3    3    0    0 -0.70105769815E+01  0.83756025633E+01  0.44011421389E+01  0.11775778543E+02  0.51100000000E-03 0. -1.
        -11    1    3    3    0    0  0.90888210520E+00 -0.13737646308E+01 -0.95450054043E+00  0.19037771626E+01  0.51100000000E-03 0.  1.
         12    1    3    3    0    0 -0.75727479483E+01 -0.96281409181E+01  0.34753805010E+02  0.36849349678E+02  0.00000000000E+00 0. -1.
</event>
<event>
 7    1  0.5843820E-012  0.5052888E+02  0.7816164E-02  0.1300439E+00
        -11   -1    0    0    0    0  0.00000000000E+00  0.00000000000E+00  0.45593999997E+02  0.45594000000E+02  0.51100000000E-03 0. -1.
         11   -1    0    0    0    0 -0.00000000000E+00 -0.00000000000E+00 -0.45593999997E+02  0.45594000000E+02  0.51100000000E-03 0.  1.
    9900012    2    1    2    0    0  0.36224509637E+02  0.33517120594E+01  0.18158058169E+02  0.50528878654E+02  0.30000057157E+02 0.  0.
        -12    1    1    2    0    0 -0.36224509637E+02 -0.33517120594E+01 -0.18158058169E+02  0.40659121346E+02  0.00000000000E+00 0.  1.
         11    1    3    3    0    0  0.27024929064E+01  0.20879515819E+00  0.46736142866E+01  0.54027524549E+01  0.51100000000E-03 0. -1.
        -11    1    3    3    0    0  0.23333176709E+02  0.13231969962E+02  0.14956637422E+02  0.30711938520E+02  0.51100000000E-03 0.  1.
        -12    1    3    3    0    0  0.10188840021E+02 -0.10089053060E+02 -0.14721935395E+01  0.14414187679E+02  0.00000000000E+00 0.  1.
</event>
<event>
 7    1  0.5843820E-012  0.5052886E+02  0.7816164E-02  0.1300439E+00
        -11   -1    0    0    0    0  0.00000000000E+00  0.00000000000E+00  0.45593999997E+02  0.45594000000E+02  0.51100000000E-03 0. -1.
         11   -1    0    0    0    0 -0.00000000000E+00 -0.00000000000E+00 -0.45593999997E+02  0.45594000000E+02  0.51100000000E-03 0.  1.
    9900012    2    1    2    0    0  0.19301320620E+02 -0.92957869579E+01  0.34557386080E+02  0.50528861230E+02  0.30000004195E+02 0.  0.
        -12    1    1    2    0    0 -0.19301320620E+02  0.92957869579E+01 -0.34557386080E+02  0.40659138770E+02  0.00000000000E+00 0.  1.
         11    1    3    3    0    0 -0.34680977121E+01 -0.25203527297E+01  0.49587575481E+01  0.65550862927E+01  0.51100000000E-03 0. -1.
        -11    1    3    3    0    0  0.84910105694E+01  0.20947707326E+00 -0.18893529152E+01  0.87011950807E+01  0.51100000000E-03 0.  1.
         12    1    3    3    0    0  0.14278407763E+02 -0.69849113015E+01  0.31487981447E+02  0.35272579857E+02  0.00000000000E+00 0. -1.
</event>
<event>
 7    1  0.5843820E-012  0.5052886E+02  0.7816164E-02  0.1300439E+00
        -11   -1    0    0    0    0  0.00000000000E+00  0.00000000000E+00  0.45593999997E+02  0.45594000000E+02  0.51100000000E-03 0. -1.
         11   -1    0    0    0    0 -0.00000000000E+00 -0.00000000000E+00 -0.45593999997E+02  0.45594000000E+02  0.51100000000E-03 0.  1.
    9900012    2    1    2    0    0  0.16942709154E+02 -0.54369285439E+01 -0.36558859743E+02  0.50528858209E+02  0.29999995013E+02 0.  0.
         12    1    1    2    0    0 -0.16942709154E+02  0.54369285439E+01  0.36558859743E+02  0.40659141791E+02  0.00000000000E+00 0. -1.
         11    1    3    3    0    0 -0.31938540310E+00  0.40626738177E+00  0.23166058170E+01  0.23735465013E+01  0.51100000000E-03 0. -1.
        -11    1    3    3    0    0 -0.25213425503E+01 -0.77602238613E+01 -0.79417268847E+01  0.11386363283E+02  0.51100000000E-03 0.  1.
         12    1    3    3    0    0  0.19783437108E+02  0.19170279356E+01 -0.30933738675E+02  0.36768948425E+02  0.00000000000E+00 0. -1.
</event>
<event>
 7    1  0.5843820E-012  0.5052871E+02  0.7816164E-02  0.1300439E+00
        -11   -1    0    0    0    0  0.00000000000E+00  0.00000000000E+00  0.45593999997E+02  0.45594000000E+02  0.51100000000E-03 0.  1.
         11   -1    0    0    0    0 -0.00000000000E+00 -0.00000000000E+00 -0.45593999997E+02  0.45594000000E+02  0.51100000000E-03 0. -1.
    9900012    2    1    2    0    0 -0.35925460087E+02 -0.68625172308E+01  0.17760763516E+02  0.50528713904E+02  0.29999556379E+02 0.  0.
        -12    1    1    2    0    0  0.35925460087E+02  0.68625172308E+01 -0.17760763516E+02  0.40659286096E+02  0.00000000000E+00 0.  1.
         11    1    3    3    0    0 -0.71226205128E+01 -0.61686708691E+01 -0.26853916866E+01  0.97977319841E+01  0.51100000000E-03 0. -1.
        -11    1    3    3    0    0 -0.11973039388E+02 -0.10002261976E+02  0.61612579390E+01  0.16773789569E+02  0.51100000000E-03 0.  1.
        -12    1    3    3    0    0 -0.16829800185E+02  0.93084156145E+01  0.14284897263E+02  0.23957192351E+02  0.00000000000E+00 0.  1.
</event>
<event>
 7    1  0.5843820E-012  0.5052886E+02  0.7816164E-02  0.1300439E+00
        -11   -1    0    0    0    0  0.00000000000E+00  0.00000000000E+00  0.45593999997E+02  0.45594000000E+02  0.51100000000E-03 0. -1.
         11   -1    0    0    0    0 -0.00000000000E+00 -0.00000000000E+00 -0.45593999997E+02  0.45594000000E+02  0.51100000000E-03 0.  1.
    9900012    2    1    2    0    0  0.15450858773E+01 -0.16056640953E+02  0.37322412402E+02  0.50528862324E+02  0.30000007519E+02 0.  0.
        -12    1    1    2    0    0 -0.15450858773E+01  0.16056640953E+02 -0.37322412402E+02  0.40659137676E+02  0.00000000000E+00 0.  1.
         11    1    3    3    0    0 -0.51350657839E+01 -0.85209360694E+01  0.15360667467E+02  0.18300966024E+02  0.51100000000E-03 0. -1.
        -11    1    3    3    0    0  0.78859105434E+00 -0.78001843255E+01 -0.15466439220E+01  0.79910486825E+01  0.51100000000E-03 0.  1.
         12    1    3    3    0    0  0.58915606068E+01  0.26447944219E+00  0.23508388857E+02  0.24236847617E+02  0.00000000000E+00 0. -1.
</event>
<event>
 7    1  0.5843820E-012  0.5052887E+02  0.7816164E-02  0.1300439E+00
        -11   -1    0    0    0    0  0.00000000000E+00  0.00000000000E+00  0.45593999997E+02  0.45594000000E+02  0.51100000000E-03 0. -1.
         11   -1    0    0    0    0 -0.00000000000E+00 -0.00000000000E+00 -0.45593999997E+02  0.45594000000E+02  0.51100000000E-03 0.  1.
    9900012    2    1    2    0    0 -0.65574755094E+00 -0.14561207318E+02  0.37956631576E+02  0.50528872562E+02  0.30000038639E+02 0.  0.
        -12    1    1    2    0    0  0.65574755094E+00  0.14561207318E+02 -0.37956631576E+02  0.40659127438E+02  0.00000000000E+00 0.  1.
         11    1    3    3    0    0 -0.63409241751E+01 -0.44003167325E+01  0.22710353573E+02  0.23986043159E+02  0.51100000000E-03 0. -1.
        -11    1    3    3    0    0 -0.11795633151E+01  0.38827144365E+01 -0.80572605531E+00  0.41371530969E+01  0.51100000000E-03 0.  1.
         12    1    3    3    0    0  0.68647399393E+01 -0.14043605022E+02  0.16052004059E+02  0.22405676306E+02  0.00000000000E+00 0. -1.
</event>
<event>
 7    1  0.5843820E-012  0.5052887E+02  0.7816164E-02  0.1300439E+00
        -11   -1    0    0    0    0  0.00000000000E+00  0.00000000000E+00  0.45593999997E+02  0.45594000000E+02  0.51100000000E-03 0. -1.
         11   -1    0    0    0    0 -0.00000000000E+00 -0.00000000000E+00 -0.45593999997E+02  0.45594000000E+02  0.51100000000E-03 0.  1.
    9900012    2    1    2    0    0  0.10097407524E+02 -0.20635050873E+02 -0.33547006374E+02  0.50528873104E+02  0.30000040288E+02 0.  0.
         12    1    1    2    0    0 -0.10097407524E+02  0.20635050873E+02  0.33547006374E+02  0.40659126896E+02  0.00000000000E+00 0. -1.
         11    1    3    3    0    0  0.46879848231E+00  0.51067547820E+01 -0.16854362081E+02  0.17617271010E+02  0.51100000000E-03 0. -1.
        -11    1    3    3    0    0 -0.13056359418E+00 -0.88151536327E+01 -0.55886630541E+01  0.10438253466E+02  0.51100000000E-03 0.  1.
        -12    1    3    3    0    0  0.97591726361E+01 -0.16926652023E+02 -0.11103981239E+02  0.22473348629E+02  0.00000000000E+00 0.  1.
</event>
<event>
 7    1  0.5843820E-012  0.5052886E+02  0.7816164E-02  0.1300439E+00
        -11   -1    0    0    0    0  0.00000000000E+00  0.00000000000E+00  0.45593999997E+02  0.45594000000E+02  0.51100000000E-03 0. -1.
         11   -1    0    0    0    0 -0.00000000000E+00 -0.00000000000E+00 -0.45593999997E+02  0.45594000000E+02  0.51100000000E-03 0.  1.
    9900012    2    1    2    0    0 -0.31160150840E+02  0.17332870234E+02 -0.19539248099E+02  0.50528860717E+02  0.30000002637E+02 0.  0.
         12    1    1    2    0    0  0.31160150840E+02 -0.17332870234E+02  0.19539248099E+02  0.40659139283E+02  0.00000000000E+00 0. -1.
         11    1    3    3    0    0 -0.21244945768E+01 -0.35344553100E+01 -0.64999674996E+01  0.76977548222E+01  0.51100000000E-03 0.  1.
        -11    1    3    3    0    0 -0.60042252523E+01  0.43541345599E+01 -0.12442376284E+02  0.14485231669E+02  0.51100000000E-03 0. -1.
         12    1    3    3    0    0 -0.23031431011E+02  0.16513190984E+02 -0.59690431549E+00  0.28345874226E+02  0.00000000000E+00 0. -1.
</event>
<event>
 7    1  0.5843820E-012  0.5052886E+02  0.7816164E-02  0.1300439E+00
        -11   -1    0    0    0    0  0.00000000000E+00  0.00000000000E+00  0.45593999997E+02  0.45594000000E+02  0.51100000000E-03 0. -1.
         11   -1    0    0    0    0 -0.00000000000E+00 -0.00000000000E+00 -0.45593999997E+02  0.45594000000E+02  0.51100000000E-03 0.  1.
    9900012    2    1    2    0    0  0.20115119105E+02  0.13750290896E+02  0.32549609328E+02  0.50528861006E+02  0.30000003514E+02 0.  0.
        -12    1    1    2    0    0 -0.20115119105E+02 -0.13750290896E+02 -0.32549609328E+02  0.40659138994E+02  0.00000000000E+00 0.  1.
         11    1    3    3    0    0  0.98587497609E+01  0.30090141361E+01  0.16922221422E+02  0.19814406149E+02  0.51100000000E-03 0. -1.
        -11    1    3    3    0    0  0.11876550025E+02  0.78366870108E+00  0.16766638352E+02  0.20561778595E+02  0.51100000000E-03 0.  1.
        -12    1    3    3    0    0 -0.16201806804E+01  0.99576080591E+01 -0.11392504465E+01  0.10152676262E+02  0.00000000000E+00 0.  1.
</event>
<event>
 7    1  0.5843820E-012  0.5052886E+02  0.7816164E-02  0.1300439E+00
        -11   -1    0    0    0    0  0.00000000000E+00  0.00000000000E+00  0.45593999997E+02  0.45594000000E+02  0.51100000000E-03 0. -1.
         11   -1    0    0    0    0 -0.00000000000E+00 -0.00000000000E+00 -0.45593999997E+02  0.45594000000E+02  0.51100000000E-03 0.  1.
    9900012    2    1    2    0    0  0.10347725262E+02  0.17760798310E+02 -0.35080543950E+02  0.50528856643E+02  0.29999990252E+02 0.  0.
         12    1    1    2    0    0 -0.10347725262E+02 -0.17760798310E+02  0.35080543950E+02  0.40659143357E+02  0.00000000000E+00 0. -1.
         11    1    3    3    0    0 -0.48451885348E+01  0.43675610496E+01 -0.54273798816E+01  0.84857465258E+01  0.51100000000E-03 0. -1.
        -11    1    3    3    0    0 -0.43214996732E+01  0.81029831424E+01 -0.62127816979E+01  0.11087486276E+02  0.51100000000E-03 0.  1.
        -12    1    3    3    0    0  0.19514413470E+02  0.52902541181E+01 -0.23440382370E+02  0.30955623841E+02  0.00000000000E+00 0.  1.
</event>
<event>
 7    1  0.5843820E-012  0.5052886E+02  0.7816164E-02  0.1300439E+00
        -11   -1    0    0    0    0  0.00000000000E+00  0.00000000000E+00  0.45593999997E+02  0.45594000000E+02  0.51100000000E-03 0. -1.
         11   -1    0    0    0    0 -0.00000000000E+00 -0.00000000000E+00 -0.45593999997E+02  0.45594000000E+02  0.51100000000E-03 0.  1.
    9900012    2    1    2    0    0 -0.23217665636E+02  0.16769487080E+02  0.28859832926E+02  0.50528860178E+02  0.30000000998E+02 0.  0.
        -12    1    1    2    0    0  0.23217665636E+02 -0.16769487080E+02 -0.28859832926E+02  0.40659139822E+02  0.00000000000E+00 0.  1.
         11    1    3    3    0    0  0.18490533544E+01  0.66636121891E+01  0.41022651423E+01  0.80406035391E+01  0.51100000000E-03 0. -1.
        -11    1    3    3    0    0 -0.15061833667E+00  0.89672537347E+01  0.32039825716E+01  0.95236458358E+01  0.51100000000E-03 0.  1.
         12    1    3    3    0    0 -0.24916100654E+02  0.11386211562E+01  0.21553585212E+02  0.32964610803E+02  0.00000000000E+00 0. -1.
</event>
<event>
 7    1  0.5843820E-012  0.5052884E+02  0.7816164E-02  0.1300439E+00
        -11   -1    0    0    0    0  0.00000000000E+00  0.00000000000E+00  0.45593999997E+02  0.45594000000E+02  0.51100000000E-03 0. -1.
         11   -1    0    0    0    0 -0.00000000000E+00 -0.00000000000E+00 -0.45593999997E+02  0.45594000000E+02  0.51100000000E-03 0.  1.
    9900012    2    1    2    0    0 -0.14874681645E+02  0.47736394646E+01 -0.37538293755E+02  0.50528840075E+02  0.29999939891E+02 0.  0.
         12    1    1    2    0    0  0.14874681645E+02 -0.47736394646E+01  0.37538293755E+02  0.40659159925E+02  0.00000000000E+00 0. -1.
         11    1    3    3    0    0  0.97603779003E+00 -0.37658511200E+01 -0.11317709721E+02  0.11967658001E+02  0.51100000000E-03 0. -1.
        -11    1    3    3    0    0 -0.89090413810E+01  0.12966279037E+01 -0.27036273598E+02  0.28495830442E+02  0.51100000000E-03 0.  1.
        -12    1    3    3    0    0 -0.69416780538E+01  0.72428626809E+01  0.81568956400E+00  0.10065351632E+02  0.00000000000E+00 0.  1.
</event>
<event>
 7    1  0.5843820E-012  0.5052886E+02  0.7816164E-02  0.1300439E+00
        -11   -1    0    0    0    0  0.00000000000E+00  0.00000000000E+00  0.45593999997E+02  0.45594000000E+02  0.51100000000E-03 0. -1.
         11   -1    0    0    0    0 -0.00000000000E+00 -0.00000000000E+00 -0.45593999997E+02  0.45594000000E+02  0.51100000000E-03 0.  1.
    9900012    2    1    2    0    0  0.24709874027E+02  0.44112532567E+01  0.31986385470E+02  0.50528857299E+02  0.29999992246E+02 0.  0.
        -12    1    1    2    0    0 -0.24709874027E+02 -0.44112532567E+01 -0.31986385470E+02  0.40659142701E+02  0.00000000000E+00 0.  1.
         11    1    3    3    0    0  0.26850435509E+02  0.30995860405E+01  0.30247307026E+02  0.40564182517E+02  0.51100000000E-03 0. -1.
        -11    1    3    3    0    0 -0.11696336281E+01  0.27326357865E+01  0.52621962181E+01  0.60436785540E+01  0.51100000000E-03 0.  1.
        -12    1    3    3    0    0 -0.97092785361E+00 -0.14209685703E+01 -0.35231177740E+01  0.39209962285E+01  0.00000000000E+00 0.  1.
</event>
<event>
 7    1  0.5843820E-012  0.5052887E+02  0.7816164E-02  0.1300439E+00
        -11   -1    0    0    0    0  0.00000000000E+00  0.00000000000E+00  0.45593999997E+02  0.45594000000E+02  0.51100000000E-03 0. -1.
         11   -1    0    0    0    0 -0.00000000000E+00 -0.00000000000E+00 -0.45593999997E+02  0.45594000000E+02  0.51100000000E-03 0.  1.
    9900012    2    1    2    0    0  0.18466466565E+02 -0.23715589988E+02  0.27381114675E+02  0.50528867733E+02  0.30000023960E+02 0.  0.
        -12    1    1    2    0    0 -0.18466466565E+02  0.23715589988E+02 -0.27381114675E+02  0.40659132267E+02  0.00000000000E+00 0.  1.
         11    1    3    3    0    0  0.31072645436E+01  0.29955493729E+00  0.10322241047E+02  0.10783945780E+02  0.51100000000E-03 0. -1.
        -11    1    3    3    0    0 -0.25284798160E+01  0.23910939794E+01 -0.18960862753E+00  0.34851818161E+01  0.51100000000E-03 0.  1.
        -12    1    3    3    0    0  0.17887681837E+02 -0.26406238904E+02  0.17248482256E+02  0.36259740136E+02  0.00000000000E+00 0.  1.
</event>
<event>
 7    1  0.5843820E-012  0.5052888E+02  0.7816164E-02  0.1300439E+00
        -11   -1    0    0    0    0  0.00000000000E+00  0.00000000000E+00  0.45593999997E+02  0.45594000000E+02  0.51100000000E-03 0.  1.
         11   -1    0    0    0    0 -0.00000000000E+00 -0.00000000000E+00 -0.45593999997E+02  0.45594000000E+02  0.51100000000E-03 0. -1.
    9900012    2    1    2    0    0 -0.38610303812E+02  0.71924749179E+01  0.10520315461E+02  0.50528876875E+02  0.30000051750E+02 0.  0.
        -12    1    1    2    0    0  0.38610303812E+02 -0.71924749179E+01 -0.10520315461E+02  0.40659123125E+02  0.00000000000E+00 0.  1.
         11    1    3    3    0    0 -0.11468824583E+02 -0.24440080411E+01  0.79855975273E+01  0.14187208350E+02  0.51100000000E-03 0.  1.
        -11    1    3    3    0    0 -0.66823027268E+01  0.11810407828E+02 -0.49554830541E+01  0.14446304557E+02  0.51100000000E-03 0. -1.
         12    1    3    3    0    0 -0.20459176502E+02 -0.21739248692E+01  0.74902009882E+01  0.21895363968E+02  0.00000000000E+00 0. -1.
</event>
<event>
 7    1  0.5843820E-012  0.5052885E+02  0.7816164E-02  0.1300439E+00
        -11   -1    0    0    0    0  0.00000000000E+00  0.00000000000E+00  0.45593999997E+02  0.45594000000E+02  0.51100000000E-03 0. -1.
         11   -1    0    0    0    0 -0.00000000000E+00 -0.00000000000E+00 -0.45593999997E+02  0.45594000000E+02  0.51100000000E-03 0.  1.
    9900012    2    1    2    0    0  0.36552812110E+01  0.24405343714E+02  0.32313839896E+02  0.50528854271E+02  0.29999983043E+02 0.  0.
        -12    1    1    2    0    0 -0.36552812110E+01 -0.24405343714E+02 -0.32313839896E+02  0.40659145729E+02  0.00000000000E+00 0.  1.
         11    1    3    3    0    0  0.13003243077E+00  0.51379538461E+00 -0.35885203684E+01  0.36274471500E+01  0.51100000000E-03 0. -1.
        -11    1    3    3    0    0  0.48657007374E+01  0.73905772029E+01  0.18526924169E+01  0.90403619679E+01  0.51100000000E-03 0.  1.
         12    1    3    3    0    0 -0.13404519571E+01  0.16500971126E+02  0.34049667848E+02  0.37861045154E+02  0.00000000000E+00 0. -1.
</event>
<event>
 7    1  0.5843820E-012  0.5052886E+02  0.7816164E-02  0.1300439E+00
        -11   -1    0    0    0    0  0.00000000000E+00  0.00000000000E+00  0.45593999997E+02  0.45594000000E+02  0.51100000000E-03 0. -1.
         11   -1    0    0    0    0 -0.00000000000E+00 -0.00000000000E+00 -0.45593999997E+02  0.45594000000E+02  0.51100000000E-03 0.  1.
    9900012    2    1    2    0    0  0.42936466402E+01  0.28822538118E+02  0.28354742633E+02  0.50528861608E+02  0.30000005344E+02 0.  0.
        -12    1    1    2    0    0 -0.42936466402E+01 -0.28822538118E+02 -0.28354742633E+02  0.40659138392E+02  0.00000000000E+00 0.  1.
         11    1    3    3    0    0 -0.29748683720E+01  0.15318554967E+01  0.13417178877E+01  0.36050839442E+01  0.51100000000E-03 0.  1.
        -11    1    3    3    0    0  0.17038191833E+02  0.17812059163E+02  0.15701036393E+02  0.29224852038E+02  0.51100000000E-03 0. -1.
         12    1    3    3    0    0 -0.97696768207E+01  0.94786234581E+01  0.11311988352E+02  0.17698925626E+02  0.00000000000E+00 0. -1.
</event>
<event>
 7    1  0.5843820E-012  0.5052886E+02  0.7816164E-02  0.1300439E+00
        -11   -1    0    0    0    0  0.00000000000E+00  0.00000000000E+00  0.45593999997E+02  0.45594000000E+02  0.51100000000E-03 0. -1.
         11   -1    0    0    0    0 -0.00000000000E+00 -0.00000000000E+00 -0.45593999997E+02  0.45594000000E+02  0.51100000000E-03 0.  1.
    9900012    2    1    2    0    0 -0.26139584690E+02 -0.76272865067E+01  0.30194575289E+02  0.50528858788E+02  0.29999996772E+02 0.  0.
        -12    1    1    2    0    0  0.26139584690E+02  0.76272865067E+01 -0.30194575289E+02  0.40659141212E+02  0.00000000000E+00 0.  1.
         11    1    3    3    0    0 -0.12928456085E+02  0.54185792142E+01  0.15332579789E+02  0.20774840088E+02  0.51100000000E-03 0. -1.
        -11    1    3    3    0    0 -0.11038816823E+02  0.12814685758E+01  0.47608600609E+01  0.12089806754E+02  0.51100000000E-03 0.  1.
         12    1    3    3    0    0 -0.21723117821E+01 -0.14327334297E+02  0.10101135439E+02  0.17664211946E+02  0.00000000000E+00 0. -1.
</event>
<event>
 7    1  0.5843820E-012  0.5052885E+02  0.7816164E-02  0.1300439E+00
        -11   -1    0    0    0    0  0.00000000000E+00  0.00000000000E+00  0.45593999997E+02  0.45594000000E+02  0.51100000000E-03 0. -1.
         11   -1    0    0    0    0 -0.00000000000E+00 -0.00000000000E+00 -0.45593999997E+02  0.45594000000E+02  0.51100000000E-03 0.  1.
    9900012    2    1    2    0    0 -0.17126462884E+02  0.90836435464E+01  0.35739869111E+02  0.50528849061E+02  0.29999967207E+02 0.  0.
        -12    1    1    2    0    0  0.17126462884E+02 -0.90836435464E+01 -0.35739869111E+02  0.40659150939E+02  0.00000000000E+00 0.  1.
         11    1    3    3    0    0  0.48919544543E+00  0.37146527790E+01  0.10150785932E+02  0.10820185431E+02  0.51100000000E-03 0. -1.
        -11    1    3    3    0    0  0.11834318040E+01 -0.65501739313E+01  0.11731737069E+02  0.13488474498E+02  0.51100000000E-03 0.  1.
        -12    1    3    3    0    0 -0.18799090133E+02  0.11919164699E+02  0.13857346110E+02  0.26220189133E+02  0.00000000000E+00 0.  1.
</event>
<event>
 7    1  0.5843820E-012  0.5052886E+02  0.7816164E-02  0.1300439E+00
        -11   -1    0    0    0    0  0.00000000000E+00  0.00000000000E+00  0.45593999997E+02  0.45594000000E+02  0.51100000000E-03 0. -1.
         11   -1    0    0    0    0 -0.00000000000E+00 -0.00000000000E+00 -0.45593999997E+02  0.45594000000E+02  0.51100000000E-03 0.  1.
    9900012    2    1    2    0    0 -0.64256028974E+01  0.22371661394E+02  0.33337460208E+02  0.50528857618E+02  0.29999993217E+02 0.  0.
        -12    1    1    2    0    0  0.64256028974E+01 -0.22371661394E+02 -0.33337460208E+02  0.40659142382E+02  0.00000000000E+00 0.  1.
         11    1    3    3    0    0  0.26995399870E+01  0.14513340815E+02  0.12108599143E+02  0.19093002677E+02  0.51100000000E-03 0. -1.
        -11    1    3    3    0    0  0.13038748650E+01  0.79497623792E+01  0.19185398379E+02  0.20808131170E+02  0.51100000000E-03 0.  1.
        -12    1    3    3    0    0 -0.10429017749E+02 -0.91441800317E-01  0.20434626855E+01  0.10627723772E+02  0.00000000000E+00 0.  1.
</event>
<event>
 7    1  0.7023879E-012  0.5052887E+02  0.7816164E-02  0.1300439E+00
        -11   -1    0    0    0    0  0.00000000000E+00  0.00000000000E+00  0.45593999997E+02  0.45594000000E+02  0.51100000000E-03 0. -1.
         11   -1    0    0    0    0 -0.00000000000E+00 -0.00000000000E+00 -0.45593999997E+02  0.45594000000E+02  0.51100000000E-03 0.  1.
    9900012    2    1    2    0    0 -0.84534963235E+00 -0.62467541853E+01 -0.40167504035E+02  0.50528868993E+02  0.30000027790E+02 0.  0.
         12    1    1    2    0    0  0.84534963235E+00  0.62467541853E+01  0.40167504035E+02  0.40659131007E+02  0.00000000000E+00 0. -1.
         11    1    3    3    0    0 -0.84776251714E+00  0.24681592343E+01  0.80639272379E-01  0.26109412565E+01  0.51100000000E-03 0. -1.
        -11    1    3    3    0    0 -0.40660231632E+00 -0.93354149483E+01 -0.18662104058E+01  0.95288005143E+01  0.51100000000E-03 0.  1.
        -12    1    3    3    0    0  0.40901520111E+00  0.62050152877E+00 -0.38381932902E+02  0.38389127222E+02  0.00000000000E+00 0.  1.
</event>
<event>
 7    1  0.5843820E-012  0.5052886E+02  0.7816164E-02  0.1300439E+00
        -11   -1    0    0    0    0  0.00000000000E+00  0.00000000000E+00  0.45593999997E+02  0.45594000000E+02  0.51100000000E-03 0. -1.
         11   -1    0    0    0    0 -0.00000000000E+00 -0.00000000000E+00 -0.45593999997E+02  0.45594000000E+02  0.51100000000E-03 0.  1.
    9900012    2    1    2    0    0  0.31834312470E+02  0.21849892979E+02 -0.12740659742E+02  0.50528859769E+02  0.29999999754E+02 0.  0.
         12    1    1    2    0    0 -0.31834312470E+02 -0.21849892979E+02  0.12740659742E+02  0.40659140231E+02  0.00000000000E+00 0. -1.
         11    1    3    3    0    0  0.62701889403E+01  0.45259162990E+01  0.20517260471E+00  0.77357148184E+01  0.51100000000E-03 0. -1.
        -11    1    3    3    0    0  0.25637536197E+02  0.17738328457E+02 -0.19141519656E+02  0.36583183755E+02  0.51100000000E-03 0.  1.
         12    1    3    3    0    0 -0.73412666665E-01 -0.41435177622E+00  0.61956873094E+01  0.62099611955E+01  0.00000000000E+00 0. -1.
</event>
<event>
 7    1  0.5843820E-012  0.5052886E+02  0.7816164E-02  0.1300439E+00
        -11   -1    0    0    0    0  0.00000000000E+00  0.00000000000E+00  0.45593999997E+02  0.45594000000E+02  0.51100000000E-03 0. -1.
         11   -1    0    0    0    0 -0.00000000000E+00 -0.00000000000E+00 -0.45593999997E+02  0.45594000000E+02  0.51100000000E-03 0.  1.
    9900012    2    1    2    0    0 -0.68034833701E+00  0.14343864290E+02  0.38038878201E+02  0.50528861157E+02  0.30000003974E+02 0.  0.
        -12    1    1    2    0    0  0.68034833701E+00 -0.14343864290E+02 -0.38038878201E+02  0.40659138843E+02  0.00000000000E+00 0.  1.
         11    1    3    3    0    0 -0.51013753528E+01  0.15652132593E+02  0.34659749543E+02  0.38370711797E+02  0.51100000000E-03 0. -1.
        -11    1    3    3    0    0  0.34784669464E+01 -0.28932003993E+01  0.68607798043E+01  0.82183113005E+01  0.51100000000E-03 0.  1.
        -12    1    3    3    0    0  0.94256006936E+00  0.15849320968E+01 -0.34816511461E+01  0.39398380600E+01  0.00000000000E+00 0.  1.
</event>
<event>
 7    1  0.5843820E-012  0.5052885E+02  0.7816164E-02  0.1300439E+00
        -11   -1    0    0    0    0  0.00000000000E+00  0.00000000000E+00  0.45593999997E+02  0.45594000000E+02  0.51100000000E-03 0. -1.
         11   -1    0    0    0    0 -0.00000000000E+00 -0.00000000000E+00 -0.45593999997E+02  0.45594000000E+02  0.51100000000E-03 0.  1.
    9900012    2    1    2    0    0  0.27746511959E+02 -0.11780205470E+02 -0.27285967493E+02  0.50528853565E+02  0.29999980896E+02 0.  0.
         12    1    1    2    0    0 -0.27746511959E+02  0.11780205470E+02  0.27285967493E+02  0.40659146435E+02  0.00000000000E+00 0. -1.
         11    1    3    3    0    0  0.91498079050E+01 -0.13663697769E+02 -0.13716460628E+02  0.21413942043E+02  0.51100000000E-03 0. -1.
        -11    1    3    3    0    0  0.89996374208E+01 -0.75347356531E+01 -0.32911918464E+01  0.12190063950E+02  0.51100000000E-03 0.  1.
        -12    1    3    3    0    0  0.95970666328E+01  0.94182279516E+01 -0.10278315019E+02  0.16924847572E+02  0.00000000000E+00 0.  1.
</event>
<event>
 7    1  0.5843820E-012  0.5052887E+02  0.7816164E-02  0.1300439E+00
        -11   -1    0    0    0    0  0.00000000000E+00  0.00000000000E+00  0.45593999997E+02  0.45594000000E+02  0.51100000000E-03 0. -1.
         11   -1    0    0    0    0 -0.00000000000E+00 -0.00000000000E+00 -0.45593999997E+02  0.45594000000E+02  0.51100000000E-03 0.  1.
    9900012    2    1    2    0    0 -0.24260874415E+02  0.19984471197E+02 -0.25791393986E+02  0.50528866707E+02  0.30000020843E+02 0.  0.
         12    1    1    2    0    0  0.24260874415E+02 -0.19984471197E+02  0.25791393986E+02  0.40659133293E+02  0.00000000000E+00 0. -1.
         11    1    3    3    0    0  0.23287162752E+01  0.22091839082E+01 -0.15185262390E+02  0.15520812065E+02  0.51100000000E-03 0. -1.
        -11    1    3    3    0    0  0.34967860610E+00  0.16761437620E+01  0.38651036729E+00  0.17553129532E+01  0.51100000000E-03 0.  1.
        -12    1    3    3    0    0 -0.26939269296E+02  0.16099143527E+02 -0.10992641963E+02  0.33252741689E+02  0.00000000000E+00 0.  1.
</event>
<event>
 7    1  0.5843820E-012  0.5052888E+02  0.7816164E-02  0.1300439E+00
        -11   -1    0    0    0    0  0.00000000000E+00  0.00000000000E+00  0.45593999997E+02  0.45594000000E+02  0.51100000000E-03 0. -1.
         11   -1    0    0    0    0 -0.00000000000E+00 -0.00000000000E+00 -0.45593999997E+02  0.45594000000E+02  0.51100000000E-03 0.  1.
    9900012    2    1    2    0    0  0.34080993577E+01 -0.15230856936E+02  0.37544244355E+02  0.50528875213E+02  0.30000046698E+02 0.  0.
        -12    1    1    2    0    0 -0.34080993577E+01  0.15230856936E+02 -0.37544244355E+02  0.40659124787E+02  0.00000000000E+00 0.  1.
         11    1    3    3    0    0  0.20464425852E+01 -0.28308761854E+01  0.98157435152E+01  0.10418762318E+02  0.51100000000E-03 0. -1.
        -11    1    3    3    0    0  0.44636497870E+01 -0.17125324692E+02  0.29311747578E+02  0.34240027184E+02  0.51100000000E-03 0.  1.
        -12    1    3    3    0    0 -0.31019930146E+01  0.47253439408E+01 -0.15832467379E+01  0.58700857110E+01  0.00000000000E+00 0.  1.
</event>
<event>
 7    1  0.5843820E-012  0.5052885E+02  0.7816164E-02  0.1300439E+00
        -11   -1    0    0    0    0  0.00000000000E+00  0.00000000000E+00  0.45593999997E+02  0.45594000000E+02  0.51100000000E-03 0. -1.
         11   -1    0    0    0    0 -0.00000000000E+00 -0.00000000000E+00 -0.45593999997E+02  0.45594000000E+02  0.51100000000E-03 0.  1.
    9900012    2    1    2    0    0 -0.23972278512E+02  0.24983838762E+01  0.32745294113E+02  0.50528851637E+02  0.29999975036E+02 0.  0.
        -12    1    1    2    0    0  0.23972278512E+02 -0.24983838762E+01 -0.32745294113E+02  0.40659148363E+02  0.00000000000E+00 0.  1.
         11    1    3    3    0    0  0.13776100984E+01 -0.42695120991E+01  0.12154166230E+02  0.12955705313E+02  0.51100000000E-03 0. -1.
        -11    1    3    3    0    0 -0.37243413866E+01 -0.32710448716E+01  0.10639499263E+02  0.11737520954E+02  0.51100000000E-03 0.  1.
        -12    1    3    3    0    0 -0.21625547224E+02  0.10038940847E+02  0.99516286191E+01  0.25835625370E+02  0.00000000000E+00 0.  1.
</event>
<event>
 7    1  0.5843820E-012  0.5052891E+02  0.7816164E-02  0.1300439E+00
        -11   -1    0    0    0    0  0.00000000000E+00  0.00000000000E+00  0.45593999997E+02  0.45594000000E+02  0.51100000000E-03 0. -1.
         11   -1    0    0    0    0 -0.00000000000E+00 -0.00000000000E+00 -0.45593999997E+02  0.45594000000E+02  0.51100000000E-03 0.  1.
    9900012    2    1    2    0    0 -0.36482748502E+00 -0.65846868841E+01  0.40120701592E+02  0.50528906347E+02  0.30000141332E+02 0.  0.
        -12    1    1    2    0    0  0.36482748502E+00  0.65846868841E+01 -0.40120701592E+02  0.40659093653E+02  0.00000000000E+00 0.  1.
         11    1    3    3    0    0  0.64557090992E+01 -0.20518177530E+01  0.32002174168E+02  0.32711241001E+02  0.51100000000E-03 0. -1.
        -11    1    3    3    0    0  0.11646356992E+01 -0.64017841643E+01  0.34192761301E+00  0.65158369802E+01  0.51100000000E-03 0.  1.
         12    1    3    3    0    0 -0.79851722835E+01  0.18689150333E+01  0.77765998110E+01  0.11301828366E+02  0.00000000000E+00 0. -1.
</event>
<event>
 7    1  0.5843820E-012  0.5052886E+02  0.7816164E-02  0.1300439E+00
        -11   -1    0    0    0    0  0.00000000000E+00  0.00000000000E+00  0.45593999997E+02  0.45594000000E+02  0.51100000000E-03 0. -1.
         11   -1    0    0    0    0 -0.00000000000E+00 -0.00000000000E+00 -0.45593999997E+02  0.45594000000E+02  0.51100000000E-03 0.  1.
    9900012    2    1    2    0    0  0.15380500795E+02 -0.44579609136E+01  0.37372881959E+02  0.50528861715E+02  0.30000005668E+02 0.  0.
        -12    1    1    2    0    0 -0.15380500795E+02  0.44579609136E+01 -0.37372881959E+02  0.40659138285E+02  0.00000000000E+00 0.  1.
         11    1    3    3    0    0  0.93153818858E+01  0.64691974016E+01  0.22100954321E+02  0.24841075598E+02  0.51100000000E-03 0. -1.
        -11    1    3    3    0    0  0.23832318884E+01  0.41015368304E+01  0.15047789854E+01  0.49766212093E+01  0.51100000000E-03 0.  1.
         12    1    3    3    0    0  0.36818870205E+01 -0.15028695146E+02  0.13767148652E+02  0.20711164907E+02  0.00000000000E+00 0. -1.
</event>
<event>
 7    1  0.5843820E-012  0.5052885E+02  0.7816164E-02  0.1300439E+00
        -11   -1    0    0    0    0  0.00000000000E+00  0.00000000000E+00  0.45593999997E+02  0.45594000000E+02  0.51100000000E-03 0. -1.
         11   -1    0    0    0    0 -0.00000000000E+00 -0.00000000000E+00 -0.45593999997E+02  0.45594000000E+02  0.51100000000E-03 0.  1.
    9900012    2    1    2    0    0  0.29213933303E+02 -0.12450774995E+02  0.25390754680E+02  0.50528854408E+02  0.29999983460E+02 0.  0.
        -12    1    1    2    0    0 -0.29213933303E+02  0.12450774995E+02 -0.25390754680E+02  0.40659145592E+02  0.00000000000E+00 0.  1.
         11    1    3    3    0    0  0.19446317420E+02 -0.88928796066E+01  0.42582177150E+01  0.21803095819E+02  0.51100000000E-03 0. -1.
        -11    1    3    3    0    0  0.50879674851E+01 -0.95067697261E+01  0.16919578336E+02  0.20063355031E+02  0.51100000000E-03 0.  1.
        -12    1    3    3    0    0  0.46796483981E+01  0.59488743376E+01  0.42129586286E+01  0.86624035591E+01  0.00000000000E+00 0.  1.
</event>
<event>
 7    1  0.5843820E-012  0.5052886E+02  0.7816164E-02  0.1300439E+00
        -11   -1    0    0    0    0  0.00000000000E+00  0.00000000000E+00  0.45593999997E+02  0.45594000000E+02  0.51100000000E-03 0. -1.
         11   -1    0    0    0    0 -0.00000000000E+00 -0.00000000000E+00 -0.45593999997E+02  0.45594000000E+02  0.51100000000E-03 0.  1.
    9900012    2    1    2    0    0  0.34333304826E+02 -0.90287068690E+01  0.19821002564E+02  0.50528861905E+02  0.30000006246E+02 0.  0.
        -12    1    1    2    0    0 -0.34333304826E+02  0.90287068690E+01 -0.19821002564E+02  0.40659138095E+02  0.00000000000E+00 0.  1.
         11    1    3    3    0    0  0.29412300816E+02 -0.23355659362E+01  0.15136688098E+02  0.33161086146E+02  0.51100000000E-03 0. -1.
        -11    1    3    3    0    0  0.99170880016E+01 -0.61955989775E+01  0.35514867954E+01  0.12220766745E+02  0.51100000000E-03 0.  1.
         12    1    3    3    0    0 -0.49960839921E+01 -0.49754195536E+00  0.11328276707E+01  0.51470090135E+01  0.00000000000E+00 0. -1.
</event>
<event>
 7    1  0.5843820E-012  0.5052886E+02  0.7816164E-02  0.1300439E+00
        -11   -1    0    0    0    0  0.00000000000E+00  0.00000000000E+00  0.45593999997E+02  0.45594000000E+02  0.51100000000E-03 0. -1.
         11   -1    0    0    0    0 -0.00000000000E+00 -0.00000000000E+00 -0.45593999997E+02  0.45594000000E+02  0.51100000000E-03 0.  1.
    9900012    2    1    2    0    0 -0.56815499534E+01  0.15272928768E+02  0.37250815160E+02  0.50528860890E+02  0.30000003162E+02 0.  0.
        -12    1    1    2    0    0  0.56815499534E+01 -0.15272928768E+02 -0.37250815160E+02  0.40659139110E+02  0.00000000000E+00 0.  1.
         11    1    3    3    0    0 -0.56156715530E+01  0.16373801313E+01  0.85883644494E+01  0.10391187847E+02  0.51100000000E-03 0. -1.
        -11    1    3    3    0    0 -0.11540558886E+02  0.44945815154E+01  0.18606687811E+02  0.22351612782E+02  0.51100000000E-03 0.  1.
         12    1    3    3    0    0  0.11474680485E+02  0.91409671214E+01  0.10055762900E+02  0.17786060262E+02  0.00000000000E+00 0. -1.
</event>
<event>
 7    1  0.5843820E-012  0.5052887E+02  0.7816164E-02  0.1300439E+00
        -11   -1    0    0    0    0  0.00000000000E+00  0.00000000000E+00  0.45593999997E+02  0.45594000000E+02  0.51100000000E-03 0. -1.
         11   -1    0    0    0    0 -0.00000000000E+00 -0.00000000000E+00 -0.45593999997E+02  0.45594000000E+02  0.51100000000E-03 0.  1.
    9900012    2    1    2    0    0 -0.31336579860E+02 -0.44594868429E+01 -0.25520515418E+02  0.50528868585E+02  0.30000026551E+02 0.  0.
         12    1    1    2    0    0  0.31336579860E+02  0.44594868429E+01  0.25520515418E+02  0.40659131415E+02  0.00000000000E+00 0. -1.
         11    1    3    3    0    0 -0.57187240840E+01  0.59928738335E+01 -0.51172922725E+01  0.97367870674E+01  0.51100000000E-03 0. -1.
        -11    1    3    3    0    0 -0.59922875753E+01  0.47424256131E+01 -0.12667920232E+02  0.14794401453E+02  0.51100000000E-03 0.  1.
        -12    1    3    3    0    0 -0.19625568200E+02 -0.15194786289E+02 -0.77353029139E+01  0.25997680065E+02  0.00000000000E+00 0.  1.
</event>
<event>
 7    1  0.5843820E-012  0.5052886E+02  0.7816164E-02  0.1300439E+00
        -11   -1    0    0    0    0  0.00000000000E+00  0.00000000000E+00  0.45593999997E+02  0.45594000000E+02  0.51100000000E-03 0. -1.
         11   -1    0    0    0    0 -0.00000000000E+00 -0.00000000000E+00 -0.45593999997E+02  0.45594000000E+02  0.51100000000E-03 0.  1.
    9900012    2    1    2    0    0  0.55478176459E+01  0.19435990280E+02  0.35279307569E+02  0.50528861527E+02  0.30000005098E+02 0.  0.
        -12    1    1    2    0    0 -0.55478176459E+01 -0.19435990280E+02 -0.35279307569E+02  0.40659138473E+02  0.00000000000E+00 0.  1.
         11    1    3    3    0    0  0.53027115805E+01  0.83129070707E+01  0.19007430987E+02  0.21412744034E+02  0.51100000000E-03 0. -1.
        -11    1    3    3    0    0  0.17977873784E+00  0.64551545249E+01 -0.44710153277E+01  0.78543821308E+01  0.51100000000E-03 0.  1.
         12    1    3    3    0    0  0.65327327590E-01  0.46679286847E+01  0.20742891909E+02  0.21261735363E+02  0.00000000000E+00 0. -1.
</event>
<event>
 7    1  0.5843820E-012  0.5052882E+02  0.7816164E-02  0.1300439E+00
        -11   -1    0    0    0    0  0.00000000000E+00  0.00000000000E+00  0.45593999997E+02  0.45594000000E+02  0.51100000000E-03 0.  1.
         11   -1    0    0    0    0 -0.00000000000E+00 -0.00000000000E+00 -0.45593999997E+02  0.45594000000E+02  0.51100000000E-03 0. -1.
    9900012    2    1    2    0    0 -0.27316274517E+02  0.30094114779E+02  0.11552206274E+01  0.50528817365E+02  0.29999870863E+02 0.  0.
        -12    1    1    2    0    0  0.27316274517E+02 -0.30094114779E+02 -0.11552206274E+01  0.40659182635E+02  0.00000000000E+00 0.  1.
         11    1    3    3    0    0 -0.24594915423E+01  0.77620201042E+01 -0.63259990782E+01  0.10310980523E+02  0.51100000000E-03 0.  1.
        -11    1    3    3    0    0 -0.12006926952E+02  0.14394221893E+02 -0.62965419689E+01  0.19773880746E+02  0.51100000000E-03 0. -1.
        -12    1    3    3    0    0 -0.12849856023E+02  0.79378727818E+01  0.13777761675E+02  0.20443956096E+02  0.00000000000E+00 0.  1.
</event>
<event>
 7    1  0.5843820E-012  0.5052886E+02  0.7816164E-02  0.1300439E+00
        -11   -1    0    0    0    0  0.00000000000E+00  0.00000000000E+00  0.45593999997E+02  0.45594000000E+02  0.51100000000E-03 0. -1.
         11   -1    0    0    0    0 -0.00000000000E+00 -0.00000000000E+00 -0.45593999997E+02  0.45594000000E+02  0.51100000000E-03 0.  1.
    9900012    2    1    2    0    0  0.21513995844E+02  0.39642516167E+01  0.34272419195E+02  0.50528855573E+02  0.29999987001E+02 0.  0.
        -12    1    1    2    0    0 -0.21513995844E+02 -0.39642516167E+01 -0.34272419195E+02  0.40659144427E+02  0.00000000000E+00 0.  1.
         11    1    3    3    0    0  0.19371452365E+02  0.11081511244E+02  0.19991804052E+02  0.29962064143E+02  0.51100000000E-03 0. -1.
        -11    1    3    3    0    0  0.57928526485E+01  0.50057184626E+00  0.86221283446E+01  0.10399462074E+02  0.51100000000E-03 0.  1.
        -12    1    3    3    0    0 -0.36503091701E+01 -0.76178314733E+01  0.56584867981E+01  0.10167329356E+02  0.00000000000E+00 0.  1.
</event>
<event>
 7    1  0.5843820E-012  0.5052887E+02  0.7816164E-02  0.1300439E+00
        -11   -1    0    0    0    0  0.00000000000E+00  0.00000000000E+00  0.45593999997E+02  0.45594000000E+02  0.51100000000E-03 0. -1.
         11   -1    0    0    0    0 -0.00000000000E+00 -0.00000000000E+00 -0.45593999997E+02  0.45594000000E+02  0.51100000000E-03 0.  1.
    9900012    2    1    2    0    0 -0.18265790001E+02 -0.12359033383E+02 -0.34158166463E+02  0.50528866627E+02  0.30000020600E+02 0.  0.
         12    1    1    2    0    0  0.18265790001E+02  0.12359033383E+02  0.34158166463E+02  0.40659133373E+02  0.00000000000E+00 0. -1.
         11    1    3    3    0    0 -0.84876702193E+00  0.21848539882E+01 -0.70576056277E+01  0.74366517912E+01  0.51100000000E-03 0.  1.
        -11    1    3    3    0    0 -0.12003553476E+02  0.49723770845E+01 -0.80317473399E+01  0.15274776448E+02  0.51100000000E-03 0. -1.
         12    1    3    3    0    0 -0.54134695024E+01 -0.19516264455E+02 -0.19068813496E+02  0.27817438388E+02  0.00000000000E+00 0. -1.
</event>
<event>
 7    1  0.5843820E-012  0.5052886E+02  0.7816164E-02  0.1300439E+00
        -11   -1    0    0    0    0  0.00000000000E+00  0.00000000000E+00  0.45593999997E+02  0.45594000000E+02  0.51100000000E-03 0. -1.
         11   -1    0    0    0    0 -0.00000000000E+00 -0.00000000000E+00 -0.45593999997E+02  0.45594000000E+02  0.51100000000E-03 0.  1.
    9900012    2    1    2    0    0  0.28619602506E+02  0.23805958833E+02 -0.16351151764E+02  0.50528862189E+02  0.30000007110E+02 0.  0.
         12    1    1    2    0    0 -0.28619602506E+02 -0.23805958833E+02  0.16351151764E+02  0.40659137811E+02  0.00000000000E+00 0. -1.
         11    1    3    3    0    0  0.61226263538E+01  0.20023070685E+01  0.45766766590E+01  0.79020096536E+01  0.51100000000E-03 0. -1.
        -11    1    3    3    0    0  0.23934783846E+02  0.12137322094E+02 -0.12026274710E+02  0.29407817822E+02  0.51100000000E-03 0.  1.
         12    1    3    3    0    0 -0.14378076947E+01  0.96663296706E+01 -0.89015537124E+01  0.13219034714E+02  0.00000000000E+00 0. -1.
</event>
<event>
 7    1  0.8294874E-012  0.5052881E+02  0.7816164E-02  0.1300439E+00
        -11   -1    0    0    0    0  0.00000000000E+00  0.00000000000E+00  0.45593999997E+02  0.45594000000E+02  0.51100000000E-03 0. -1.
         11   -1    0    0    0    0 -0.00000000000E+00 -0.00000000000E+00 -0.45593999997E+02  0.45594000000E+02  0.51100000000E-03 0.  1.
    9900012    2    1    2    0    0 -0.20988016949E+01  0.10870997576E+02 -0.39122707613E+02  0.50528809061E+02  0.29999845621E+02 0.  0.
         12    1    1    2    0    0  0.20988016949E+01 -0.10870997576E+02  0.39122707613E+02  0.40659190939E+02  0.00000000000E+00 0. -1.
         11    1    3    3    0    0  0.89971356998E+00 -0.61939589020E+01 -0.65444540585E+01  0.90556330852E+01  0.51100000000E-03 0. -1.
        -11    1    3    3    0    0  0.64875453150E+01  0.70493916030E+01 -0.54073609465E+01  0.11000987176E+02  0.51100000000E-03 0.  1.
        -12    1    3    3    0    0 -0.94860605800E+01  0.10015564875E+02 -0.27170892608E+02  0.30472188799E+02  0.00000000000E+00 0.  1.
</event>
<event>
 7    1  0.5843820E-012  0.5052883E+02  0.7816164E-02  0.1300439E+00
        -11   -1    0    0    0    0  0.00000000000E+00  0.00000000000E+00  0.45593999997E+02  0.45594000000E+02  0.51100000000E-03 0. -1.
         11   -1    0    0    0    0 -0.00000000000E+00 -0.00000000000E+00 -0.45593999997E+02  0.45594000000E+02  0.51100000000E-03 0.  1.
    9900012    2    1    2    0    0  0.32375594775E+02 -0.88792534293E+00 -0.24580492002E+02  0.50528829625E+02  0.29999908129E+02 0.  0.
         12    1    1    2    0    0 -0.32375594775E+02  0.88792534293E+00  0.24580492002E+02  0.40659170375E+02  0.00000000000E+00 0. -1.
         11    1    3    3    0    0  0.10732268994E+02  0.45909127813E+01 -0.20240216891E+01  0.11847140667E+02  0.51100000000E-03 0. -1.
        -11    1    3    3    0    0  0.22617674140E+02 -0.10974660312E+02 -0.14956553029E+02  0.29252364541E+02  0.51100000000E-03 0.  1.
        -12    1    3    3    0    0 -0.97434835886E+00  0.54958221876E+01 -0.75999172839E+01  0.94293244172E+01  0.00000000000E+00 0.  1.
</event>
<event>
 7    1  0.5843820E-012  0.5052887E+02  0.7816164E-02  0.1300439E+00
        -11   -1    0    0    0    0  0.00000000000E+00  0.00000000000E+00  0.45593999997E+02  0.45594000000E+02  0.51100000000E-03 0. -1.
         11   -1    0    0    0    0 -0.00000000000E+00 -0.00000000000E+00 -0.45593999997E+02  0.45594000000E+02  0.51100000000E-03 0.  1.
    9900012    2    1    2    0    0 -0.15986007136E+02 -0.62591043697E+01  0.36856971490E+02  0.50528866228E+02  0.30000019386E+02 0.  0.
        -12    1    1    2    0    0  0.15986007136E+02  0.62591043697E+01 -0.36856971490E+02  0.40659133772E+02  0.00000000000E+00 0.  1.
         11    1    3    3    0    0 -0.20637977219E+01 -0.64998864547E+01  0.27713069425E+02  0.28539831853E+02  0.51100000000E-03 0. -1.
        -11    1    3    3    0    0  0.28853310034E+01 -0.31829016456E+00  0.27472492925E+01  0.39967264811E+01  0.51100000000E-03 0.  1.
        -12    1    3    3    0    0 -0.16807540417E+02  0.55907224961E+00  0.63966527727E+01  0.17992307894E+02  0.00000000000E+00 0.  1.
</event>
<event>
 7    1  0.5843820E-012  0.5052886E+02  0.7816164E-02  0.1300439E+00
        -11   -1    0    0    0    0  0.00000000000E+00  0.00000000000E+00  0.45593999997E+02  0.45594000000E+02  0.51100000000E-03 0. -1.
         11   -1    0    0    0    0 -0.00000000000E+00 -0.00000000000E+00 -0.45593999997E+02  0.45594000000E+02  0.51100000000E-03 0.  1.
    9900012    2    1    2    0    0  0.35739698163E+02 -0.13751049604E+02  0.13665578912E+02  0.50528862811E+02  0.30000009000E+02 0.  0.
        -12    1    1    2    0    0 -0.35739698163E+02  0.13751049604E+02 -0.13665578912E+02  0.40659137189E+02  0.00000000000E+00 0.  1.
         11    1    3    3    0    0 -0.23708346393E+01 -0.63315059905E+01  0.21145520515E+01  0.70837952846E+01  0.51100000000E-03 0. -1.
        -11    1    3    3    0    0  0.11095921867E+02 -0.72002841542E+01 -0.17326226839E+01  0.13340373143E+02  0.51100000000E-03 0.  1.
         12    1    3    3    0    0  0.27014610935E+02 -0.21925945896E+00  0.13283649544E+02  0.30104694383E+02  0.00000000000E+00 0. -1.
</event>
<event>
 7    1  0.5843820E-012  0.5052885E+02  0.7816164E-02  0.1300439E+00
        -11   -1    0    0    0    0  0.00000000000E+00  0.00000000000E+00  0.45593999997E+02  0.45594000000E+02  0.51100000000E-03 0. -1.
         11   -1    0    0    0    0 -0.00000000000E+00 -0.00000000000E+00 -0.45593999997E+02  0.45594000000E+02  0.51100000000E-03 0.  1.
    9900012    2    1    2    0    0 -0.80253673786E+01  0.24311027591E+02 -0.31586919591E+02  0.50528854985E+02  0.29999985213E+02 0.  0.
         12    1    1    2    0    0  0.80253673786E+01 -0.24311027591E+02  0.31586919591E+02  0.40659145015E+02  0.00000000000E+00 0. -1.
         11    1    3    3    0    0 -0.24977956233E+01  0.40105062296E+01  0.19060228720E+01  0.50947096722E+01  0.51100000000E-03 0. -1.
        -11    1    3    3    0    0 -0.46491461089E+01 -0.16772165707E+01  0.47660628804E+00  0.49653568635E+01  0.51100000000E-03 0.  1.
        -12    1    3    3    0    0 -0.87842564634E+00  0.21977737932E+02 -0.33969548751E+02  0.40468788450E+02  0.00000000000E+00 0.  1.
</event>
<event>
 7    1  0.5843820E-012  0.5052886E+02  0.7816164E-02  0.1300439E+00
        -11   -1    0    0    0    0  0.00000000000E+00  0.00000000000E+00  0.45593999997E+02  0.45594000000E+02  0.51100000000E-03 0.  1.
         11   -1    0    0    0    0 -0.00000000000E+00 -0.00000000000E+00 -0.45593999997E+02  0.45594000000E+02  0.51100000000E-03 0. -1.
    9900012    2    1    2    0    0  0.11008450281E+00 -0.31684956211E+02 -0.25479742370E+02  0.50528857855E+02  0.29999993936E+02 0.  0.
         12    1    1    2    0    0 -0.11008450281E+00  0.31684956211E+02  0.25479742370E+02  0.40659142145E+02  0.00000000000E+00 0. -1.
         11    1    3    3    0    0 -0.95990734145E+01 -0.17529973526E+02 -0.21659926948E+02  0.29471929321E+02  0.51100000000E-03 0. -1.
        -11    1    3    3    0    0 -0.18531150446E+01  0.58115783669E+00 -0.72088355162E+00  0.20715822831E+01  0.51100000000E-03 0.  1.
         12    1    3    3    0    0  0.11562272962E+02 -0.14736140522E+02 -0.30989318700E+01  0.18985346251E+02  0.00000000000E+00 0. -1.
</event>
<event>
 7    1  0.5843820E-012  0.5052886E+02  0.7816164E-02  0.1300439E+00
        -11   -1    0    0    0    0  0.00000000000E+00  0.00000000000E+00  0.45593999997E+02  0.45594000000E+02  0.51100000000E-03 0. -1.
         11   -1    0    0    0    0 -0.00000000000E+00 -0.00000000000E+00 -0.45593999997E+02  0.45594000000E+02  0.51100000000E-03 0.  1.
    9900012    2    1    2    0    0 -0.12579011997E+02 -0.16942355265E+02 -0.34754725736E+02  0.50528857047E+02  0.29999991480E+02 0.  0.
         12    1    1    2    0    0  0.12579011997E+02  0.16942355265E+02  0.34754725736E+02  0.40659142953E+02  0.00000000000E+00 0. -1.
         11    1    3    3    0    0 -0.13885959651E+02 -0.12111982048E+02 -0.22638593220E+02  0.29189482486E+02  0.51100000000E-03 0. -1.
        -11    1    3    3    0    0 -0.69512107457E+01  0.48676045347E+00 -0.82120038812E+01  0.10770017390E+02  0.51100000000E-03 0.  1.
         12    1    3    3    0    0  0.82581583994E+01 -0.53171336703E+01 -0.39041286340E+01  0.10569357171E+02  0.00000000000E+00 0. -1.
</event>
<event>
 7    1  0.5843820E-012  0.5052886E+02  0.7816164E-02  0.1300439E+00
        -11   -1    0    0    0    0  0.00000000000E+00  0.00000000000E+00  0.45593999997E+02  0.45594000000E+02  0.51100000000E-03 0. -1.
         11   -1    0    0    0    0 -0.00000000000E+00 -0.00000000000E+00 -0.45593999997E+02  0.45594000000E+02  0.51100000000E-03 0.  1.
    9900012    2    1    2    0    0  0.17609952578E+02  0.22344277396E+02  0.29048033999E+02  0.50528862757E+02  0.30000008836E+02 0.  0.
        -12    1    1    2    0    0 -0.17609952578E+02 -0.22344277396E+02 -0.29048033999E+02  0.40659137243E+02  0.00000000000E+00 0.  1.
         11    1    3    3    0    0  0.84612138355E+01  0.11847676139E+02  0.27122352041E+02  0.30782812574E+02  0.51100000000E-03 0. -1.
        -11    1    3    3    0    0  0.15492205620E+01 -0.17795936049E+01  0.44992793295E+01  0.50804086937E+01  0.51100000000E-03 0.  1.
        -12    1    3    3    0    0  0.75995181806E+01  0.12276194861E+02 -0.25735973717E+01  0.14665641489E+02  0.00000000000E+00 0.  1.
</event>
<event>
 7    1  0.5843820E-012  0.5052886E+02  0.7816164E-02  0.1300439E+00
        -11   -1    0    0    0    0  0.00000000000E+00  0.00000000000E+00  0.45593999997E+02  0.45594000000E+02  0.51100000000E-03 0. -1.
         11   -1    0    0    0    0 -0.00000000000E+00 -0.00000000000E+00 -0.45593999997E+02  0.45594000000E+02  0.51100000000E-03 0.  1.
    9900012    2    1    2    0    0  0.30194603198E+02 -0.24919180623E+02  0.10976600944E+02  0.50528863345E+02  0.30000010624E+02 0.  0.
        -12    1    1    2    0    0 -0.30194603198E+02  0.24919180623E+02 -0.10976600944E+02  0.40659136655E+02  0.00000000000E+00 0.  1.
         11    1    3    3    0    0  0.48372537706E+01 -0.13876380259E+01  0.10958775504E+02  0.12058993496E+02  0.51100000000E-03 0. -1.
        -11    1    3    3    0    0 -0.87692708497E+00 -0.48920568638E+01  0.35313381087E+01  0.60968492330E+01  0.51100000000E-03 0.  1.
         12    1    3    3    0    0  0.26234276513E+02 -0.18639485733E+02 -0.35135126679E+01  0.32373020616E+02  0.00000000000E+00 0. -1.
</event>
<event>
 7    1  0.5843820E-012  0.5052885E+02  0.7816164E-02  0.1300439E+00
        -11   -1    0    0    0    0  0.00000000000E+00  0.00000000000E+00  0.45593999997E+02  0.45594000000E+02  0.51100000000E-03 0. -1.
         11   -1    0    0    0    0 -0.00000000000E+00 -0.00000000000E+00 -0.45593999997E+02  0.45594000000E+02  0.51100000000E-03 0.  1.
    9900012    2    1    2    0    0 -0.12307787376E+02  0.17578878719E+02  0.34535018243E+02  0.50528854754E+02  0.29999984510E+02 0.  0.
        -12    1    1    2    0    0  0.12307787376E+02 -0.17578878719E+02 -0.34535018243E+02  0.40659145246E+02  0.00000000000E+00 0.  1.
         11    1    3    3    0    0 -0.70410620126E+01 -0.30721265460E+01  0.14998145279E+01  0.78271297203E+01  0.51100000000E-03 0. -1.
        -11    1    3    3    0    0 -0.10408912502E+02  0.98119278995E+01  0.12893153476E+02  0.19257538664E+02  0.51100000000E-03 0.  1.
         12    1    3    3    0    0  0.51421871383E+01  0.10839077365E+02  0.20142050239E+02  0.23444186370E+02  0.00000000000E+00 0. -1.
</event>
<event>
 7    1  0.5843820E-012  0.5052886E+02  0.7816164E-02  0.1300439E+00
        -11   -1    0    0    0    0  0.00000000000E+00  0.00000000000E+00  0.45593999997E+02  0.45594000000E+02  0.51100000000E-03 0.  1.
         11   -1    0    0    0    0 -0.00000000000E+00 -0.00000000000E+00 -0.45593999997E+02  0.45594000000E+02  0.51100000000E-03 0. -1.
    9900012    2    1    2    0    0  0.40001266926E+01  0.35311424470E+02  0.19755195834E+02  0.50528862354E+02  0.30000007611E+02 0.  0.
        -12    1    1    2    0    0 -0.40001266926E+01 -0.35311424470E+02 -0.19755195834E+02  0.40659137646E+02  0.00000000000E+00 0.  1.
         11    1    3    3    0    0 -0.41010845046E+01  0.40720235580E+01  0.55009299622E+01  0.79787530781E+01  0.51100000000E-03 0. -1.
        -11    1    3    3    0    0 -0.95182857697E+00 -0.34546760575E+01  0.37511539226E+01  0.51876700275E+01  0.51100000000E-03 0.  1.
         12    1    3    3    0    0  0.90530397742E+01  0.34694076970E+02  0.10503111949E+02  0.37362439248E+02  0.00000000000E+00 0. -1.
</event>
<event>
 7    1  0.5843820E-012  0.5052886E+02  0.7816164E-02  0.1300439E+00
        -11   -1    0    0    0    0  0.00000000000E+00  0.00000000000E+00  0.45593999997E+02  0.45594000000E+02  0.51100000000E-03 0. -1.
         11   -1    0    0    0    0 -0.00000000000E+00 -0.00000000000E+00 -0.45593999997E+02  0.45594000000E+02  0.51100000000E-03 0.  1.
    9900012    2    1    2    0    0 -0.12731652768E+02 -0.22757986866E+01 -0.38547259036E+02  0.50528863006E+02  0.30000009594E+02 0.  0.
         12    1    1    2    0    0  0.12731652768E+02  0.22757986866E+01  0.38547259036E+02  0.40659136994E+02  0.00000000000E+00 0. -1.
         11    1    3    3    0    0 -0.53916959544E+01  0.11585750053E+01 -0.25757936093E+01  0.60866570699E+01  0.51100000000E-03 0. -1.
        -11    1    3    3    0    0  0.64534518110E+01  0.31390274393E+01 -0.24168401465E+01  0.75724269621E+01  0.51100000000E-03 0.  1.
        -12    1    3    3    0    0 -0.13793408624E+02 -0.65734011312E+01 -0.33554625280E+02  0.36869778974E+02  0.00000000000E+00 0.  1.
</event>
<event>
 7    1  0.5843820E-012  0.5052887E+02  0.7816164E-02  0.1300439E+00
        -11   -1    0    0    0    0  0.00000000000E+00  0.00000000000E+00  0.45593999997E+02  0.45594000000E+02  0.51100000000E-03 0.  1.
         11   -1    0    0    0    0 -0.00000000000E+00 -0.00000000000E+00 -0.45593999997E+02  0.45594000000E+02  0.51100000000E-03 0. -1.
    9900012    2    1    2    0    0  0.25371848163E+02  0.13766024857E+02 -0.28634435593E+02  0.50528867922E+02  0.30000024536E+02 0.  0.
         12    1    1    2    0    0 -0.25371848163E+02 -0.13766024857E+02  0.28634435593E+02  0.40659132078E+02  0.00000000000E+00 0. -1.
         11    1    3    3    0    0  0.92700745103E+01 -0.10871881109E+01 -0.21834947961E+02  0.23746183106E+02  0.51100000000E-03 0. -1.
        -11    1    3    3    0    0  0.91761052121E+01  0.86172993071E+00  0.11074831840E+01  0.92827800039E+01  0.51100000000E-03 0.  1.
         12    1    3    3    0    0  0.69256684411E+01  0.13991483037E+02 -0.79069708160E+01  0.17499904812E+02  0.00000000000E+00 0. -1.
</event>
<event>
 7    1  0.5843820E-012  0.5052886E+02  0.7816164E-02  0.1300439E+00
        -11   -1    0    0    0    0  0.00000000000E+00  0.00000000000E+00  0.45593999997E+02  0.45594000000E+02  0.51100000000E-03 0. -1.
         11   -1    0    0    0    0 -0.00000000000E+00 -0.00000000000E+00 -0.45593999997E+02  0.45594000000E+02  0.51100000000E-03 0.  1.
    9900012    2    1    2    0    0  0.20418262767E+01  0.21105846185E+02  0.34692072958E+02  0.50528859283E+02  0.29999998277E+02 0.  0.
        -12    1    1    2    0    0 -0.20418262767E+01 -0.21105846185E+02 -0.34692072958E+02  0.40659140717E+02  0.00000000000E+00 0.  1.
         11    1    3    3    0    0  0.35341431995E+01 -0.42503945083E+01  0.16700722877E+01  0.57745271095E+01  0.51100000000E-03 0. -1.
        -11    1    3    3    0    0 -0.82137935382E+00  0.12877866394E+02  0.45878561763E+01  0.13695347074E+02  0.51100000000E-03 0.  1.
         12    1    3    3    0    0 -0.67093756903E+00  0.12478374298E+02  0.28434144494E+02  0.31058985100E+02  0.00000000000E+00 0. -1.
</event>
<event>
 7    1  0.5843820E-012  0.5052886E+02  0.7816164E-02  0.1300439E+00
        -11   -1    0    0    0    0  0.00000000000E+00  0.00000000000E+00  0.45593999997E+02  0.45594000000E+02  0.51100000000E-03 0. -1.
         11   -1    0    0    0    0 -0.00000000000E+00 -0.00000000000E+00 -0.45593999997E+02  0.45594000000E+02  0.51100000000E-03 0.  1.
    9900012    2    1    2    0    0  0.33808943508E+02  0.10893486431E+02 -0.19785177345E+02  0.50528856498E+02  0.29999989812E+02 0.  0.
         12    1    1    2    0    0 -0.33808943508E+02 -0.10893486431E+02  0.19785177345E+02  0.40659143502E+02  0.00000000000E+00 0. -1.
         11    1    3    3    0    0  0.63036555329E+01  0.94432175863E+00 -0.82837795879E+01  0.10452216090E+02  0.51100000000E-03 0. -1.
        -11    1    3    3    0    0  0.68354625351E+01  0.17470114823E+00 -0.15429991071E+02  0.16877164847E+02  0.51100000000E-03 0.  1.
         12    1    3    3    0    0  0.20669825440E+02  0.97744635244E+01  0.39285933147E+01  0.23199475561E+02  0.00000000000E+00 0. -1.
</event>
<event>
 7    1  0.5843820E-012  0.5052886E+02  0.7816164E-02  0.1300439E+00
        -11   -1    0    0    0    0  0.00000000000E+00  0.00000000000E+00  0.45593999997E+02  0.45594000000E+02  0.51100000000E-03 0. -1.
         11   -1    0    0    0    0 -0.00000000000E+00 -0.00000000000E+00 -0.45593999997E+02  0.45594000000E+02  0.51100000000E-03 0.  1.
    9900012    2    1    2    0    0 -0.30720515636E+01  0.11028939074E+02 -0.39013978148E+02  0.50528862173E+02  0.30000007062E+02 0.  0.
         12    1    1    2    0    0  0.30720515636E+01 -0.11028939074E+02  0.39013978148E+02  0.40659137827E+02  0.00000000000E+00 0. -1.
         11    1    3    3    0    0 -0.54252408614E+01 -0.25597002176E+01 -0.10806373417E+01  0.60953327172E+01  0.51100000000E-03 0. -1.
        -11    1    3    3    0    0 -0.45654630640E+01  0.97022426896E+01 -0.33852739535E+02  0.35510349766E+02  0.51100000000E-03 0.  1.
         12    1    3    3    0    0  0.69186523618E+01  0.38863966020E+01 -0.40806012710E+01  0.89231796902E+01  0.00000000000E+00 0. -1.
</event>
<event>
 7    1  0.5843820E-012  0.5052886E+02  0.7816164E-02  0.1300439E+00
        -11   -1    0    0    0    0  0.00000000000E+00  0.00000000000E+00  0.45593999997E+02  0.45594000000E+02  0.51100000000E-03 0. -1.
         11   -1    0    0    0    0 -0.00000000000E+00 -0.00000000000E+00 -0.45593999997E+02  0.45594000000E+02  0.51100000000E-03 0.  1.
    9900012    2    1    2    0    0  0.35138784696E+02 -0.51829139818E+01 -0.19788101956E+02  0.50528858761E+02  0.29999996689E+02 0.  0.
         12    1    1    2    0    0 -0.35138784696E+02  0.51829139818E+01  0.19788101956E+02  0.40659141239E+02  0.00000000000E+00 0. -1.
         11    1    3    3    0    0  0.13877990820E+01 -0.27103124231E+01  0.13142367585E+01  0.33164737661E+01  0.51100000000E-03 0. -1.
        -11    1    3    3    0    0  0.98000268731E+01 -0.12821391072E+02 -0.84168809386E+01  0.18200892306E+02  0.51100000000E-03 0.  1.
        -12    1    3    3    0    0  0.23950958741E+02  0.10348789514E+02 -0.12685457776E+02  0.29011492689E+02  0.00000000000E+00 0.  1.
</event>
<event>
 7    1  0.5843820E-012  0.5052878E+02  0.7816164E-02  0.1300439E+00
        -11   -1    0    0    0    0  0.00000000000E+00  0.00000000000E+00  0.45593999997E+02  0.45594000000E+02  0.51100000000E-03 0. -1.
         11   -1    0    0    0    0 -0.00000000000E+00 -0.00000000000E+00 -0.45593999997E+02  0.45594000000E+02  0.51100000000E-03 0.  1.
    9900012    2    1    2    0    0  0.47498972212E+01 -0.34120670384E+02  0.21596083272E+02  0.50528776154E+02  0.29999745596E+02 0.  0.
        -12    1    1    2    0    0 -0.47498972212E+01  0.34120670384E+02 -0.21596083272E+02  0.40659223846E+02  0.00000000000E+00 0.  1.
         11    1    3    3    0    0  0.13389376450E+01 -0.28879430006E+02  0.84332095404E+01  0.30115332555E+02  0.51100000000E-03 0. -1.
        -11    1    3    3    0    0 -0.19175053273E+01 -0.34369146240E+01 -0.18737426055E+01  0.43589127573E+01  0.51100000000E-03 0.  1.
         12    1    3    3    0    0  0.53284649035E+01 -0.18043257539E+01  0.15036616337E+02  0.16054530841E+02  0.00000000000E+00 0. -1.
</event>
<event>
 7    1  0.5843820E-012  0.5052886E+02  0.7816164E-02  0.1300439E+00
        -11   -1    0    0    0    0  0.00000000000E+00  0.00000000000E+00  0.45593999997E+02  0.45594000000E+02  0.51100000000E-03 0.  1.
         11   -1    0    0    0    0 -0.00000000000E+00 -0.00000000000E+00 -0.45593999997E+02  0.45594000000E+02  0.51100000000E-03 0. -1.
    9900012    2    1    2    0    0  0.79747293817E+01 -0.34750990886E+02  0.19543236433E+02  0.50528858757E+02  0.29999996679E+02 0.  0.
        -12    1    1    2    0    0 -0.79747293817E+01  0.34750990886E+02 -0.19543236433E+02  0.40659141243E+02  0.00000000000E+00 0.  1.
         11    1    3    3    0    0  0.51323254636E+01 -0.85969049917E+01  0.70732239307E+01  0.12258794277E+02  0.51100000000E-03 0. -1.
        -11    1    3    3    0    0 -0.75646049795E+01 -0.12454226027E+02  0.14963030358E+02  0.20885958733E+02  0.51100000000E-03 0.  1.
         12    1    3    3    0    0  0.10407008898E+02 -0.13699859868E+02 -0.24930178561E+01  0.17384105747E+02  0.00000000000E+00 0. -1.
</event>
<event>
 7    1  0.5843820E-012  0.5052886E+02  0.7816164E-02  0.1300439E+00
        -11   -1    0    0    0    0  0.00000000000E+00  0.00000000000E+00  0.45593999997E+02  0.45594000000E+02  0.51100000000E-03 0. -1.
         11   -1    0    0    0    0 -0.00000000000E+00 -0.00000000000E+00 -0.45593999997E+02  0.45594000000E+02  0.51100000000E-03 0.  1.
    9900012    2    1    2    0    0  0.53485729178E+01 -0.26616034323E+02 -0.30267893789E+02  0.50528856997E+02  0.29999991327E+02 0.  0.
         12    1    1    2    0    0 -0.53485729178E+01  0.26616034323E+02  0.30267893789E+02  0.40659143003E+02  0.00000000000E+00 0. -1.
         11    1    3    3    0    0  0.29820018474E+01 -0.32229399195E+02 -0.23948053717E+02  0.40263330520E+02  0.51100000000E-03 0.  1.
        -11    1    3    3    0    0  0.20017597758E+01 -0.32551852640E+00 -0.90654003688E+00  0.22214453877E+01  0.51100000000E-03 0. -1.
        -12    1    3    3    0    0  0.36481129458E+00  0.59388833981E+01 -0.54133000346E+01  0.80440810886E+01  0.00000000000E+00 0.  1.
</event>
<event>
 7    1  0.5843820E-012  0.5052889E+02  0.7816164E-02  0.1300439E+00
        -11   -1    0    0    0    0  0.00000000000E+00  0.00000000000E+00  0.45593999997E+02  0.45594000000E+02  0.51100000000E-03 0. -1.
         11   -1    0    0    0    0 -0.00000000000E+00 -0.00000000000E+00 -0.45593999997E+02  0.45594000000E+02  0.51100000000E-03 0.  1.
    9900012    2    1    2    0    0  0.18227222474E+02 -0.15633897996E+02 -0.32810249246E+02  0.50528894486E+02  0.30000105278E+02 0.  0.
         12    1    1    2    0    0 -0.18227222474E+02  0.15633897996E+02  0.32810249246E+02  0.40659105514E+02  0.00000000000E+00 0. -1.
         11    1    3    3    0    0  0.66627509606E+01 -0.95560419300E+01 -0.34496524671E+02  0.36410443589E+02  0.51100000000E-03 0. -1.
        -11    1    3    3    0    0  0.27501410980E+01 -0.14035496404E+01 -0.17708984574E+01  0.35593973169E+01  0.51100000000E-03 0.  1.
         12    1    3    3    0    0  0.88143304157E+01 -0.46743064252E+01  0.34571738829E+01  0.10559053579E+02  0.00000000000E+00 0. -1.
</event>
<event>
 7    1  0.5843820E-012  0.5052896E+02  0.7816164E-02  0.1300438E+00
        -11   -1    0    0    0    0  0.00000000000E+00  0.00000000000E+00  0.45593999997E+02  0.45594000000E+02  0.51100000000E-03 0. -1.
         11   -1    0    0    0    0 -0.00000000000E+00 -0.00000000000E+00 -0.45593999997E+02  0.45594000000E+02  0.51100000000E-03 0.  1.
    9900012    2    1    2    0    0 -0.13321895034E+02 -0.23597331406E+02  0.30312552022E+02  0.50528957378E+02  0.30000296446E+02 0.  0.
        -12    1    1    2    0    0  0.13321895034E+02  0.23597331406E+02 -0.30312552022E+02  0.40659042622E+02  0.00000000000E+00 0.  1.
         11    1    3    3    0    0 -0.53779715859E+01  0.12500019392E+01  0.11778275215E+02  0.13008183982E+02  0.51100000000E-03 0. -1.
        -11    1    3    3    0    0 -0.75187965286E+01  0.76603309524E-01  0.26997436881E+01  0.79891667618E+01  0.51100000000E-03 0.  1.
         12    1    3    3    0    0 -0.42512691924E+00 -0.24923936655E+02  0.15834533120E+02  0.29531606634E+02  0.00000000000E+00 0. -1.
</event>
<event>
 7    1  0.5843820E-012  0.5052886E+02  0.7816164E-02  0.1300439E+00
        -11   -1    0    0    0    0  0.00000000000E+00  0.00000000000E+00  0.45593999997E+02  0.45594000000E+02  0.51100000000E-03 0. -1.
         11   -1    0    0    0    0 -0.00000000000E+00 -0.00000000000E+00 -0.45593999997E+02  0.45594000000E+02  0.51100000000E-03 0.  1.
    9900012    2    1    2    0    0 -0.18947259401E+02 -0.17955229599E+02  0.31173332646E+02  0.50528861089E+02  0.30000003766E+02 0.  0.
        -12    1    1    2    0    0  0.18947259401E+02  0.17955229599E+02 -0.31173332646E+02  0.40659138911E+02  0.00000000000E+00 0.  1.
         11    1    3    3    0    0 -0.11859729436E+01 -0.40827933503E+01 -0.54681446470E-01  0.42519082405E+01  0.51100000000E-03 0. -1.
        -11    1    3    3    0    0 -0.29448760071E+00 -0.11807151115E+02  0.17349933081E+01  0.11937576908E+02  0.51100000000E-03 0.  1.
         12    1    3    3    0    0 -0.17466798857E+02 -0.20652851331E+01  0.29493020784E+02  0.34339375940E+02  0.00000000000E+00 0. -1.
</event>
<event>
 7    1  0.5843820E-012  0.5052886E+02  0.7816164E-02  0.1300439E+00
        -11   -1    0    0    0    0  0.00000000000E+00  0.00000000000E+00  0.45593999997E+02  0.45594000000E+02  0.51100000000E-03 0. -1.
         11   -1    0    0    0    0 -0.00000000000E+00 -0.00000000000E+00 -0.45593999997E+02  0.45594000000E+02  0.51100000000E-03 0.  1.
    9900012    2    1    2    0    0 -0.22226792723E+02 -0.42274721919E+01  0.33782598729E+02  0.50528858189E+02  0.29999994951E+02 0.  0.
        -12    1    1    2    0    0  0.22226792723E+02  0.42274721919E+01 -0.33782598729E+02  0.40659141811E+02  0.00000000000E+00 0.  1.
         11    1    3    3    0    0 -0.66389396017E+01 -0.59669690862E+01  0.52801682557E+01  0.10371133794E+02  0.51100000000E-03 0. -1.
        -11    1    3    3    0    0 -0.75235261860E+01  0.87943016842E+01  0.22325034291E+01  0.11786740864E+02  0.51100000000E-03 0.  1.
         12    1    3    3    0    0 -0.80643269356E+01 -0.70548047899E+01  0.26269927045E+02  0.28370983530E+02  0.00000000000E+00 0. -1.
</event>
<event>
 7    1  0.5843820E-012  0.5052886E+02  0.7816164E-02  0.1300439E+00
        -11   -1    0    0    0    0  0.00000000000E+00  0.00000000000E+00  0.45593999997E+02  0.45594000000E+02  0.51100000000E-03 0. -1.
         11   -1    0    0    0    0 -0.00000000000E+00 -0.00000000000E+00 -0.45593999997E+02  0.45594000000E+02  0.51100000000E-03 0.  1.
    9900012    2    1    2    0    0 -0.46016824501E+01 -0.49093648466E+01  0.40098482645E+02  0.50528860130E+02  0.30000000851E+02 0.  0.
        -12    1    1    2    0    0  0.46016824501E+01  0.49093648466E+01 -0.40098482645E+02  0.40659139870E+02  0.00000000000E+00 0.  1.
         11    1    3    3    0    0 -0.68720350692E+01 -0.45519056682E+01  0.19976762773E+02  0.21610547479E+02  0.51100000000E-03 0. -1.
        -11    1    3    3    0    0 -0.83030231082E+01 -0.12058459252E+01  0.14889563942E+02  0.17090739357E+02  0.51100000000E-03 0.  1.
        -12    1    3    3    0    0  0.10573375727E+02  0.84838674673E+00  0.52321559294E+01  0.11827573293E+02  0.00000000000E+00 0.  1.
</event>
<event>
 7    1  0.5843820E-012  0.5052882E+02  0.7816164E-02  0.1300439E+00
        -11   -1    0    0    0    0  0.00000000000E+00  0.00000000000E+00  0.45593999997E+02  0.45594000000E+02  0.51100000000E-03 0. -1.
         11   -1    0    0    0    0 -0.00000000000E+00 -0.00000000000E+00 -0.45593999997E+02  0.45594000000E+02  0.51100000000E-03 0.  1.
    9900012    2    1    2    0    0 -0.18040018213E+02 -0.17432539112E+02  0.31997395249E+02  0.50528819245E+02  0.29999876575E+02 0.  0.
        -12    1    1    2    0    0  0.18040018213E+02  0.17432539112E+02 -0.31997395249E+02  0.40659180755E+02  0.00000000000E+00 0.  1.
         11    1    3    3    0    0 -0.10290734197E+02  0.12723226755E+01  0.78115679915E+01  0.12982242104E+02  0.51100000000E-03 0. -1.
        -11    1    3    3    0    0 -0.14489043273E+02 -0.10568646811E+02  0.12930265107E+02  0.22109283714E+02  0.51100000000E-03 0.  1.
        -12    1    3    3    0    0  0.67397592573E+01 -0.81362149764E+01  0.11255562151E+02  0.15437293426E+02  0.00000000000E+00 0.  1.
</event>
<event>
 7    1  0.5843820E-012  0.5052887E+02  0.7816164E-02  0.1300439E+00
        -11   -1    0    0    0    0  0.00000000000E+00  0.00000000000E+00  0.45593999997E+02  0.45594000000E+02  0.51100000000E-03 0. -1.
         11   -1    0    0    0    0 -0.00000000000E+00 -0.00000000000E+00 -0.45593999997E+02  0.45594000000E+02  0.51100000000E-03 0.  1.
    9900012    2    1    2    0    0  0.32893020517E+02 -0.20694171300E+01  0.23810331737E+02  0.50528865928E+02  0.30000018476E+02 0.  0.
        -12    1    1    2    0    0 -0.32893020517E+02  0.20694171300E+01 -0.23810331737E+02  0.40659134072E+02  0.00000000000E+00 0.  1.
         11    1    3    3    0    0  0.24314022219E+02  0.50411584432E+01  0.21590176632E+02  0.32904721275E+02  0.51100000000E-03 0. -1.
        -11    1    3    3    0    0  0.30096825831E+01 -0.39677117153E+00  0.70338672512E+01  0.76609989807E+01  0.51100000000E-03 0.  1.
         12    1    3    3    0    0  0.55693157154E+01 -0.67138044017E+01 -0.48137121457E+01  0.99631456731E+01  0.00000000000E+00 0. -1.
</event>
<event>
 7    1  0.9242316E-012  0.5052886E+02  0.7816164E-02  0.1300439E+00
        -11   -1    0    0    0    0  0.00000000000E+00  0.00000000000E+00  0.45593999997E+02  0.45594000000E+02  0.51100000000E-03 0. -1.
         11   -1    0    0    0    0 -0.00000000000E+00 -0.00000000000E+00 -0.45593999997E+02  0.45594000000E+02  0.51100000000E-03 0.  1.
    9900012    2    1    2    0    0  0.67688344112E+01  0.36134510792E+01 -0.39928578868E+02  0.50528861317E+02  0.30000004460E+02 0.  0.
         12    1    1    2    0    0 -0.67688344112E+01 -0.36134510792E+01  0.39928578868E+02  0.40659138683E+02  0.00000000000E+00 0. -1.
         11    1    3    3    0    0  0.30676931939E+01 -0.17354238683E+01  0.10560776620E+01  0.36793664976E+01  0.51100000000E-03 0. -1.
        -11    1    3    3    0    0 -0.47560237316E+01  0.12782739719E+01 -0.12573752254E+00  0.49264141389E+01  0.51100000000E-03 0.  1.
        -12    1    3    3    0    0  0.84571649489E+01  0.40706009757E+01 -0.40858919008E+02  0.41923080681E+02  0.00000000000E+00 0.  1.
</event>
<event>
 7    1  0.5843820E-012  0.5052887E+02  0.7816164E-02  0.1300439E+00
        -11   -1    0    0    0    0  0.00000000000E+00  0.00000000000E+00  0.45593999997E+02  0.45594000000E+02  0.51100000000E-03 0. -1.
         11   -1    0    0    0    0 -0.00000000000E+00 -0.00000000000E+00 -0.45593999997E+02  0.45594000000E+02  0.51100000000E-03 0.  1.
    9900012    2    1    2    0    0  0.31484356544E+02 -0.15160017046E+02 -0.20786388865E+02  0.50528870817E+02  0.30000033336E+02 0.  0.
         12    1    1    2    0    0 -0.31484356544E+02  0.15160017046E+02  0.20786388865E+02  0.40659129183E+02  0.00000000000E+00 0. -1.
         11    1    3    3    0    0  0.12823409101E+01  0.28783761034E+01 -0.74334974858E+01  0.80738053194E+01  0.51100000000E-03 0. -1.
        -11    1    3    3    0    0  0.21133407937E+02 -0.14526152516E+02 -0.18338418858E+02  0.31526618030E+02  0.51100000000E-03 0.  1.
         12    1    3    3    0    0  0.90686076970E+01 -0.35122406334E+01  0.49855274781E+01  0.10928447468E+02  0.00000000000E+00 0. -1.
</event>
<event>
 7    1  0.5843820E-012  0.5052886E+02  0.7816164E-02  0.1300439E+00
        -11   -1    0    0    0    0  0.00000000000E+00  0.00000000000E+00  0.45593999997E+02  0.45594000000E+02  0.51100000000E-03 0. -1.
         11   -1    0    0    0    0 -0.00000000000E+00 -0.00000000000E+00 -0.45593999997E+02  0.45594000000E+02  0.51100000000E-03 0.  1.
    9900012    2    1    2    0    0  0.94987540756E+01  0.25078004640E+02 -0.30561954573E+02  0.50528859416E+02  0.29999998681E+02 0.  0.
         12    1    1    2    0    0 -0.94987540756E+01 -0.25078004640E+02  0.30561954573E+02  0.40659140584E+02  0.00000000000E+00 0. -1.
         11    1    3    3    0    0 -0.31404804628E+01 -0.41359719385E+01 -0.18901811110E+00  0.51965959551E+01  0.51100000000E-03 0. -1.
        -11    1    3    3    0    0  0.19475115438E+01 -0.47501181741E+00 -0.10840406344E+01  0.22789431318E+01  0.51100000000E-03 0.  1.
        -12    1    3    3    0    0  0.10691722995E+02  0.29688988396E+02 -0.29288895827E+02  0.43053320329E+02  0.00000000000E+00 0.  1.
</event>
<event>
 7    1  0.5843820E-012  0.5052886E+02  0.7816164E-02  0.1300439E+00
        -11   -1    0    0    0    0  0.00000000000E+00  0.00000000000E+00  0.45593999997E+02  0.45594000000E+02  0.51100000000E-03 0. -1.
         11   -1    0    0    0    0 -0.00000000000E+00 -0.00000000000E+00 -0.45593999997E+02  0.45594000000E+02  0.51100000000E-03 0.  1.
    9900012    2    1    2    0    0 -0.35264484083E+02  0.18482947087E+02  0.82439237598E+01  0.50528862655E+02  0.30000008527E+02 0.  0.
        -12    1    1    2    0    0  0.35264484083E+02 -0.18482947087E+02 -0.82439237598E+01  0.40659137345E+02  0.00000000000E+00 0.  1.
         11    1    3    3    0    0 -0.12987319467E+02  0.10823023482E+02  0.61184498744E+01  0.17978980320E+02  0.51100000000E-03 0. -1.
        -11    1    3    3    0    0 -0.70315616042E+01  0.28279504011E+01  0.11677587244E+02  0.13921429746E+02  0.51100000000E-03 0.  1.
         12    1    3    3    0    0 -0.15245603012E+02  0.48319732032E+01 -0.95521133586E+01  0.18628452589E+02  0.00000000000E+00 0. -1.
</event>
<event>
 7    1  0.5843820E-012  0.5052886E+02  0.7816164E-02  0.1300439E+00
        -11   -1    0    0    0    0  0.00000000000E+00  0.00000000000E+00  0.45593999997E+02  0.45594000000E+02  0.51100000000E-03 0. -1.
         11   -1    0    0    0    0 -0.00000000000E+00 -0.00000000000E+00 -0.45593999997E+02  0.45594000000E+02  0.51100000000E-03 0.  1.
    9900012    2    1    2    0    0  0.48742409628E+01  0.14025868205E+02  0.37850793613E+02  0.50528858580E+02  0.29999996141E+02 0.  0.
        -12    1    1    2    0    0 -0.48742409628E+01 -0.14025868205E+02 -0.37850793613E+02  0.40659141420E+02  0.00000000000E+00 0.  1.
         11    1    3    3    0    0  0.31155658691E+01  0.81160860153E+01  0.15809390083E+02  0.18042018123E+02  0.51100000000E-03 0. -1.
        -11    1    3    3    0    0  0.68660918438E+01  0.12887118193E+02  0.17252331747E+02  0.22602300403E+02  0.51100000000E-03 0.  1.
        -12    1    3    3    0    0 -0.51074167501E+01 -0.69773360028E+01  0.47890717824E+01  0.98845400547E+01  0.00000000000E+00 0.  1.
</event>
<event>
 7    1  0.5843820E-012  0.5052885E+02  0.7816164E-02  0.1300439E+00
        -11   -1    0    0    0    0  0.00000000000E+00  0.00000000000E+00  0.45593999997E+02  0.45594000000E+02  0.51100000000E-03 0. -1.
         11   -1    0    0    0    0 -0.00000000000E+00 -0.00000000000E+00 -0.45593999997E+02  0.45594000000E+02  0.51100000000E-03 0.  1.
    9900012    2    1    2    0    0 -0.93049532179E+01  0.16543220970E+02  0.35957006289E+02  0.50528848315E+02  0.29999964939E+02 0.  0.
        -12    1    1    2    0    0  0.93049532179E+01 -0.16543220970E+02 -0.35957006289E+02  0.40659151685E+02  0.00000000000E+00 0.  1.
         11    1    3    3    0    0  0.20253632597E+01  0.43340310372E+01  0.50056501819E+00  0.48100402248E+01  0.51100000000E-03 0. -1.
        -11    1    3    3    0    0 -0.81560825078E+00  0.17196092226E+02  0.21738250839E+02  0.27729449227E+02  0.51100000000E-03 0.  1.
        -12    1    3    3    0    0 -0.10514708227E+02 -0.49869022932E+01  0.13718190432E+02  0.17989358863E+02  0.00000000000E+00 0.  1.
</event>
<event>
 7    1  0.5843820E-012  0.5052886E+02  0.7816164E-02  0.1300439E+00
        -11   -1    0    0    0    0  0.00000000000E+00  0.00000000000E+00  0.45593999997E+02  0.45594000000E+02  0.51100000000E-03 0. -1.
         11   -1    0    0    0    0 -0.00000000000E+00 -0.00000000000E+00 -0.45593999997E+02  0.45594000000E+02  0.51100000000E-03 0.  1.
    9900012    2    1    2    0    0 -0.11979003345E+02  0.35640310312E+02 -0.15473754046E+02  0.50528864439E+02  0.30000013949E+02 0.  0.
         12    1    1    2    0    0  0.11979003345E+02 -0.35640310312E+02  0.15473754046E+02  0.40659135561E+02  0.00000000000E+00 0. -1.
         11    1    3    3    0    0 -0.12004810328E+01  0.36015713759E+01  0.65440954910E+01  0.75655572922E+01  0.51100000000E-03 0. -1.
        -11    1    3    3    0    0 -0.63846104691E+01  0.32027040308E+01 -0.14939070710E+01  0.72974188964E+01  0.51100000000E-03 0.  1.
         12    1    3    3    0    0 -0.43939118426E+01  0.28836034906E+02 -0.20523942466E+02  0.35665888251E+02  0.00000000000E+00 0. -1.
</event>
<event>
 7    1  0.5843820E-012  0.5052889E+02  0.7816164E-02  0.1300439E+00
        -11   -1    0    0    0    0  0.00000000000E+00  0.00000000000E+00  0.45593999997E+02  0.45594000000E+02  0.51100000000E-03 0. -1.
         11   -1    0    0    0    0 -0.00000000000E+00 -0.00000000000E+00 -0.45593999997E+02  0.45594000000E+02  0.51100000000E-03 0.  1.
    9900012    2    1    2    0    0  0.69066917584E+01 -0.31090495613E+02  0.25275317565E+02  0.50528892944E+02  0.30000100593E+02 0.  0.
        -12    1    1    2    0    0 -0.69066917584E+01  0.31090495613E+02 -0.25275317565E+02  0.40659107056E+02  0.00000000000E+00 0.  1.
         11    1    3    3    0    0 -0.25403270913E+01 -0.24174765698E+01  0.17347862805E+02  0.17698751336E+02  0.51100000000E-03 0. -1.
        -11    1    3    3    0    0 -0.12084198294E+01 -0.51069114644E+00 -0.72765376839E+00  0.15001880545E+01  0.51100000000E-03 0.  1.
        -12    1    3    3    0    0  0.10655438679E+02 -0.28162327897E+02  0.86551085288E+01  0.31329953554E+02  0.00000000000E+00 0.  1.
</event>
<event>
 7    1  0.5843820E-012  0.5052877E+02  0.7816164E-02  0.1300439E+00
        -11   -1    0    0    0    0  0.00000000000E+00  0.00000000000E+00  0.45593999997E+02  0.45594000000E+02  0.51100000000E-03 0.  1.
         11   -1    0    0    0    0 -0.00000000000E+00 -0.00000000000E+00 -0.45593999997E+02  0.45594000000E+02  0.51100000000E-03 0. -1.
    9900012    2    1    2    0    0 -0.13384241073E+02 -0.33182106215E+02 -0.19312757310E+02  0.50528773779E+02  0.29999738378E+02 0.  0.
         12    1    1    2    0    0  0.13384241073E+02  0.33182106215E+02  0.19312757310E+02  0.40659226221E+02  0.00000000000E+00 0. -1.
         11    1    3    3    0    0 -0.58023223269E+01 -0.70213445973E+01 -0.13588230462E+02  0.16358674509E+02  0.51100000000E-03 0. -1.
        -11    1    3    3    0    0  0.16871352796E+01  0.18317387721E+01 -0.38990033679E+01  0.46264370637E+01  0.51100000000E-03 0.  1.
        -12    1    3    3    0    0 -0.92690540253E+01 -0.27992500390E+02 -0.18255234803E+01  0.29543662207E+02  0.00000000000E+00 0.  1.
</event>
<event>
 7    1  0.5843820E-012  0.5052886E+02  0.7816164E-02  0.1300439E+00
        -11   -1    0    0    0    0  0.00000000000E+00  0.00000000000E+00  0.45593999997E+02  0.45594000000E+02  0.51100000000E-03 0. -1.
         11   -1    0    0    0    0 -0.00000000000E+00 -0.00000000000E+00 -0.45593999997E+02  0.45594000000E+02  0.51100000000E-03 0.  1.
    9900012    2    1    2    0    0  0.23726887383E+02  0.19972893762E+01 -0.32957721795E+02  0.50528858646E+02  0.29999996341E+02 0.  0.
         12    1    1    2    0    0 -0.23726887383E+02 -0.19972893762E+01  0.32957721795E+02  0.40659141354E+02  0.00000000000E+00 0. -1.
         11    1    3    3    0    0  0.16981679392E+02  0.11767059399E+02 -0.26187628276E+02  0.33356153808E+02  0.51100000000E-03 0. -1.
        -11    1    3    3    0    0  0.22066191240E+01  0.10562993554E+01 -0.46352498237E+01  0.52412286227E+01  0.51100000000E-03 0.  1.
         12    1    3    3    0    0  0.45385888668E+01 -0.10826069378E+02 -0.21348436946E+01  0.11931476215E+02  0.00000000000E+00 0. -1.
</event>
<event>
 7    1  0.5843820E-012  0.5052882E+02  0.7816164E-02  0.1300439E+00
        -11   -1    0    0    0    0  0.00000000000E+00  0.00000000000E+00  0.45593999997E+02  0.45594000000E+02  0.51100000000E-03 0. -1.
         11   -1    0    0    0    0 -0.00000000000E+00 -0.00000000000E+00 -0.45593999997E+02  0.45594000000E+02  0.51100000000E-03 0.  1.
    9900012    2    1    2    0    0  0.48932201427E+01 -0.38916678413E+01  0.40175619554E+02  0.50528817907E+02  0.29999872510E+02 0.  0.
        -12    1    1    2    0    0 -0.48932201427E+01  0.38916678413E+01 -0.40175619554E+02  0.40659182093E+02  0.00000000000E+00 0.  1.
         11    1    3    3    0    0  0.13056781228E+01 -0.59719340032E+00 -0.11752464011E+01  0.18554351733E+01  0.51100000000E-03 0. -1.
        -11    1    3    3    0    0 -0.68656131747E+01 -0.36486556443E+01  0.21009051138E+01  0.80537652582E+01  0.51100000000E-03 0.  1.
         12    1    3    3    0    0  0.10453155195E+02  0.35418120336E+00  0.39249960841E+02  0.40619617476E+02  0.00000000000E+00 0. -1.
</event>
<event>
 7    1  0.5843820E-012  0.5052886E+02  0.7816164E-02  0.1300439E+00
        -11   -1    0    0    0    0  0.00000000000E+00  0.00000000000E+00  0.45593999997E+02  0.45594000000E+02  0.51100000000E-03 0. -1.
         11   -1    0    0    0    0 -0.00000000000E+00 -0.00000000000E+00 -0.45593999997E+02  0.45594000000E+02  0.51100000000E-03 0.  1.
    9900012    2    1    2    0    0 -0.27112255476E+02  0.16771641447E+02  0.25234959597E+02  0.50528861548E+02  0.30000005160E+02 0.  0.
        -12    1    1    2    0    0  0.27112255476E+02 -0.16771641447E+02 -0.25234959597E+02  0.40659138452E+02  0.00000000000E+00 0.  1.
         11    1    3    3    0    0 -0.38841114569E+01  0.63296816604E+01  0.57043311230E+01  0.93643251521E+01  0.51100000000E-03 0. -1.
        -11    1    3    3    0    0  0.55514127930E+00  0.10604458177E+02  0.12419565372E+02  0.16340389205E+02  0.51100000000E-03 0.  1.
        -12    1    3    3    0    0 -0.23783285298E+02 -0.16249839017E+00  0.71110631020E+01  0.24824147191E+02  0.00000000000E+00 0.  1.
</event>
<event>
 7    1  0.5843820E-012  0.5052886E+02  0.7816164E-02  0.1300439E+00
        -11   -1    0    0    0    0  0.00000000000E+00  0.00000000000E+00  0.45593999997E+02  0.45594000000E+02  0.51100000000E-03 0. -1.
         11   -1    0    0    0    0 -0.00000000000E+00 -0.00000000000E+00 -0.45593999997E+02  0.45594000000E+02  0.51100000000E-03 0.  1.
    9900012    2    1    2    0    0  0.53646446780E+01  0.26272863756E+02  0.30563429630E+02  0.50528855725E+02  0.29999987461E+02 0.  0.
        -12    1    1    2    0    0 -0.53646446780E+01 -0.26272863756E+02 -0.30563429630E+02  0.40659144275E+02  0.00000000000E+00 0.  1.
         11    1    3    3    0    0  0.82988052257E+01  0.14418161152E+02  0.64543806206E+01  0.17844118601E+02  0.51100000000E-03 0. -1.
        -11    1    3    3    0    0  0.44259511447E+01  0.11988940281E+02  0.82799283759E+01  0.15227637597E+02  0.51100000000E-03 0.  1.
        -12    1    3    3    0    0 -0.73601116924E+01 -0.13423767733E+00  0.15829120633E+02  0.17457099527E+02  0.00000000000E+00 0.  1.
</event>
<event>
 7    1  0.5843820E-012  0.5052886E+02  0.7816164E-02  0.1300439E+00
        -11   -1    0    0    0    0  0.00000000000E+00  0.00000000000E+00  0.45593999997E+02  0.45594000000E+02  0.51100000000E-03 0. -1.
         11   -1    0    0    0    0 -0.00000000000E+00 -0.00000000000E+00 -0.45593999997E+02  0.45594000000E+02  0.51100000000E-03 0.  1.
    9900012    2    1    2    0    0 -0.12138547110E+02 -0.17398156986E+02 -0.34686098313E+02  0.50528860700E+02  0.30000002584E+02 0.  0.
         12    1    1    2    0    0  0.12138547110E+02  0.17398156986E+02  0.34686098313E+02  0.40659139300E+02  0.00000000000E+00 0. -1.
         11    1    3    3    0    0 -0.20061455271E+01 -0.10996872780E+02 -0.19942493040E+02  0.22861733524E+02  0.51100000000E-03 0. -1.
        -11    1    3    3    0    0 -0.14705003037E+02 -0.74495466075E+01 -0.56339709359E+01  0.17420519158E+02  0.51100000000E-03 0.  1.
         12    1    3    3    0    0  0.45726014542E+01  0.10482624017E+01 -0.91096343368E+01  0.10246608018E+02  0.00000000000E+00 0. -1.
</event>
<event>
 7    1  0.5843820E-012  0.5052874E+02  0.7816164E-02  0.1300439E+00
        -11   -1    0    0    0    0  0.00000000000E+00  0.00000000000E+00  0.45593999997E+02  0.45594000000E+02  0.51100000000E-03 0. -1.
         11   -1    0    0    0    0 -0.00000000000E+00 -0.00000000000E+00 -0.45593999997E+02  0.45594000000E+02  0.51100000000E-03 0.  1.
    9900012    2    1    2    0    0  0.69977786918E+01  0.64437248663E+01  0.39530809056E+02  0.50528740766E+02  0.29999638032E+02 0.  0.
        -12    1    1    2    0    0 -0.69977786918E+01 -0.64437248663E+01 -0.39530809056E+02  0.40659259234E+02  0.00000000000E+00 0.  1.
         11    1    3    3    0    0  0.35600092503E+01  0.13784244252E+02  0.19170197393E+02  0.23878348431E+02  0.51100000000E-03 0. -1.
        -11    1    3    3    0    0  0.67254809669E+01  0.10241991497E+01  0.37599908762E+01  0.77729408710E+01  0.51100000000E-03 0.  1.
         12    1    3    3    0    0 -0.32877115254E+01 -0.83647185357E+01  0.16600620787E+02  0.18877451464E+02  0.00000000000E+00 0. -1.
</event>
<event>
 7    1  0.5843820E-012  0.5052883E+02  0.7816164E-02  0.1300439E+00
        -11   -1    0    0    0    0  0.00000000000E+00  0.00000000000E+00  0.45593999997E+02  0.45594000000E+02  0.51100000000E-03 0. -1.
         11   -1    0    0    0    0 -0.00000000000E+00 -0.00000000000E+00 -0.45593999997E+02  0.45594000000E+02  0.51100000000E-03 0.  1.
    9900012    2    1    2    0    0  0.22368703569E+02 -0.25570810110E+02 -0.22337028610E+02  0.50528830355E+02  0.29999910348E+02 0.  0.
         12    1    1    2    0    0 -0.22368703569E+02  0.25570810110E+02  0.22337028610E+02  0.40659169645E+02  0.00000000000E+00 0. -1.
         11    1    3    3    0    0  0.25005302026E+01 -0.25319760507E+01 -0.98367457641E+01  0.10460646323E+02  0.51100000000E-03 0. -1.
        -11    1    3    3    0    0  0.88578112697E+01 -0.51743976880E+01 -0.15787224373E+02  0.18827417921E+02  0.51100000000E-03 0.  1.
         12    1    3    3    0    0  0.11010362097E+02 -0.17864436371E+02  0.32869415267E+01  0.21240766111E+02  0.00000000000E+00 0. -1.
</event>
<event>
 7    1  0.5843820E-012  0.5052887E+02  0.7816164E-02  0.1300439E+00
        -11   -1    0    0    0    0  0.00000000000E+00  0.00000000000E+00  0.45593999997E+02  0.45594000000E+02  0.51100000000E-03 0. -1.
         11   -1    0    0    0    0 -0.00000000000E+00 -0.00000000000E+00 -0.45593999997E+02  0.45594000000E+02  0.51100000000E-03 0.  1.
    9900012    2    1    2    0    0  0.71040776107E+01 -0.25594263068E+02 -0.30783611226E+02  0.50528868912E+02  0.30000027545E+02 0.  0.
         12    1    1    2    0    0 -0.71040776107E+01  0.25594263068E+02  0.30783611226E+02  0.40659131088E+02  0.00000000000E+00 0. -1.
         11    1    3    3    0    0 -0.48126056103E+01 -0.30541650891E+01 -0.13168822710E+02  0.14349459536E+02  0.51100000000E-03 0. -1.
        -11    1    3    3    0    0  0.32768034059E+01 -0.10456370734E+02 -0.18276731851E+02  0.21309905136E+02  0.51100000000E-03 0.  1.
        -12    1    3    3    0    0  0.86398798152E+01 -0.12083727245E+02  0.66194333503E+00  0.14869504240E+02  0.00000000000E+00 0.  1.
</event>
<event>
 7    1  0.5843820E-012  0.5052886E+02  0.7816164E-02  0.1300439E+00
        -11   -1    0    0    0    0  0.00000000000E+00  0.00000000000E+00  0.45593999997E+02  0.45594000000E+02  0.51100000000E-03 0. -1.
         11   -1    0    0    0    0 -0.00000000000E+00 -0.00000000000E+00 -0.45593999997E+02  0.45594000000E+02  0.51100000000E-03 0.  1.
    9900012    2    1    2    0    0 -0.34185484402E+02  0.21675265770E+02 -0.38342448190E+01  0.50528856830E+02  0.29999990819E+02 0.  0.
         12    1    1    2    0    0  0.34185484402E+02 -0.21675265770E+02  0.38342448190E+01  0.40659143170E+02  0.00000000000E+00 0. -1.
         11    1    3    3    0    0 -0.90960121028E+01  0.13245690198E+02  0.25019812930E+01  0.16261785131E+02  0.51100000000E-03 0. -1.
        -11    1    3    3    0    0 -0.16241359618E+02  0.15063703830E+02 -0.68778044975E+01  0.23194851375E+02  0.51100000000E-03 0.  1.
         12    1    3    3    0    0 -0.88481126815E+01 -0.66341282576E+01  0.54157838554E+00  0.11072220324E+02  0.00000000000E+00 0. -1.
</event>
<event>
 7    1  0.5843820E-012  0.5052886E+02  0.7816164E-02  0.1300439E+00
        -11   -1    0    0    0    0  0.00000000000E+00  0.00000000000E+00  0.45593999997E+02  0.45594000000E+02  0.51100000000E-03 0. -1.
         11   -1    0    0    0    0 -0.00000000000E+00 -0.00000000000E+00 -0.45593999997E+02  0.45594000000E+02  0.51100000000E-03 0.  1.
    9900012    2    1    2    0    0 -0.39159142983E+02 -0.48932319814E+01  0.97869078380E+01  0.50528858796E+02  0.29999996797E+02 0.  0.
        -12    1    1    2    0    0  0.39159142983E+02  0.48932319814E+01 -0.97869078380E+01  0.40659141204E+02  0.00000000000E+00 0.  1.
         11    1    3    3    0    0 -0.23340569080E+02  0.33066958131E+01 -0.40362619199E+00  0.23577093047E+02  0.51100000000E-03 0. -1.
        -11    1    3    3    0    0 -0.47007373655E+01 -0.58566087299E+01 -0.42093885580E+01  0.86090504637E+01  0.51100000000E-03 0.  1.
        -12    1    3    3    0    0 -0.11117836538E+02 -0.23433190647E+01  0.14399922588E+02  0.18342715286E+02  0.00000000000E+00 0.  1.
</event>
<event>
 7    1  0.5843820E-012  0.5052886E+02  0.7816164E-02  0.1300439E+00
        -11   -1    0    0    0    0  0.00000000000E+00  0.00000000000E+00  0.45593999997E+02  0.45594000000E+02  0.51100000000E-03 0. -1.
         11   -1    0    0    0    0 -0.00000000000E+00 -0.00000000000E+00 -0.45593999997E+02  0.45594000000E+02  0.51100000000E-03 0.  1.
    9900012    2    1    2    0    0 -0.74417982158E+01  0.33507443368E+02  0.21795335748E+02  0.50528858567E+02  0.29999996099E+02 0.  0.
        -12    1    1    2    0    0  0.74417982158E+01 -0.33507443368E+02 -0.21795335748E+02  0.40659141433E+02  0.00000000000E+00 0.  1.
         11    1    3    3    0    0 -0.46831622943E+01  0.61752509941E+01 -0.44256155127E+01  0.89247860951E+01  0.51100000000E-03 0. -1.
        -11    1    3    3    0    0 -0.71951749559E+01  0.43176715936E+01  0.39583372014E+01  0.92779989382E+01  0.51100000000E-03 0.  1.
        -12    1    3    3    0    0  0.44365390344E+01  0.23014520780E+02  0.22262614059E+02  0.32326073533E+02  0.00000000000E+00 0.  1.
</event>
<event>
 7    1  0.6981824E-012  0.5052886E+02  0.7816164E-02  0.1300439E+00
        -11   -1    0    0    0    0  0.00000000000E+00  0.00000000000E+00  0.45593999997E+02  0.45594000000E+02  0.51100000000E-03 0. -1.
         11   -1    0    0    0    0 -0.00000000000E+00 -0.00000000000E+00 -0.45593999997E+02  0.45594000000E+02  0.51100000000E-03 0.  1.
    9900012    2    1    2    0    0  0.44765076097E-01 -0.74097305774E+00 -0.40652366019E+02  0.50528857019E+02  0.29999991395E+02 0.  0.
         12    1    1    2    0    0 -0.44765076097E-01  0.74097305774E+00  0.40652366019E+02  0.40659142981E+02  0.00000000000E+00 0. -1.
         11    1    3    3    0    0  0.46213214130E+01  0.54902252789E+00 -0.60257870891E+00  0.46926686118E+01  0.51100000000E-03 0. -1.
        -11    1    3    3    0    0  0.45450457220E+01 -0.73398631108E+01 -0.73002446600E+01  0.11305954336E+02  0.51100000000E-03 0.  1.
        -12    1    3    3    0    0 -0.91216020590E+01  0.60498675251E+01 -0.32749542650E+02  0.34530234071E+02  0.00000000000E+00 0.  1.
</event>
<event>
 7    1  0.5843820E-012  0.5052889E+02  0.7816164E-02  0.1300439E+00
        -11   -1    0    0    0    0  0.00000000000E+00  0.00000000000E+00  0.45593999997E+02  0.45594000000E+02  0.51100000000E-03 0. -1.
         11   -1    0    0    0    0 -0.00000000000E+00 -0.00000000000E+00 -0.45593999997E+02  0.45594000000E+02  0.51100000000E-03 0.  1.
    9900012    2    1    2    0    0 -0.50768203264E+01  0.10704434487E+02  0.38894787690E+02  0.50528886240E+02  0.30000080214E+02 0.  0.
        -12    1    1    2    0    0  0.50768203264E+01 -0.10704434487E+02 -0.38894787690E+02  0.40659113760E+02  0.00000000000E+00 0.  1.
         11    1    3    3    0    0 -0.83277201859E+00 -0.41787215445E+01  0.86250722576E+01  0.96201400557E+01  0.51100000000E-03 0. -1.
        -11    1    3    3    0    0  0.49665216557E+01 -0.38760253038E+01  0.45620647080E+01  0.77783252807E+01  0.51100000000E-03 0.  1.
        -12    1    3    3    0    0 -0.92105699636E+01  0.18759181336E+02  0.25707650725E+02  0.33130420903E+02  0.00000000000E+00 0.  1.
</event>
<event>
 7    1  0.5843820E-012  0.5052889E+02  0.7816164E-02  0.1300439E+00
        -11   -1    0    0    0    0  0.00000000000E+00  0.00000000000E+00  0.45593999997E+02  0.45594000000E+02  0.51100000000E-03 0. -1.
         11   -1    0    0    0    0 -0.00000000000E+00 -0.00000000000E+00 -0.45593999997E+02  0.45594000000E+02  0.51100000000E-03 0.  1.
    9900012    2    1    2    0    0 -0.31857693289E+02  0.20212767087E+02 -0.15155668456E+02  0.50528894484E+02  0.30000105274E+02 0.  0.
         12    1    1    2    0    0  0.31857693289E+02 -0.20212767087E+02  0.15155668456E+02  0.40659105516E+02  0.00000000000E+00 0. -1.
         11    1    3    3    0    0 -0.35024853700E+01  0.88130315462E+01  0.21574825050E+01  0.97258243775E+01  0.51100000000E-03 0.  1.
        -11    1    3    3    0    0 -0.53725341870E+01 -0.98587147711E-01  0.45667256785E+01  0.70518668946E+01  0.51100000000E-03 0. -1.
        -12    1    3    3    0    0 -0.22982673732E+02  0.11498322688E+02 -0.21879876639E+02  0.33751203212E+02  0.00000000000E+00 0.  1.
</event>
<event>
 7    1  0.5843820E-012  0.5052885E+02  0.7816164E-02  0.1300439E+00
        -11   -1    0    0    0    0  0.00000000000E+00  0.00000000000E+00  0.45593999997E+02  0.45594000000E+02  0.51100000000E-03 0. -1.
         11   -1    0    0    0    0 -0.00000000000E+00 -0.00000000000E+00 -0.45593999997E+02  0.45594000000E+02  0.51100000000E-03 0.  1.
    9900012    2    1    2    0    0 -0.69919739912E+01  0.91456400671E+00  0.40043001875E+02  0.50528854328E+02  0.29999983216E+02 0.  0.
        -12    1    1    2    0    0  0.69919739912E+01 -0.91456400671E+00 -0.40043001875E+02  0.40659145672E+02  0.00000000000E+00 0.  1.
         11    1    3    3    0    0  0.23265225155E+01  0.99632887956E+01  0.11488071925E+02  0.15383615552E+02  0.51100000000E-03 0. -1.
        -11    1    3    3    0    0  0.42729607183E-01  0.31747373828E+01  0.12516417452E+02  0.12912842032E+02  0.51100000000E-03 0.  1.
        -12    1    3    3    0    0 -0.93612261139E+01 -0.12223462172E+02  0.16038512499E+02  0.22232396744E+02  0.00000000000E+00 0.  1.
</event>
<event>
 7    1  0.5843820E-012  0.5052885E+02  0.7816164E-02  0.1300439E+00
        -11   -1    0    0    0    0  0.00000000000E+00  0.00000000000E+00  0.45593999997E+02  0.45594000000E+02  0.51100000000E-03 0. -1.
         11   -1    0    0    0    0 -0.00000000000E+00 -0.00000000000E+00 -0.45593999997E+02  0.45594000000E+02  0.51100000000E-03 0.  1.
    9900012    2    1    2    0    0 -0.33376956592E+02  0.14739206888E+02  0.17941594903E+02  0.50528852460E+02  0.29999977538E+02 0.  0.
        -12    1    1    2    0    0  0.33376956592E+02 -0.14739206888E+02 -0.17941594903E+02  0.40659147540E+02  0.00000000000E+00 0.  1.
         11    1    3    3    0    0 -0.24480034583E+02  0.10384727926E+02  0.13635381594E+02  0.29883746398E+02  0.51100000000E-03 0. -1.
        -11    1    3    3    0    0 -0.90833371789E+01  0.17094237156E+01 -0.53171739371E+01  0.10663089734E+02  0.51100000000E-03 0.  1.
         12    1    3    3    0    0  0.18641517062E+00  0.26450552470E+01  0.96233872467E+01  0.99820163281E+01  0.00000000000E+00 0. -1.
</event>
<event>
 7    1  0.5843820E-012  0.5052887E+02  0.7816164E-02  0.1300439E+00
        -11   -1    0    0    0    0  0.00000000000E+00  0.00000000000E+00  0.45593999997E+02  0.45594000000E+02  0.51100000000E-03 0.  1.
         11   -1    0    0    0    0 -0.00000000000E+00 -0.00000000000E+00 -0.45593999997E+02  0.45594000000E+02  0.51100000000E-03 0. -1.
    9900012    2    1    2    0    0  0.37563106041E+02 -0.11906017629E+01  0.15516462464E+02  0.50528867257E+02  0.30000022514E+02 0.  0.
        -12    1    1    2    0    0 -0.37563106041E+02  0.11906017629E+01 -0.15516462464E+02  0.40659132743E+02  0.00000000000E+00 0.  1.
         11    1    3    3    0    0  0.14477883297E+02 -0.71407415186E+00  0.11943488219E+02  0.18782063725E+02  0.51100000000E-03 0. -1.
        -11    1    3    3    0    0  0.77637597554E+01  0.27908175412E+01  0.11528615645E+02  0.14176516040E+02  0.51100000000E-03 0.  1.
        -12    1    3    3    0    0  0.15321462988E+02 -0.32673451522E+01 -0.79556414005E+01  0.17570287492E+02  0.00000000000E+00 0.  1.
</event>
<event>
 7    1  0.5843820E-012  0.5052875E+02  0.7816164E-02  0.1300439E+00
        -11   -1    0    0    0    0  0.00000000000E+00  0.00000000000E+00  0.45593999997E+02  0.45594000000E+02  0.51100000000E-03 0. -1.
         11   -1    0    0    0    0 -0.00000000000E+00 -0.00000000000E+00 -0.45593999997E+02  0.45594000000E+02  0.51100000000E-03 0.  1.
    9900012    2    1    2    0    0  0.99000349438E+01  0.17322088811E+02 -0.35427520495E+02  0.50528749379E+02  0.29999664210E+02 0.  0.
         12    1    1    2    0    0 -0.99000349438E+01 -0.17322088811E+02  0.35427520495E+02  0.40659250621E+02  0.00000000000E+00 0. -1.
         11    1    3    3    0    0  0.20048787023E+01  0.13917852203E+02 -0.77830365636E+01  0.16071770499E+02  0.51100000000E-03 0. -1.
        -11    1    3    3    0    0  0.10925258636E+01  0.10315409642E+02 -0.18031570003E+02  0.20802375006E+02  0.51100000000E-03 0.  1.
        -12    1    3    3    0    0  0.68026303779E+01 -0.69111730344E+01 -0.96129139283E+01  0.13654603874E+02  0.00000000000E+00 0.  1.
</event>
<event>
 7    1  0.5843820E-012  0.5052886E+02  0.7816164E-02  0.1300439E+00
        -11   -1    0    0    0    0  0.00000000000E+00  0.00000000000E+00  0.45593999997E+02  0.45594000000E+02  0.51100000000E-03 0. -1.
         11   -1    0    0    0    0 -0.00000000000E+00 -0.00000000000E+00 -0.45593999997E+02  0.45594000000E+02  0.51100000000E-03 0.  1.
    9900012    2    1    2    0    0 -0.15238127110E+02 -0.14808153681E+02  0.34665305144E+02  0.50528864323E+02  0.30000013597E+02 0.  0.
        -12    1    1    2    0    0  0.15238127110E+02  0.14808153681E+02 -0.34665305144E+02  0.40659135677E+02  0.00000000000E+00 0.  1.
         11    1    3    3    0    0 -0.21209077868E+01 -0.16316304387E+02  0.11687848705E+02  0.20182315187E+02  0.51100000000E-03 0. -1.
        -11    1    3    3    0    0 -0.13816945840E+02 -0.37453780829E+01  0.18609095731E+02  0.23478379278E+02  0.51100000000E-03 0.  1.
        -12    1    3    3    0    0  0.69972651688E+00  0.52535287886E+01  0.43683607078E+01  0.68681698585E+01  0.00000000000E+00 0.  1.
</event>
<event>
 7    1  0.5843820E-012  0.5052885E+02  0.7816164E-02  0.1300439E+00
        -11   -1    0    0    0    0  0.00000000000E+00  0.00000000000E+00  0.45593999997E+02  0.45594000000E+02  0.51100000000E-03 0. -1.
         11   -1    0    0    0    0 -0.00000000000E+00 -0.00000000000E+00 -0.45593999997E+02  0.45594000000E+02  0.51100000000E-03 0.  1.
    9900012    2    1    2    0    0  0.73667225774E+01 -0.21569382092E+02  0.33669865434E+02  0.50528847479E+02  0.29999962396E+02 0.  0.
        -12    1    1    2    0    0 -0.73667225774E+01  0.21569382092E+02 -0.33669865434E+02  0.40659152521E+02  0.00000000000E+00 0.  1.
         11    1    3    3    0    0  0.73224085013E+01 -0.16796594865E+02  0.38120308020E+02  0.42295403404E+02  0.51100000000E-03 0. -1.
        -11    1    3    3    0    0  0.89491689006E+00 -0.42531590361E+01 -0.76186172050E+00  0.44125583926E+01  0.51100000000E-03 0.  1.
        -12    1    3    3    0    0 -0.85060281399E+00 -0.51962819153E+00 -0.36885808646E+01  0.38208856825E+01  0.00000000000E+00 0.  1.
</event>
<event>
 7    1  0.5843820E-012  0.5052888E+02  0.7816164E-02  0.1300439E+00
        -11   -1    0    0    0    0  0.00000000000E+00  0.00000000000E+00  0.45593999997E+02  0.45594000000E+02  0.51100000000E-03 0. -1.
         11   -1    0    0    0    0 -0.00000000000E+00 -0.00000000000E+00 -0.45593999997E+02  0.45594000000E+02  0.51100000000E-03 0.  1.
    9900012    2    1    2    0    0 -0.66637876779E+01  0.18420711431E+02 -0.35629138614E+02  0.50528878094E+02  0.30000055453E+02 0.  0.
         12    1    1    2    0    0  0.66637876779E+01 -0.18420711431E+02  0.35629138614E+02  0.40659121906E+02  0.00000000000E+00 0. -1.
         11    1    3    3    0    0 -0.10278162685E+02  0.30493571972E+01 -0.15265629661E+02  0.18654186038E+02  0.51100000000E-03 0. -1.
        -11    1    3    3    0    0  0.19476770837E+01  0.15094537092E+02 -0.23681954328E+02  0.28150905084E+02  0.51100000000E-03 0.  1.
        -12    1    3    3    0    0  0.16666979238E+01  0.27681714240E+00  0.33184453755E+01  0.37237869716E+01  0.00000000000E+00 0.  1.
</event>
<event>
 7    1  0.5843820E-012  0.5052884E+02  0.7816164E-02  0.1300439E+00
        -11   -1    0    0    0    0  0.00000000000E+00  0.00000000000E+00  0.45593999997E+02  0.45594000000E+02  0.51100000000E-03 0. -1.
         11   -1    0    0    0    0 -0.00000000000E+00 -0.00000000000E+00 -0.45593999997E+02  0.45594000000E+02  0.51100000000E-03 0.  1.
    9900012    2    1    2    0    0 -0.90833900180E+01  0.11192035256E+02  0.38018383118E+02  0.50528842578E+02  0.29999947500E+02 0.  0.
        -12    1    1    2    0    0  0.90833900180E+01 -0.11192035256E+02 -0.38018383118E+02  0.40659157422E+02  0.00000000000E+00 0.  1.
         11    1    3    3    0    0 -0.43745716287E+01 -0.27435751850E+01  0.14841967780E+02  0.15714582068E+02  0.51100000000E-03 0. -1.
        -11    1    3    3    0    0 -0.83537035942E+01  0.10924061693E+00  0.17571089317E+02  0.19456091007E+02  0.51100000000E-03 0.  1.
        -12    1    3    3    0    0  0.36448852049E+01  0.13826369824E+02  0.56053260211E+01  0.15358169502E+02  0.00000000000E+00 0.  1.
</event>
<event>
 7    1  0.5843820E-012  0.5052886E+02  0.7816164E-02  0.1300439E+00
        -11   -1    0    0    0    0  0.00000000000E+00  0.00000000000E+00  0.45593999997E+02  0.45594000000E+02  0.51100000000E-03 0. -1.
         11   -1    0    0    0    0 -0.00000000000E+00 -0.00000000000E+00 -0.45593999997E+02  0.45594000000E+02  0.51100000000E-03 0.  1.
    9900012    2    1    2    0    0  0.95584974999E+01 -0.11342591072E+02  0.37856922312E+02  0.50528858179E+02  0.29999994922E+02 0.  0.
        -12    1    1    2    0    0 -0.95584974999E+01  0.11342591072E+02 -0.37856922312E+02  0.40659141821E+02  0.00000000000E+00 0.  1.
         11    1    3    3    0    0 -0.10992267500E+00 -0.29862453638E+01  0.10995215205E+02  0.11394055557E+02  0.51100000000E-03 0. -1.
        -11    1    3    3    0    0 -0.51947971511E+01  0.40897255350E+01  0.15038826137E+02  0.16427965919E+02  0.51100000000E-03 0.  1.
        -12    1    3    3    0    0  0.14863217326E+02 -0.12446071243E+02  0.11822880970E+02  0.22706836704E+02  0.00000000000E+00 0.  1.
</event>
<event>
 7    1  0.5843820E-012  0.5052885E+02  0.7816164E-02  0.1300439E+00
        -11   -1    0    0    0    0  0.00000000000E+00  0.00000000000E+00  0.45593999997E+02  0.45594000000E+02  0.51100000000E-03 0. -1.
         11   -1    0    0    0    0 -0.00000000000E+00 -0.00000000000E+00 -0.45593999997E+02  0.45594000000E+02  0.51100000000E-03 0.  1.
    9900012    2    1    2    0    0  0.11574534071E+02 -0.12919270610E+02  0.36773479876E+02  0.50528853252E+02  0.29999979946E+02 0.  0.
        -12    1    1    2    0    0 -0.11574534071E+02  0.12919270610E+02 -0.36773479876E+02  0.40659146748E+02  0.00000000000E+00 0.  1.
         11    1    3    3    0    0  0.10293491657E+02 -0.26007289364E+01  0.19097372470E+02  0.21850157826E+02  0.51100000000E-03 0. -1.
        -11    1    3    3    0    0  0.21714858127E+00 -0.11862063812E+02  0.21423121829E+02  0.24488892595E+02  0.51100000000E-03 0.  1.
        -12    1    3    3    0    0  0.10638938324E+01  0.15435221383E+01 -0.37470144229E+01  0.41898028312E+01  0.00000000000E+00 0.  1.
</event>
<event>
 7    1  0.5843820E-012  0.5052886E+02  0.7816164E-02  0.1300439E+00
        -11   -1    0    0    0    0  0.00000000000E+00  0.00000000000E+00  0.45593999997E+02  0.45594000000E+02  0.51100000000E-03 0. -1.
         11   -1    0    0    0    0 -0.00000000000E+00 -0.00000000000E+00 -0.45593999997E+02  0.45594000000E+02  0.51100000000E-03 0.  1.
    9900012    2    1    2    0    0 -0.19074675991E+02  0.16120613584E+02 -0.32085015753E+02  0.50528859793E+02  0.29999999828E+02 0.  0.
         12    1    1    2    0    0  0.19074675991E+02 -0.16120613584E+02  0.32085015753E+02  0.40659140207E+02  0.00000000000E+00 0. -1.
         11    1    3    3    0    0 -0.34137036304E+01 -0.24244646571E+00 -0.16707359439E+00  0.34263780603E+01  0.51100000000E-03 0. -1.
        -11    1    3    3    0    0  0.54254739763E+01 -0.27875464323E+01 -0.66738025362E+01  0.90413396979E+01  0.51100000000E-03 0.  1.
        -12    1    3    3    0    0 -0.21086446337E+02  0.19150606482E+02 -0.25244139622E+02  0.38061142035E+02  0.00000000000E+00 0.  1.
</event>
<event>
 7    1  0.5843820E-012  0.5052886E+02  0.7816164E-02  0.1300439E+00
        -11   -1    0    0    0    0  0.00000000000E+00  0.00000000000E+00  0.45593999997E+02  0.45594000000E+02  0.51100000000E-03 0. -1.
         11   -1    0    0    0    0 -0.00000000000E+00 -0.00000000000E+00 -0.45593999997E+02  0.45594000000E+02  0.51100000000E-03 0.  1.
    9900012    2    1    2    0    0 -0.25649029519E+02 -0.28996979547E+02  0.12428512525E+02  0.50528862507E+02  0.30000008077E+02 0.  0.
        -12    1    1    2    0    0  0.25649029519E+02  0.28996979547E+02 -0.12428512525E+02  0.40659137493E+02  0.00000000000E+00 0.  1.
         11    1    3    3    0    0 -0.17976598710E+01 -0.19740507251E+01  0.71720683317E+01  0.76529093613E+01  0.51100000000E-03 0. -1.
        -11    1    3    3    0    0 -0.96404761458E+01  0.21134291541E+01  0.32734937428E+01  0.10398130825E+02  0.51100000000E-03 0.  1.
         12    1    3    3    0    0 -0.14210893502E+02 -0.29136357976E+02  0.19829504503E+01  0.32477822321E+02  0.00000000000E+00 0. -1.
</event>
<event>
 7    1  0.5843820E-012  0.5052886E+02  0.7816164E-02  0.1300439E+00
        -11   -1    0    0    0    0  0.00000000000E+00  0.00000000000E+00  0.45593999997E+02  0.45594000000E+02  0.51100000000E-03 0. -1.
         11   -1    0    0    0    0 -0.00000000000E+00 -0.00000000000E+00 -0.45593999997E+02  0.45594000000E+02  0.51100000000E-03 0.  1.
    9900012    2    1    2    0    0 -0.25746284664E+02  0.18793732495E+01  0.31412775918E+02  0.50528859470E+02  0.29999998844E+02 0.  0.
        -12    1    1    2    0    0  0.25746284664E+02 -0.18793732495E+01 -0.31412775918E+02  0.40659140530E+02  0.00000000000E+00 0.  1.
         11    1    3    3    0    0 -0.59467198000E+00 -0.54734383420E+00  0.83740991881E+01  0.84130112035E+01  0.51100000000E-03 0. -1.
        -11    1    3    3    0    0 -0.20750270093E+01 -0.86792005357E+01  0.99137167849E+01  0.13338517151E+02  0.51100000000E-03 0.  1.
         12    1    3    3    0    0 -0.23076585675E+02  0.11105917619E+02  0.13124959945E+02  0.28777331115E+02  0.00000000000E+00 0. -1.
</event>
<event>
 7    1  0.5843820E-012  0.5052887E+02  0.7816164E-02  0.1300439E+00
        -11   -1    0    0    0    0  0.00000000000E+00  0.00000000000E+00  0.45593999997E+02  0.45594000000E+02  0.51100000000E-03 0. -1.
         11   -1    0    0    0    0 -0.00000000000E+00 -0.00000000000E+00 -0.45593999997E+02  0.45594000000E+02  0.51100000000E-03 0.  1.
    9900012    2    1    2    0    0 -0.15424382574E+02  0.32294954688E+02 -0.19294800412E+02  0.50528868196E+02  0.30000025369E+02 0.  0.
         12    1    1    2    0    0  0.15424382574E+02 -0.32294954688E+02  0.19294800412E+02  0.40659131804E+02  0.00000000000E+00 0. -1.
         11    1    3    3    0    0  0.46970507034E-01 -0.99505681300E+00  0.30644308814E+01  0.32222788796E+01  0.51100000000E-03 0. -1.
        -11    1    3    3    0    0 -0.10641743449E+02  0.85832711390E+01 -0.53603078903E-01  0.13671946483E+02  0.51100000000E-03 0.  1.
        -12    1    3    3    0    0 -0.48296096319E+01  0.24706740362E+02 -0.22305628214E+02  0.33634642834E+02  0.00000000000E+00 0.  1.
</event>
<event>
 7    1  0.5843820E-012  0.5052876E+02  0.7816164E-02  0.1300439E+00
        -11   -1    0    0    0    0  0.00000000000E+00  0.00000000000E+00  0.45593999997E+02  0.45594000000E+02  0.51100000000E-03 0. -1.
         11   -1    0    0    0    0 -0.00000000000E+00 -0.00000000000E+00 -0.45593999997E+02  0.45594000000E+02  0.51100000000E-03 0.  1.
    9900012    2    1    2    0    0 -0.19563993805E+02 -0.17017274414E+02 -0.31318302431E+02  0.50528763051E+02  0.29999705770E+02 0.  0.
         12    1    1    2    0    0  0.19563993805E+02  0.17017274414E+02  0.31318302431E+02  0.40659236949E+02  0.00000000000E+00 0. -1.
         11    1    3    3    0    0 -0.14101701464E+01 -0.88827255930E+01 -0.73100227010E+01  0.11589988177E+02  0.51100000000E-03 0. -1.
        -11    1    3    3    0    0 -0.13056120104E+02 -0.16379769461E+02 -0.16997698120E+02  0.26975560446E+02  0.51100000000E-03 0.  1.
         12    1    3    3    0    0 -0.50977035546E+01  0.82452206397E+01 -0.70105816101E+01  0.11963214428E+02  0.00000000000E+00 0. -1.
</event>
<event>
 7    1  0.5843820E-012  0.5052886E+02  0.7816164E-02  0.1300439E+00
        -11   -1    0    0    0    0  0.00000000000E+00  0.00000000000E+00  0.45593999997E+02  0.45594000000E+02  0.51100000000E-03 0. -1.
         11   -1    0    0    0    0 -0.00000000000E+00 -0.00000000000E+00 -0.45593999997E+02  0.45594000000E+02  0.51100000000E-03 0.  1.
    9900012    2    1    2    0    0 -0.34771608528E+02  0.20563397147E+02 -0.46095040385E+01  0.50528860937E+02  0.30000003305E+02 0.  0.
         12    1    1    2    0    0  0.34771608528E+02 -0.20563397147E+02  0.46095040385E+01  0.40659139063E+02  0.00000000000E+00 0. -1.
         11    1    3    3    0    0 -0.89741074108E+01  0.72957588321E+01  0.48569006500E+01  0.12544009923E+02  0.51100000000E-03 0. -1.
        -11    1    3    3    0    0 -0.15938139867E+02  0.60255471138E+01  0.61786555406E+01  0.18124770481E+02  0.51100000000E-03 0.  1.
        -12    1    3    3    0    0 -0.98593612501E+01  0.72420912012E+01 -0.15645060229E+02  0.19860080533E+02  0.00000000000E+00 0.  1.
</event>
<event>
 7    1  0.5843820E-012  0.5052886E+02  0.7816164E-02  0.1300439E+00
        -11   -1    0    0    0    0  0.00000000000E+00  0.00000000000E+00  0.45593999997E+02  0.45594000000E+02  0.51100000000E-03 0. -1.
         11   -1    0    0    0    0 -0.00000000000E+00 -0.00000000000E+00 -0.45593999997E+02  0.45594000000E+02  0.51100000000E-03 0.  1.
    9900012    2    1    2    0    0  0.92559558068E-01  0.28482564837E+02 -0.29015520982E+02  0.50528861731E+02  0.30000005718E+02 0.  0.
         12    1    1    2    0    0 -0.92559558068E-01 -0.28482564837E+02  0.29015520982E+02  0.40659138269E+02  0.00000000000E+00 0. -1.
         11    1    3    3    0    0 -0.23839776960E+00  0.28186933459E+01 -0.15300339484E+01  0.32160332428E+01  0.51100000000E-03 0. -1.
        -11    1    3    3    0    0  0.93762078264E+01  0.23094936206E+02 -0.88692068109E+01  0.26456609406E+02  0.51100000000E-03 0.  1.
         12    1    3    3    0    0 -0.90452504988E+01  0.25689352849E+01 -0.18616280222E+02  0.20856219082E+02  0.00000000000E+00 0. -1.
</event>
<event>
 7    1  0.5843820E-012  0.5052886E+02  0.7816164E-02  0.1300439E+00
        -11   -1    0    0    0    0  0.00000000000E+00  0.00000000000E+00  0.45593999997E+02  0.45594000000E+02  0.51100000000E-03 0. -1.
         11   -1    0    0    0    0 -0.00000000000E+00 -0.00000000000E+00 -0.45593999997E+02  0.45594000000E+02  0.51100000000E-03 0.  1.
    9900012    2    1    2    0    0  0.28604097681E+02 -0.21223577355E+02  0.19609453693E+02  0.50528864322E+02  0.30000013594E+02 0.  0.
        -12    1    1    2    0    0 -0.28604097681E+02  0.21223577355E+02 -0.19609453693E+02  0.40659135678E+02  0.00000000000E+00 0.  1.
         11    1    3    3    0    0  0.89005247992E+01 -0.18298197927E+02  0.10923832407E+02  0.23094880467E+02  0.51100000000E-03 0. -1.
        -11    1    3    3    0    0  0.86306820585E+01 -0.96421796440E+01  0.29651220581E+01  0.13276002793E+02  0.51100000000E-03 0.  1.
        -12    1    3    3    0    0  0.11072890824E+02  0.67168002158E+01  0.57204992278E+01  0.14157981062E+02  0.00000000000E+00 0.  1.
</event>
<event>
 7    1  0.5843820E-012  0.5052886E+02  0.7816164E-02  0.1300439E+00
        -11   -1    0    0    0    0  0.00000000000E+00  0.00000000000E+00  0.45593999997E+02  0.45594000000E+02  0.51100000000E-03 0. -1.
         11   -1    0    0    0    0 -0.00000000000E+00 -0.00000000000E+00 -0.45593999997E+02  0.45594000000E+02  0.51100000000E-03 0.  1.
    9900012    2    1    2    0    0  0.83366950019E+01  0.47242742572E+01 -0.39513878587E+02  0.50528857710E+02  0.29999993495E+02 0.  0.
         12    1    1    2    0    0 -0.83366950019E+01 -0.47242742572E+01  0.39513878587E+02  0.40659142290E+02  0.00000000000E+00 0. -1.
         11    1    3    3    0    0 -0.95319535946E+01 -0.25656161112E+01 -0.96779327204E+01  0.13823997517E+02  0.51100000000E-03 0. -1.
        -11    1    3    3    0    0  0.19918373536E+01 -0.15127561248E+01 -0.75915595482E+01  0.79929733999E+01  0.51100000000E-03 0.  1.
        -12    1    3    3    0    0  0.15876811243E+02  0.88026464932E+01 -0.22244386318E+02  0.28711886793E+02  0.00000000000E+00 0.  1.
</event>
<event>
 7    1  0.5843820E-012  0.5052885E+02  0.7816164E-02  0.1300439E+00
        -11   -1    0    0    0    0  0.00000000000E+00  0.00000000000E+00  0.45593999997E+02  0.45594000000E+02  0.51100000000E-03 0. -1.
         11   -1    0    0    0    0 -0.00000000000E+00 -0.00000000000E+00 -0.45593999997E+02  0.45594000000E+02  0.51100000000E-03 0.  1.
    9900012    2    1    2    0    0 -0.98037675307E+01  0.25399252923E+01 -0.39377677424E+02  0.50528849030E+02  0.29999967110E+02 0.  0.
         12    1    1    2    0    0  0.98037675307E+01 -0.25399252923E+01  0.39377677424E+02  0.40659150970E+02  0.00000000000E+00 0. -1.
         11    1    3    3    0    0 -0.67556353480E+01 -0.74033567205E+01 -0.74318568276E+01  0.12477211061E+02  0.51100000000E-03 0. -1.
        -11    1    3    3    0    0 -0.14976455592E+01 -0.39264102853E+01 -0.13346900852E+01  0.44091992282E+01  0.51100000000E-03 0.  1.
        -12    1    3    3    0    0 -0.15504866235E+01  0.13869692298E+02 -0.30611130512E+02  0.33642438741E+02  0.00000000000E+00 0.  1.
</event>
<event>
 7    1  0.5843820E-012  0.5052886E+02  0.7816164E-02  0.1300439E+00
        -11   -1    0    0    0    0  0.00000000000E+00  0.00000000000E+00  0.45593999997E+02  0.45594000000E+02  0.51100000000E-03 0. -1.
         11   -1    0    0    0    0 -0.00000000000E+00 -0.00000000000E+00 -0.45593999997E+02  0.45594000000E+02  0.51100000000E-03 0.  1.
    9900012    2    1    2    0    0  0.16312309232E+02 -0.30142042662E+02  0.21875357319E+02  0.50528862944E+02  0.30000009404E+02 0.  0.
        -12    1    1    2    0    0 -0.16312309232E+02  0.30142042662E+02 -0.21875357319E+02  0.40659137056E+02  0.00000000000E+00 0.  1.
         11    1    3    3    0    0  0.78995005433E+01  0.18603017137E+01  0.61880648086E+01  0.10205634602E+02  0.51100000000E-03 0. -1.
        -11    1    3    3    0    0  0.11258298800E+01 -0.20322077722E+02  0.12763007984E+01  0.20393216516E+02  0.51100000000E-03 0.  1.
        -12    1    3    3    0    0  0.72869788090E+01 -0.11680266654E+02  0.14410991712E+02  0.19930011826E+02  0.00000000000E+00 0.  1.
</event>
<event>
 7    1  0.5843820E-012  0.5052887E+02  0.7816164E-02  0.1300439E+00
        -11   -1    0    0    0    0  0.00000000000E+00  0.00000000000E+00  0.45593999997E+02  0.45594000000E+02  0.51100000000E-03 0. -1.
         11   -1    0    0    0    0 -0.00000000000E+00 -0.00000000000E+00 -0.45593999997E+02  0.45594000000E+02  0.51100000000E-03 0.  1.
    9900012    2    1    2    0    0 -0.24404638979E+02  0.27216105544E+02 -0.17800628805E+02  0.50528865841E+02  0.30000018212E+02 0.  0.
         12    1    1    2    0    0  0.24404638979E+02 -0.27216105544E+02  0.17800628805E+02  0.40659134159E+02  0.00000000000E+00 0. -1.
         11    1    3    3    0    0 -0.66840046338E+01 -0.30775540629E+01 -0.37231447043E+00  0.73678949016E+01  0.51100000000E-03 0. -1.
        -11    1    3    3    0    0  0.49433532763E-01  0.39814635384E+01 -0.96968079979E+01  0.10482489265E+02  0.51100000000E-03 0.  1.
         12    1    3    3    0    0 -0.17770067878E+02  0.26312196069E+02 -0.77315063363E+01  0.32678481675E+02  0.00000000000E+00 0. -1.
</event>
<event>
 7    1  0.5843820E-012  0.5052886E+02  0.7816164E-02  0.1300439E+00
        -11   -1    0    0    0    0  0.00000000000E+00  0.00000000000E+00  0.45593999997E+02  0.45594000000E+02  0.51100000000E-03 0. -1.
         11   -1    0    0    0    0 -0.00000000000E+00 -0.00000000000E+00 -0.45593999997E+02  0.45594000000E+02  0.51100000000E-03 0.  1.
    9900012    2    1    2    0    0 -0.20723766468E+02  0.19127448354E+02 -0.29288772457E+02  0.50528856266E+02  0.29999989107E+02 0.  0.
         12    1    1    2    0    0  0.20723766468E+02 -0.19127448354E+02  0.29288772457E+02  0.40659143734E+02  0.00000000000E+00 0. -1.
         11    1    3    3    0    0  0.44914504506E+01  0.52419165895E+01 -0.63517564359E+00  0.69321183660E+01  0.51100000000E-03 0. -1.
        -11    1    3    3    0    0 -0.54399490273E+01  0.66275067833E+01 -0.18116729706E+02  0.20043272864E+02  0.51100000000E-03 0.  1.
         12    1    3    3    0    0 -0.19775267891E+02  0.72580249812E+01 -0.10536867107E+02  0.23553465036E+02  0.00000000000E+00 0. -1.
</event>
<event>
 7    1  0.5843820E-012  0.5052886E+02  0.7816164E-02  0.1300439E+00
        -11   -1    0    0    0    0  0.00000000000E+00  0.00000000000E+00  0.45593999997E+02  0.45594000000E+02  0.51100000000E-03 0. -1.
         11   -1    0    0    0    0 -0.00000000000E+00 -0.00000000000E+00 -0.45593999997E+02  0.45594000000E+02  0.51100000000E-03 0.  1.
    9900012    2    1    2    0    0  0.21656549931E+02  0.94623584674E+01 -0.33085088433E+02  0.50528862536E+02  0.30000008164E+02 0.  0.
         12    1    1    2    0    0 -0.21656549931E+02 -0.94623584674E+01  0.33085088433E+02  0.40659137464E+02  0.00000000000E+00 0. -1.
         11    1    3    3    0    0 -0.65681288891E+01  0.31946420139E+00 -0.37003166305E+01  0.75455097844E+01  0.51100000000E-03 0. -1.
        -11    1    3    3    0    0  0.98154041754E+00  0.14601283427E+01 -0.60456818283E+01  0.62964803977E+01  0.51100000000E-03 0.  1.
         12    1    3    3    0    0  0.27243138403E+02  0.76827659233E+01 -0.23339089974E+02  0.36686872354E+02  0.00000000000E+00 0. -1.
</event>
<event>
 7    1  0.5843820E-012  0.5052885E+02  0.7816164E-02  0.1300439E+00
        -11   -1    0    0    0    0  0.00000000000E+00  0.00000000000E+00  0.45593999997E+02  0.45594000000E+02  0.51100000000E-03 0. -1.
         11   -1    0    0    0    0 -0.00000000000E+00 -0.00000000000E+00 -0.45593999997E+02  0.45594000000E+02  0.51100000000E-03 0.  1.
    9900012    2    1    2    0    0  0.11742411817E+02  0.43091967122E+01 -0.38687380509E+02  0.50528845775E+02  0.29999957219E+02 0.  0.
         12    1    1    2    0    0 -0.11742411817E+02 -0.43091967122E+01  0.38687380509E+02  0.40659154225E+02  0.00000000000E+00 0. -1.
         11    1    3    3    0    0 -0.61706088670E+00 -0.24996478879E+00 -0.15058063823E+02  0.15072774558E+02  0.51100000000E-03 0. -1.
        -11    1    3    3    0    0 -0.42353325215E+01 -0.55153150519E+01 -0.73746303977E+01  0.10136168677E+02  0.51100000000E-03 0.  1.
         12    1    3    3    0    0  0.16594805225E+02  0.10074476553E+02 -0.16254686289E+02  0.25319902540E+02  0.00000000000E+00 0. -1.
</event>
<event>
 7    1  0.5843820E-012  0.5052883E+02  0.7816164E-02  0.1300439E+00
        -11   -1    0    0    0    0  0.00000000000E+00  0.00000000000E+00  0.45593999997E+02  0.45594000000E+02  0.51100000000E-03 0. -1.
         11   -1    0    0    0    0 -0.00000000000E+00 -0.00000000000E+00 -0.45593999997E+02  0.45594000000E+02  0.51100000000E-03 0.  1.
    9900012    2    1    2    0    0 -0.24457443442E+02  0.11927512066E+02 -0.30211518590E+02  0.50528832038E+02  0.29999915464E+02 0.  0.
         12    1    1    2    0    0  0.24457443442E+02 -0.11927512066E+02  0.30211518590E+02  0.40659167962E+02  0.00000000000E+00 0. -1.
         11    1    3    3    0    0 -0.29471920538E+01 -0.72785179622E+01 -0.10709446445E+01  0.79252563000E+01  0.51100000000E-03 0. -1.
        -11    1    3    3    0    0 -0.69321634712E+01  0.16507312394E+01 -0.12402426886E+02  0.14303845530E+02  0.51100000000E-03 0.  1.
        -12    1    3    3    0    0 -0.14578087917E+02  0.17555298789E+02 -0.16738147060E+02  0.28299730209E+02  0.00000000000E+00 0.  1.
</event>
<event>
 7    1  0.5843820E-012  0.5052884E+02  0.7816164E-02  0.1300439E+00
        -11   -1    0    0    0    0  0.00000000000E+00  0.00000000000E+00  0.45593999997E+02  0.45594000000E+02  0.51100000000E-03 0. -1.
         11   -1    0    0    0    0 -0.00000000000E+00 -0.00000000000E+00 -0.45593999997E+02  0.45594000000E+02  0.51100000000E-03 0.  1.
    9900012    2    1    2    0    0 -0.52490444213E+01  0.37198596101E+02  0.15552456516E+02  0.50528844537E+02  0.29999953456E+02 0.  0.
        -12    1    1    2    0    0  0.52490444213E+01 -0.37198596101E+02 -0.15552456516E+02  0.40659155463E+02  0.00000000000E+00 0.  1.
         11    1    3    3    0    0  0.15697469235E+01  0.91371251269E+01  0.85999801602E+01  0.12645585001E+02  0.51100000000E-03 0. -1.
        -11    1    3    3    0    0  0.58767520427E+01  0.22434212542E+02  0.26327800249E+01  0.23340129346E+02  0.51100000000E-03 0.  1.
         12    1    3    3    0    0 -0.12695543387E+02  0.56272584321E+01  0.43196963311E+01  0.14543130191E+02  0.00000000000E+00 0. -1.
</event>
<event>
 7    1  0.5843820E-012  0.5052886E+02  0.7816164E-02  0.1300439E+00
        -11   -1    0    0    0    0  0.00000000000E+00  0.00000000000E+00  0.45593999997E+02  0.45594000000E+02  0.51100000000E-03 0. -1.
         11   -1    0    0    0    0 -0.00000000000E+00 -0.00000000000E+00 -0.45593999997E+02  0.45594000000E+02  0.51100000000E-03 0.  1.
    9900012    2    1    2    0    0 -0.18669802723E+02  0.39193787541E+01 -0.35906021665E+02  0.50528862585E+02  0.30000008312E+02 0.  0.
         12    1    1    2    0    0  0.18669802723E+02 -0.39193787541E+01  0.35906021665E+02  0.40659137415E+02  0.00000000000E+00 0. -1.
         11    1    3    3    0    0 -0.11186882561E+02 -0.91701384708E+00 -0.39155323049E+01  0.11887752072E+02  0.51100000000E-03 0. -1.
        -11    1    3    3    0    0 -0.12320573514E+01 -0.72424723291E+01 -0.16284287751E+02  0.17864752967E+02  0.51100000000E-03 0.  1.
         12    1    3    3    0    0 -0.62508628105E+01  0.12078864930E+02 -0.15706201610E+02  0.20776357546E+02  0.00000000000E+00 0. -1.
</event>
<event>
 7    1  0.5843820E-012  0.5052886E+02  0.7816164E-02  0.1300439E+00
        -11   -1    0    0    0    0  0.00000000000E+00  0.00000000000E+00  0.45593999997E+02  0.45594000000E+02  0.51100000000E-03 0. -1.
         11   -1    0    0    0    0 -0.00000000000E+00 -0.00000000000E+00 -0.45593999997E+02  0.45594000000E+02  0.51100000000E-03 0.  1.
    9900012    2    1    2    0    0 -0.47667538240E+01 -0.45656203900E+01  0.40119806102E+02  0.50528859906E+02  0.30000000170E+02 0.  0.
        -12    1    1    2    0    0  0.47667538240E+01  0.45656203900E+01 -0.40119806102E+02  0.40659140094E+02  0.00000000000E+00 0.  1.
         11    1    3    3    0    0 -0.22818773054E+01  0.82831305574E+01  0.12270447077E+02  0.14979355380E+02  0.51100000000E-03 0. -1.
        -11    1    3    3    0    0  0.31770583831E+01 -0.67504328516E+01  0.11070380158E+01  0.75423853709E+01  0.51100000000E-03 0.  1.
         12    1    3    3    0    0 -0.56619349018E+01 -0.60983180958E+01  0.26742321009E+02  0.28007119155E+02  0.00000000000E+00 0. -1.
</event>
<event>
 7    1  0.5843820E-012  0.5052883E+02  0.7816164E-02  0.1300439E+00
        -11   -1    0    0    0    0  0.00000000000E+00  0.00000000000E+00  0.45593999997E+02  0.45594000000E+02  0.51100000000E-03 0. -1.
         11   -1    0    0    0    0 -0.00000000000E+00 -0.00000000000E+00 -0.45593999997E+02  0.45594000000E+02  0.51100000000E-03 0.  1.
    9900012    2    1    2    0    0  0.39416327157E+02 -0.99675908096E+01  0.40986959454E+00  0.50528834906E+02  0.29999924180E+02 0.  0.
        -12    1    1    2    0    0 -0.39416327157E+02  0.99675908096E+01 -0.40986959454E+00  0.40659165094E+02  0.00000000000E+00 0.  1.
         11    1    3    3    0    0  0.15259456341E+02 -0.67793376493E+01  0.90046828892E+01  0.18970891940E+02  0.51100000000E-03 0. -1.
        -11    1    3    3    0    0  0.51314318351E+01 -0.46395881309E+01  0.46458959942E+01  0.83331698982E+01  0.51100000000E-03 0.  1.
        -12    1    3    3    0    0  0.19025438980E+02  0.14513349706E+01 -0.13240709289E+02  0.23224773068E+02  0.00000000000E+00 0.  1.
</event>
<event>
 7    1  0.5843820E-012  0.5052884E+02  0.7816164E-02  0.1300439E+00
        -11   -1    0    0    0    0  0.00000000000E+00  0.00000000000E+00  0.45593999997E+02  0.45594000000E+02  0.51100000000E-03 0.  1.
         11   -1    0    0    0    0 -0.00000000000E+00 -0.00000000000E+00 -0.45593999997E+02  0.45594000000E+02  0.51100000000E-03 0. -1.
    9900012    2    1    2    0    0  0.19090424738E+02  0.22062369193E+02 -0.28319154506E+02  0.50528844044E+02  0.29999951957E+02 0.  0.
         12    1    1    2    0    0 -0.19090424738E+02 -0.22062369193E+02  0.28319154506E+02  0.40659155956E+02  0.00000000000E+00 0. -1.
         11    1    3    3    0    0  0.27310779766E+01  0.13697869510E+02 -0.45112614071E+01  0.14677939085E+02  0.51100000000E-03 0. -1.
        -11    1    3    3    0    0  0.14584874791E+02  0.81746911121E+01 -0.57136918117E+01  0.17668911167E+02  0.51100000000E-03 0.  1.
         12    1    3    3    0    0  0.17744719700E+01  0.18980857148E+00 -0.18094201287E+02  0.18181993793E+02  0.00000000000E+00 0. -1.
</event>
<event>
 7    1  0.5843820E-012  0.5052886E+02  0.7816164E-02  0.1300439E+00
        -11   -1    0    0    0    0  0.00000000000E+00  0.00000000000E+00  0.45593999997E+02  0.45594000000E+02  0.51100000000E-03 0. -1.
         11   -1    0    0    0    0 -0.00000000000E+00 -0.00000000000E+00 -0.45593999997E+02  0.45594000000E+02  0.51100000000E-03 0.  1.
    9900012    2    1    2    0    0 -0.31038781365E+01  0.33030767756E+02  0.23505314542E+02  0.50528862161E+02  0.30000007026E+02 0.  0.
        -12    1    1    2    0    0  0.31038781365E+01 -0.33030767756E+02 -0.23505314542E+02  0.40659137839E+02  0.00000000000E+00 0.  1.
         11    1    3    3    0    0 -0.68846424425E+01  0.18379130675E+02  0.22610425555E+02  0.29940308782E+02  0.51100000000E-03 0. -1.
        -11    1    3    3    0    0  0.31947713873E+01 -0.18473775129E+01  0.16921554316E+01  0.40598963236E+01  0.51100000000E-03 0.  1.
        -12    1    3    3    0    0  0.58599291871E+00  0.16499014594E+02 -0.79726644497E+00  0.16528657056E+02  0.00000000000E+00 0.  1.
</event>
<event>
 7    1  0.5843820E-012  0.5052887E+02  0.7816164E-02  0.1300439E+00
        -11   -1    0    0    0    0  0.00000000000E+00  0.00000000000E+00  0.45593999997E+02  0.45594000000E+02  0.51100000000E-03 0.  1.
         11   -1    0    0    0    0 -0.00000000000E+00 -0.00000000000E+00 -0.45593999997E+02  0.45594000000E+02  0.51100000000E-03 0. -1.
    9900012    2    1    2    0    0 -0.11809590019E+02  0.38633933720E+02 -0.45954139500E+01  0.50528867195E+02  0.30000022326E+02 0.  0.
         12    1    1    2    0    0  0.11809590019E+02 -0.38633933720E+02  0.45954139500E+01  0.40659132805E+02  0.00000000000E+00 0. -1.
         11    1    3    3    0    0  0.13748135952E+01 -0.17698803835E+00 -0.49661390721E+01  0.51559649662E+01  0.51100000000E-03 0. -1.
        -11    1    3    3    0    0 -0.15878490351E+01  0.69109713283E+01 -0.77170222292E+01  0.10480230036E+02  0.51100000000E-03 0.  1.
        -12    1    3    3    0    0 -0.11596554579E+02  0.31899950430E+02  0.80877473513E+01  0.34892672193E+02  0.00000000000E+00 0.  1.
</event>
<event>
 7    1  0.5843820E-012  0.5052887E+02  0.7816164E-02  0.1300439E+00
        -11   -1    0    0    0    0  0.00000000000E+00  0.00000000000E+00  0.45593999997E+02  0.45594000000E+02  0.51100000000E-03 0. -1.
         11   -1    0    0    0    0 -0.00000000000E+00 -0.00000000000E+00 -0.45593999997E+02  0.45594000000E+02  0.51100000000E-03 0.  1.
    9900012    2    1    2    0    0 -0.16939099621E+02 -0.21819686612E+02 -0.29835101640E+02  0.50528866835E+02  0.30000021233E+02 0.  0.
         12    1    1    2    0    0  0.16939099621E+02  0.21819686612E+02  0.29835101640E+02  0.40659133165E+02  0.00000000000E+00 0. -1.
         11    1    3    3    0    0 -0.11939633797E+02  0.33918676440E+01 -0.68156008219E+01  0.14160227263E+02  0.51100000000E-03 0.  1.
        -11    1    3    3    0    0 -0.40117369639E+01 -0.95821529413E+01 -0.27347576843E+01  0.10742001132E+02  0.51100000000E-03 0. -1.
        -12    1    3    3    0    0 -0.98772885993E+00 -0.15629401315E+02 -0.20284743134E+02  0.25626638441E+02  0.00000000000E+00 0.  1.
</event>
<event>
 7    1  0.5843820E-012  0.5052887E+02  0.7816164E-02  0.1300439E+00
        -11   -1    0    0    0    0  0.00000000000E+00  0.00000000000E+00  0.45593999997E+02  0.45594000000E+02  0.51100000000E-03 0. -1.
         11   -1    0    0    0    0 -0.00000000000E+00 -0.00000000000E+00 -0.45593999997E+02  0.45594000000E+02  0.51100000000E-03 0.  1.
    9900012    2    1    2    0    0 -0.21648008384E+02  0.19448884500E+02  0.28394878368E+02  0.50528874421E+02  0.30000044291E+02 0.  0.
        -12    1    1    2    0    0  0.21648008384E+02 -0.19448884500E+02 -0.28394878368E+02  0.40659125579E+02  0.00000000000E+00 0.  1.
         11    1    3    3    0    0 -0.13956338029E+02 -0.27846275587E+00  0.56246865894E+01  0.15049718010E+02  0.51100000000E-03 0. -1.
        -11    1    3    3    0    0  0.51093524166E+00 -0.29880175275E+01  0.30437459541E+01  0.42957762116E+01  0.51100000000E-03 0.  1.
         12    1    3    3    0    0 -0.82026055968E+01  0.22715364784E+02  0.19726445824E+02  0.31183380200E+02  0.00000000000E+00 0. -1.
</event>
<event>
 7    1  0.5843820E-012  0.5052886E+02  0.7816164E-02  0.1300439E+00
        -11   -1    0    0    0    0  0.00000000000E+00  0.00000000000E+00  0.45593999997E+02  0.45594000000E+02  0.51100000000E-03 0. -1.
         11   -1    0    0    0    0 -0.00000000000E+00 -0.00000000000E+00 -0.45593999997E+02  0.45594000000E+02  0.51100000000E-03 0.  1.
    9900012    2    1    2    0    0  0.36900723110E+02 -0.12518923670E+02 -0.11609440417E+02  0.50528856837E+02  0.29999990843E+02 0.  0.
         12    1    1    2    0    0 -0.36900723110E+02  0.12518923670E+02  0.11609440417E+02  0.40659143163E+02  0.00000000000E+00 0. -1.
         11    1    3    3    0    0  0.63817869836E+01 -0.11945081226E+02 -0.62001513595E+01  0.14894765783E+02  0.51100000000E-03 0. -1.
        -11    1    3    3    0    0  0.18698776512E+02 -0.37701814213E+01 -0.11166823020E+02  0.22103313047E+02  0.51100000000E-03 0.  1.
         12    1    3    3    0    0  0.11820159614E+02  0.31963389774E+01  0.57575339622E+01  0.13530778008E+02  0.00000000000E+00 0. -1.
</event>
<event>
 7    1  0.5843820E-012  0.5052887E+02  0.7816164E-02  0.1300439E+00
        -11   -1    0    0    0    0  0.00000000000E+00  0.00000000000E+00  0.45593999997E+02  0.45594000000E+02  0.51100000000E-03 0.  1.
         11   -1    0    0    0    0 -0.00000000000E+00 -0.00000000000E+00 -0.45593999997E+02  0.45594000000E+02  0.51100000000E-03 0. -1.
    9900012    2    1    2    0    0  0.37504926849E+02  0.29030708235E+01 -0.15431049657E+02  0.50528872468E+02  0.30000038353E+02 0.  0.
        -12    1    1    2    0    0 -0.37504926849E+02 -0.29030708235E+01  0.15431049657E+02  0.40659127532E+02  0.00000000000E+00 0.  1.
         11    1    3    3    0    0  0.29309038371E+02  0.43380285805E+01 -0.13023669532E+02  0.32364396959E+02  0.51100000000E-03 0. -1.
        -11    1    3    3    0    0  0.20871945510E+01 -0.52605866608E+01  0.51993432372E+01  0.76852666491E+01  0.51100000000E-03 0.  1.
         12    1    3    3    0    0  0.61086939269E+01  0.38256289038E+01 -0.76067233624E+01  0.10479208859E+02  0.00000000000E+00 0. -1.
</event>
<event>
 7    1  0.5843820E-012  0.5052885E+02  0.7816164E-02  0.1300439E+00
        -11   -1    0    0    0    0  0.00000000000E+00  0.00000000000E+00  0.45593999997E+02  0.45594000000E+02  0.51100000000E-03 0. -1.
         11   -1    0    0    0    0 -0.00000000000E+00 -0.00000000000E+00 -0.45593999997E+02  0.45594000000E+02  0.51100000000E-03 0.  1.
    9900012    2    1    2    0    0 -0.20663316190E+02 -0.22965708494E+02 -0.26434255630E+02  0.50528852527E+02  0.29999977740E+02 0.  0.
         12    1    1    2    0    0  0.20663316190E+02  0.22965708494E+02  0.26434255630E+02  0.40659147473E+02  0.00000000000E+00 0. -1.
         11    1    3    3    0    0 -0.12493303900E+02 -0.34984059024E+01 -0.14501929964E+01  0.13054675261E+02  0.51100000000E-03 0. -1.
        -11    1    3    3    0    0 -0.63157475912E+01 -0.63141858887E+01 -0.22163067545E+02  0.23894752025E+02  0.51100000000E-03 0.  1.
        -12    1    3    3    0    0 -0.18542646988E+01 -0.13153116703E+02 -0.28209950880E+01  0.13579425240E+02  0.00000000000E+00 0.  1.
</event>
<event>
 7    1  0.5843820E-012  0.5052885E+02  0.7816164E-02  0.1300439E+00
        -11   -1    0    0    0    0  0.00000000000E+00  0.00000000000E+00  0.45593999997E+02  0.45594000000E+02  0.51100000000E-03 0. -1.
         11   -1    0    0    0    0 -0.00000000000E+00 -0.00000000000E+00 -0.45593999997E+02  0.45594000000E+02  0.51100000000E-03 0.  1.
    9900012    2    1    2    0    0  0.31256509222E+02 -0.13546681695E+02  0.22196491875E+02  0.50528853363E+02  0.29999980283E+02 0.  0.
        -12    1    1    2    0    0 -0.31256509222E+02  0.13546681695E+02 -0.22196491875E+02  0.40659146637E+02  0.00000000000E+00 0.  1.
         11    1    3    3    0    0  0.73188600446E+01  0.64115691485E+00  0.80837170581E+01  0.10923519409E+02  0.51100000000E-03 0. -1.
        -11    1    3    3    0    0  0.98571821979E+01 -0.98755424011E+01  0.19454062611E+02  0.23940570814E+02  0.51100000000E-03 0.  1.
         12    1    3    3    0    0  0.14080466979E+02 -0.43122962083E+01 -0.53412877935E+01  0.15664763140E+02  0.00000000000E+00 0. -1.
</event>
<event>
 7    1  0.5843820E-012  0.5052893E+02  0.7816164E-02  0.1300439E+00
        -11   -1    0    0    0    0  0.00000000000E+00  0.00000000000E+00  0.45593999997E+02  0.45594000000E+02  0.51100000000E-03 0. -1.
         11   -1    0    0    0    0 -0.00000000000E+00 -0.00000000000E+00 -0.45593999997E+02  0.45594000000E+02  0.51100000000E-03 0.  1.
    9900012    2    1    2    0    0 -0.22379298142E+02 -0.25380950103E+02 -0.22541833384E+02  0.50528931322E+02  0.30000217245E+02 0.  0.
         12    1    1    2    0    0  0.22379298142E+02  0.25380950103E+02  0.22541833384E+02  0.40659068678E+02  0.00000000000E+00 0. -1.
         11    1    3    3    0    0 -0.63077176823E+00  0.29851806010E+01  0.28130082537E+00  0.30640343764E+01  0.51100000000E-03 0. -1.
        -11    1    3    3    0    0 -0.12301083083E+02 -0.93590789814E+01 -0.21119123878E+02  0.26171098526E+02  0.51100000000E-03 0.  1.
         12    1    3    3    0    0 -0.94474432903E+01 -0.19007051723E+02 -0.17040103310E+01  0.21293798420E+02  0.00000000000E+00 0. -1.
</event>
<event>
 7    1  0.5843820E-012  0.5052887E+02  0.7816164E-02  0.1300439E+00
        -11   -1    0    0    0    0  0.00000000000E+00  0.00000000000E+00  0.45593999997E+02  0.45594000000E+02  0.51100000000E-03 0. -1.
         11   -1    0    0    0    0 -0.00000000000E+00 -0.00000000000E+00 -0.45593999997E+02  0.45594000000E+02  0.51100000000E-03 0.  1.
    9900012    2    1    2    0    0 -0.29556034803E+02  0.58974737869E+01 -0.27291494734E+02  0.50528867260E+02  0.30000022525E+02 0.  0.
         12    1    1    2    0    0  0.29556034803E+02 -0.58974737869E+01  0.27291494734E+02  0.40659132740E+02  0.00000000000E+00 0. -1.
         11    1    3    3    0    0  0.34332278491E+01  0.22054569783E+01 -0.92272782626E-01  0.40816183646E+01  0.51100000000E-03 0.  1.
        -11    1    3    3    0    0  0.99769470096E-01  0.22855651231E+01 -0.76595199076E+01  0.79938731135E+01  0.51100000000E-03 0. -1.
        -12    1    3    3    0    0 -0.33089032122E+02  0.14064516855E+01 -0.19539702043E+02  0.38453375782E+02  0.00000000000E+00 0.  1.
</event>
<event>
 7    1  0.5843820E-012  0.5052886E+02  0.7816164E-02  0.1300439E+00
        -11   -1    0    0    0    0  0.00000000000E+00  0.00000000000E+00  0.45593999997E+02  0.45594000000E+02  0.51100000000E-03 0. -1.
         11   -1    0    0    0    0 -0.00000000000E+00 -0.00000000000E+00 -0.45593999997E+02  0.45594000000E+02  0.51100000000E-03 0.  1.
    9900012    2    1    2    0    0 -0.59531374572E+01 -0.19045203894E+02 -0.35426062545E+02  0.50528861490E+02  0.30000004985E+02 0.  0.
         12    1    1    2    0    0  0.59531374572E+01  0.19045203894E+02  0.35426062545E+02  0.40659138510E+02  0.00000000000E+00 0. -1.
         11    1    3    3    0    0  0.47621722924E+01 -0.59742663067E+01 -0.12396620597E+02  0.14561811197E+02  0.51100000000E-03 0.  1.
        -11    1    3    3    0    0 -0.12605582061E+01 -0.26418805305E+01 -0.21622870658E+02  0.21820107137E+02  0.51100000000E-03 0. -1.
         12    1    3    3    0    0 -0.94547515435E+01 -0.10429057057E+02 -0.14065712893E+01  0.14146943155E+02  0.00000000000E+00 0. -1.
</event>
<event>
 7    1  0.6488602E-012  0.5052886E+02  0.7816164E-02  0.1300439E+00
        -11   -1    0    0    0    0  0.00000000000E+00  0.00000000000E+00  0.45593999997E+02  0.45594000000E+02  0.51100000000E-03 0. -1.
         11   -1    0    0    0    0 -0.00000000000E+00 -0.00000000000E+00 -0.45593999997E+02  0.45594000000E+02  0.51100000000E-03 0.  1.
    9900012    2    1    2    0    0  0.72668922156E+01 -0.14629560902E+02 -0.37233501898E+02  0.50528862795E+02  0.30000008952E+02 0.  0.
         12    1    1    2    0    0 -0.72668922156E+01  0.14629560902E+02  0.37233501898E+02  0.40659137205E+02  0.00000000000E+00 0. -1.
         11    1    3    3    0    0  0.58204253574E+01 -0.13623805384E+02 -0.25091707644E+01  0.15026022849E+02  0.51100000000E-03 0. -1.
        -11    1    3    3    0    0 -0.27630596874E+01 -0.10126713632E+01 -0.18920564665E+02  0.19148048716E+02  0.51100000000E-03 0.  1.
        -12    1    3    3    0    0  0.42095265457E+01  0.69158449669E-02 -0.15803766468E+02  0.16354791229E+02  0.00000000000E+00 0.  1.
</event>
<event>
 7    1  0.5843820E-012  0.5052886E+02  0.7816164E-02  0.1300439E+00
        -11   -1    0    0    0    0  0.00000000000E+00  0.00000000000E+00  0.45593999997E+02  0.45594000000E+02  0.51100000000E-03 0. -1.
         11   -1    0    0    0    0 -0.00000000000E+00 -0.00000000000E+00 -0.45593999997E+02  0.45594000000E+02  0.51100000000E-03 0.  1.
    9900012    2    1    2    0    0  0.86780376412E+01 -0.48219581422E+00  0.39719328565E+02  0.50528856972E+02  0.29999991254E+02 0.  0.
        -12    1    1    2    0    0 -0.86780376412E+01  0.48219581422E+00 -0.39719328565E+02  0.40659143028E+02  0.00000000000E+00 0.  1.
         11    1    3    3    0    0  0.35723381072E+01 -0.40048585690E+01  0.56615216219E+00  0.53963895561E+01  0.51100000000E-03 0. -1.
        -11    1    3    3    0    0  0.33971342238E+01  0.32259604835E+01 -0.11241836340E+01  0.48177931753E+01  0.51100000000E-03 0.  1.
         12    1    3    3    0    0  0.17085653102E+01  0.29670227125E+00  0.40277360036E+02  0.40314674241E+02  0.00000000000E+00 0. -1.
</event>
<event>
 7    1  0.5843820E-012  0.5052885E+02  0.7816164E-02  0.1300439E+00
        -11   -1    0    0    0    0  0.00000000000E+00  0.00000000000E+00  0.45593999997E+02  0.45594000000E+02  0.51100000000E-03 0. -1.
         11   -1    0    0    0    0 -0.00000000000E+00 -0.00000000000E+00 -0.45593999997E+02  0.45594000000E+02  0.51100000000E-03 0.  1.
    9900012    2    1    2    0    0 -0.12629216063E+02  0.98928027996E+00 -0.38635351752E+02  0.50528853687E+02  0.29999981268E+02 0.  0.
         12    1    1    2    0    0  0.12629216063E+02 -0.98928027996E+00  0.38635351752E+02  0.40659146313E+02  0.00000000000E+00 0. -1.
         11    1    3    3    0    0 -0.41339460471E+01  0.72088936230E+01 -0.15414143364E+02  0.17511524008E+02  0.51100000000E-03 0.  1.
        -11    1    3    3    0    0  0.69607275098E+01 -0.56069838643E+00 -0.76797492912E+01  0.10380012504E+02  0.51100000000E-03 0. -1.
         12    1    3    3    0    0 -0.15455997526E+02 -0.56589149566E+01 -0.15541459097E+02  0.22637317175E+02  0.00000000000E+00 0. -1.
</event>
<event>
 7    1  0.5843820E-012  0.5052886E+02  0.7816164E-02  0.1300439E+00
        -11   -1    0    0    0    0  0.00000000000E+00  0.00000000000E+00  0.45593999997E+02  0.45594000000E+02  0.51100000000E-03 0. -1.
         11   -1    0    0    0    0 -0.00000000000E+00 -0.00000000000E+00 -0.45593999997E+02  0.45594000000E+02  0.51100000000E-03 0.  1.
    9900012    2    1    2    0    0 -0.28686382706E+02 -0.36716562800E+01 -0.28579289761E+02  0.50528863071E+02  0.30000009790E+02 0.  0.
         12    1    1    2    0    0  0.28686382706E+02  0.36716562800E+01  0.28579289761E+02  0.40659136929E+02  0.00000000000E+00 0. -1.
         11    1    3    3    0    0 -0.21014554291E+02 -0.73503156668E+01 -0.15879796549E+02  0.27346052204E+02  0.51100000000E-03 0. -1.
        -11    1    3    3    0    0 -0.12764953834E+02 -0.16928956482E+00 -0.10149357907E+02  0.16308959854E+02  0.51100000000E-03 0.  1.
         12    1    3    3    0    0  0.50931254190E+01  0.38479489517E+01 -0.25501353045E+01  0.68738510123E+01  0.00000000000E+00 0. -1.
</event>
<event>
 7    1  0.5843820E-012  0.5052886E+02  0.7816164E-02  0.1300439E+00
        -11   -1    0    0    0    0  0.00000000000E+00  0.00000000000E+00  0.45593999997E+02  0.45594000000E+02  0.51100000000E-03 0. -1.
         11   -1    0    0    0    0 -0.00000000000E+00 -0.00000000000E+00 -0.45593999997E+02  0.45594000000E+02  0.51100000000E-03 0.  1.
    9900012    2    1    2    0    0 -0.19323534528E+02  0.26503595262E+02  0.24027609168E+02  0.50528861412E+02  0.30000004747E+02 0.  0.
        -12    1    1    2    0    0  0.19323534528E+02 -0.26503595262E+02 -0.24027609168E+02  0.40659138588E+02  0.00000000000E+00 0.  1.
         11    1    3    3    0    0 -0.33845356541E+01  0.82467734082E+00 -0.27133204110E+01  0.44155726949E+01  0.51100000000E-03 0.  1.
        -11    1    3    3    0    0 -0.16936923587E+02  0.19806975372E+02  0.29657904034E+02  0.39481222447E+02  0.51100000000E-03 0. -1.
         12    1    3    3    0    0  0.99792471306E+00  0.58719425489E+01 -0.29169744553E+01  0.66320662696E+01  0.00000000000E+00 0. -1.
</event>
<event>
 7    1  0.5843820E-012  0.5052886E+02  0.7816164E-02  0.1300439E+00
        -11   -1    0    0    0    0  0.00000000000E+00  0.00000000000E+00  0.45593999997E+02  0.45594000000E+02  0.51100000000E-03 0.  1.
         11   -1    0    0    0    0 -0.00000000000E+00 -0.00000000000E+00 -0.45593999997E+02  0.45594000000E+02  0.51100000000E-03 0. -1.
    9900012    2    1    2    0    0  0.20424551529E+02  0.28641382622E+02  0.20388106482E+02  0.50528856015E+02  0.29999988343E+02 0.  0.
         12    1    1    2    0    0 -0.20424551529E+02 -0.28641382622E+02 -0.20388106482E+02  0.40659143985E+02  0.00000000000E+00 0. -1.
         11    1    3    3    0    0 -0.22463372070E+01  0.26788737365E+01 -0.32596598592E+01  0.47799349370E+01  0.51100000000E-03 0. -1.
        -11    1    3    3    0    0  0.66634137466E+00  0.12823675580E+02  0.39808886738E+01  0.13443888615E+02  0.51100000000E-03 0.  1.
         12    1    3    3    0    0  0.22004547361E+02  0.13138833306E+02  0.19666877667E+02  0.32305032462E+02  0.00000000000E+00 0. -1.
</event>
<event>
 7    1  0.5843820E-012  0.5052888E+02  0.7816164E-02  0.1300439E+00
        -11   -1    0    0    0    0  0.00000000000E+00  0.00000000000E+00  0.45593999997E+02  0.45594000000E+02  0.51100000000E-03 0. -1.
         11   -1    0    0    0    0 -0.00000000000E+00 -0.00000000000E+00 -0.45593999997E+02  0.45594000000E+02  0.51100000000E-03 0.  1.
    9900012    2    1    2    0    0  0.42977736689E+01  0.65975462388E+01 -0.39889412149E+02  0.50528884461E+02  0.30000074806E+02 0.  0.
         12    1    1    2    0    0 -0.42977736689E+01 -0.65975462388E+01  0.39889412149E+02  0.40659115539E+02  0.00000000000E+00 0. -1.
         11    1    3    3    0    0 -0.32910111373E+01 -0.49227905884E+01 -0.10793685731E+02  0.12311306730E+02  0.51100000000E-03 0. -1.
        -11    1    3    3    0    0 -0.68675900345E+01  0.21854743166E+01 -0.11748863850E+02  0.13783174268E+02  0.51100000000E-03 0.  1.
        -12    1    3    3    0    0  0.14456374841E+02  0.93348625106E+01 -0.17346862568E+02  0.24434403463E+02  0.00000000000E+00 0.  1.
</event>
<event>
 7    1  0.7885921E-012  0.5052887E+02  0.7816164E-02  0.1300439E+00
        -11   -1    0    0    0    0  0.00000000000E+00  0.00000000000E+00  0.45593999997E+02  0.45594000000E+02  0.51100000000E-03 0. -1.
         11   -1    0    0    0    0 -0.00000000000E+00 -0.00000000000E+00 -0.45593999997E+02  0.45594000000E+02  0.51100000000E-03 0.  1.
    9900012    2    1    2    0    0  0.75847766450E+01 -0.11039111538E+02 -0.38389763225E+02  0.50528871372E+02  0.30000035022E+02 0.  0.
         12    1    1    2    0    0 -0.75847766450E+01  0.11039111538E+02  0.38389763225E+02  0.40659128628E+02  0.00000000000E+00 0. -1.
         11    1    3    3    0    0  0.84300968285E+01 -0.97137930020E+00  0.74538804923E-01  0.84862044860E+01  0.51100000000E-03 0. -1.
        -11    1    3    3    0    0 -0.50458443334E+01 -0.87112195029E+01 -0.14358383694E+02  0.17535936611E+02  0.51100000000E-03 0.  1.
        -12    1    3    3    0    0  0.42005241499E+01 -0.13565127354E+01 -0.24105918336E+02  0.24506730275E+02  0.00000000000E+00 0.  1.
</event>
<event>
 7    1  0.5843820E-012  0.5052887E+02  0.7816164E-02  0.1300439E+00
        -11   -1    0    0    0    0  0.00000000000E+00  0.00000000000E+00  0.45593999997E+02  0.45594000000E+02  0.51100000000E-03 0. -1.
         11   -1    0    0    0    0 -0.00000000000E+00 -0.00000000000E+00 -0.45593999997E+02  0.45594000000E+02  0.51100000000E-03 0.  1.
    9900012    2    1    2    0    0 -0.16454261540E+01  0.35400693370E+02  0.19931099187E+02  0.50528865318E+02  0.30000016621E+02 0.  0.
        -12    1    1    2    0    0  0.16454261540E+01 -0.35400693370E+02 -0.19931099187E+02  0.40659134682E+02  0.00000000000E+00 0.  1.
         11    1    3    3    0    0  0.16173192041E+01 -0.18520557349E+01 -0.87630800293E+00  0.26103156572E+01  0.51100000000E-03 0. -1.
        -11    1    3    3    0    0  0.60081896986E+01  0.45488488661E+01 -0.89482767893E+00  0.75888791199E+01  0.51100000000E-03 0.  1.
         12    1    3    3    0    0 -0.92709350566E+01  0.32703900238E+02  0.21702234869E+02  0.40329670541E+02  0.00000000000E+00 0. -1.
</event>
<event>
 7    1  0.5843820E-012  0.5052886E+02  0.7816164E-02  0.1300439E+00
        -11   -1    0    0    0    0  0.00000000000E+00  0.00000000000E+00  0.45593999997E+02  0.45594000000E+02  0.51100000000E-03 0. -1.
         11   -1    0    0    0    0 -0.00000000000E+00 -0.00000000000E+00 -0.45593999997E+02  0.45594000000E+02  0.51100000000E-03 0.  1.
    9900012    2    1    2    0    0 -0.13346881054E+02 -0.54815776873E+01 -0.38012875910E+02  0.50528860034E+02  0.30000000560E+02 0.  0.
         12    1    1    2    0    0  0.13346881054E+02  0.54815776873E+01  0.38012875910E+02  0.40659139966E+02  0.00000000000E+00 0. -1.
         11    1    3    3    0    0  0.42841978263E+01 -0.71360174058E+01 -0.21523885314E+02  0.23077147456E+02  0.51100000000E-03 0. -1.
        -11    1    3    3    0    0 -0.11701378369E+02 -0.20401101967E+01 -0.16662905937E+02  0.20463057931E+02  0.51100000000E-03 0.  1.
        -12    1    3    3    0    0 -0.59297005116E+01  0.36945499151E+01  0.17391534124E+00  0.69886546472E+01  0.00000000000E+00 0.  1.
</event>
<event>
 7    1  0.5843820E-012  0.5052887E+02  0.7816164E-02  0.1300439E+00
        -11   -1    0    0    0    0  0.00000000000E+00  0.00000000000E+00  0.45593999997E+02  0.45594000000E+02  0.51100000000E-03 0. -1.
         11   -1    0    0    0    0 -0.00000000000E+00 -0.00000000000E+00 -0.45593999997E+02  0.45594000000E+02  0.51100000000E-03 0.  1.
    9900012    2    1    2    0    0 -0.20750338175E+00 -0.18729072237E+02  0.36088004056E+02  0.50528865217E+02  0.30000016314E+02 0.  0.
        -12    1    1    2    0    0  0.20750338175E+00  0.18729072237E+02 -0.36088004056E+02  0.40659134783E+02  0.00000000000E+00 0.  1.
         11    1    3    3    0    0  0.92021863439E+01 -0.38460131943E+01  0.18167262622E+02  0.20724900059E+02  0.51100000000E-03 0. -1.
        -11    1    3    3    0    0  0.38502096838E+01 -0.66460068230E+01  0.89727630921E+01  0.11811181104E+02  0.51100000000E-03 0.  1.
         12    1    3    3    0    0 -0.13259899409E+02 -0.82370522197E+01  0.89479783419E+01  0.17992784054E+02  0.00000000000E+00 0. -1.
</event>
<event>
 7    1  0.5843820E-012  0.5052886E+02  0.7816164E-02  0.1300439E+00
        -11   -1    0    0    0    0  0.00000000000E+00  0.00000000000E+00  0.45593999997E+02  0.45594000000E+02  0.51100000000E-03 0. -1.
         11   -1    0    0    0    0 -0.00000000000E+00 -0.00000000000E+00 -0.45593999997E+02  0.45594000000E+02  0.51100000000E-03 0.  1.
    9900012    2    1    2    0    0 -0.56578737406E+01  0.22175217300E+02  0.33606752926E+02  0.50528860316E+02  0.30000001417E+02 0.  0.
        -12    1    1    2    0    0  0.56578737406E+01 -0.22175217300E+02 -0.33606752926E+02  0.40659139684E+02  0.00000000000E+00 0.  1.
         11    1    3    3    0    0 -0.43478647902E+01  0.14101401185E+01 -0.78939235085E+00  0.46384872461E+01  0.51100000000E-03 0. -1.
        -11    1    3    3    0    0 -0.42370432256E+00 -0.33807503703E+01 -0.50211149883E+00  0.34439968986E+01  0.51100000000E-03 0.  1.
         12    1    3    3    0    0 -0.88630462787E+00  0.24145827552E+02  0.34898256776E+02  0.42446376171E+02  0.00000000000E+00 0. -1.
</event>
<event>
 7    1  0.5843820E-012  0.5052886E+02  0.7816164E-02  0.1300439E+00
        -11   -1    0    0    0    0  0.00000000000E+00  0.00000000000E+00  0.45593999997E+02  0.45594000000E+02  0.51100000000E-03 0. -1.
         11   -1    0    0    0    0 -0.00000000000E+00 -0.00000000000E+00 -0.45593999997E+02  0.45594000000E+02  0.51100000000E-03 0.  1.
    9900012    2    1    2    0    0 -0.14728856242E+02 -0.16622571481E+02 -0.34057552144E+02  0.50528856540E+02  0.29999989940E+02 0.  0.
         12    1    1    2    0    0  0.14728856242E+02  0.16622571481E+02  0.34057552144E+02  0.40659143460E+02  0.00000000000E+00 0. -1.
         11    1    3    3    0    0 -0.71663450509E+01 -0.12507395229E+02 -0.32031883183E+02  0.35125958739E+02  0.51100000000E-03 0.  1.
        -11    1    3    3    0    0  0.14501297612E+01 -0.28115734449E+01 -0.49184970283E+01  0.58480282865E+01  0.51100000000E-03 0. -1.
        -12    1    3    3    0    0 -0.90126409526E+01 -0.13036028068E+01  0.28928280674E+01  0.95548695148E+01  0.00000000000E+00 0.  1.
</event>
<event>
 7    1  0.5843820E-012  0.5052887E+02  0.7816164E-02  0.1300439E+00
        -11   -1    0    0    0    0  0.00000000000E+00  0.00000000000E+00  0.45593999997E+02  0.45594000000E+02  0.51100000000E-03 0.  1.
         11   -1    0    0    0    0 -0.00000000000E+00 -0.00000000000E+00 -0.45593999997E+02  0.45594000000E+02  0.51100000000E-03 0. -1.
    9900012    2    1    2    0    0  0.40465612317E+02  0.14336838335E+01 -0.36937020416E+01  0.50528872313E+02  0.30000037882E+02 0.  0.
         12    1    1    2    0    0 -0.40465612317E+02 -0.14336838335E+01  0.36937020416E+01  0.40659127687E+02  0.00000000000E+00 0. -1.
         11    1    3    3    0    0  0.26582366065E+02  0.62451116364E+01 -0.90078783605E+01  0.28753529831E+02  0.51100000000E-03 0.  1.
        -11    1    3    3    0    0  0.89488971503E+01 -0.61268914301E+01 -0.36630781208E+01  0.11447257330E+02  0.51100000000E-03 0. -1.
        -12    1    3    3    0    0  0.49343491020E+01  0.13154636271E+01  0.89772544397E+01  0.10328085151E+02  0.00000000000E+00 0.  1.
</event>
<event>
 7    1  0.5843820E-012  0.5052886E+02  0.7816164E-02  0.1300439E+00
        -11   -1    0    0    0    0  0.00000000000E+00  0.00000000000E+00  0.45593999997E+02  0.45594000000E+02  0.51100000000E-03 0.  1.
         11   -1    0    0    0    0 -0.00000000000E+00 -0.00000000000E+00 -0.45593999997E+02  0.45594000000E+02  0.51100000000E-03 0. -1.
    9900012    2    1    2    0    0 -0.12593314277E+02 -0.28607420674E+02 -0.26003649649E+02  0.50528857398E+02  0.29999992547E+02 0.  0.
         12    1    1    2    0    0  0.12593314277E+02  0.28607420674E+02  0.26003649649E+02  0.40659142602E+02  0.00000000000E+00 0. -1.
         11    1    3    3    0    0  0.12454776276E+01 -0.10477255350E+02 -0.17829250184E+02  0.20717293660E+02  0.51100000000E-03 0. -1.
        -11    1    3    3    0    0  0.39148679787E+01 -0.20088893737E+01 -0.28623648020E+01  0.52492818868E+01  0.51100000000E-03 0.  1.
        -12    1    3    3    0    0 -0.17753659883E+02 -0.16121275950E+02 -0.53120346624E+01  0.24562281852E+02  0.00000000000E+00 0.  1.
</event>
<event>
 7    1  0.5843820E-012  0.5052886E+02  0.7816164E-02  0.1300439E+00
        -11   -1    0    0    0    0  0.00000000000E+00  0.00000000000E+00  0.45593999997E+02  0.45594000000E+02  0.51100000000E-03 0. -1.
         11   -1    0    0    0    0 -0.00000000000E+00 -0.00000000000E+00 -0.45593999997E+02  0.45594000000E+02  0.51100000000E-03 0.  1.
    9900012    2    1    2    0    0 -0.16585456852E+01  0.28145960351E+02  0.29295391533E+02  0.50528858065E+02  0.29999994573E+02 0.  0.
        -12    1    1    2    0    0  0.16585456852E+01 -0.28145960351E+02 -0.29295391533E+02  0.40659141935E+02  0.00000000000E+00 0.  1.
         11    1    3    3    0    0 -0.31682251240E+01  0.11459161489E+02  0.44616470511E+01  0.12698674228E+02  0.51100000000E-03 0. -1.
        -11    1    3    3    0    0  0.14380884012E+00  0.74829515327E+01 -0.33134009962E+01  0.81849783778E+01  0.51100000000E-03 0.  1.
         12    1    3    3    0    0  0.13658705986E+01  0.92038473292E+01  0.28147145478E+02  0.29645205459E+02  0.00000000000E+00 0. -1.
</event>
<event>
 7    1  0.5843820E-012  0.5052885E+02  0.7816164E-02  0.1300439E+00
        -11   -1    0    0    0    0  0.00000000000E+00  0.00000000000E+00  0.45593999997E+02  0.45594000000E+02  0.51100000000E-03 0. -1.
         11   -1    0    0    0    0 -0.00000000000E+00 -0.00000000000E+00 -0.45593999997E+02  0.45594000000E+02  0.51100000000E-03 0.  1.
    9900012    2    1    2    0    0  0.10065459050E+02  0.59263925367E+01 -0.38945225535E+02  0.50528853595E+02  0.29999980988E+02 0.  0.
         12    1    1    2    0    0 -0.10065459050E+02 -0.59263925367E+01  0.38945225535E+02  0.40659146405E+02  0.00000000000E+00 0. -1.
         11    1    3    3    0    0 -0.59849887826E+01  0.65652125205E+01 -0.20593459121E+01  0.91193756373E+01  0.51100000000E-03 0. -1.
        -11    1    3    3    0    0  0.27333812912E+01  0.30860626511E+01 -0.40428967892E+01  0.57740947930E+01  0.51100000000E-03 0.  1.
         12    1    3    3    0    0  0.13317066541E+02 -0.37248826348E+01 -0.32842982834E+02  0.35635383165E+02  0.00000000000E+00 0. -1.
</event>
<event>
 7    1  0.5843820E-012  0.5052887E+02  0.7816164E-02  0.1300439E+00
        -11   -1    0    0    0    0  0.00000000000E+00  0.00000000000E+00  0.45593999997E+02  0.45594000000E+02  0.51100000000E-03 0. -1.
         11   -1    0    0    0    0 -0.00000000000E+00 -0.00000000000E+00 -0.45593999997E+02  0.45594000000E+02  0.51100000000E-03 0.  1.
    9900012    2    1    2    0    0 -0.22826050980E+02  0.13699241175E+02 -0.30732187397E+02  0.50528866287E+02  0.30000019566E+02 0.  0.
         12    1    1    2    0    0  0.22826050980E+02 -0.13699241175E+02  0.30732187397E+02  0.40659133713E+02  0.00000000000E+00 0. -1.
         11    1    3    3    0    0 -0.14004025396E+01 -0.65118354280E+01 -0.35504822364E+01  0.75479170826E+01  0.51100000000E-03 0. -1.
        -11    1    3    3    0    0  0.44787925930E+00 -0.72189743527E+00  0.12078139400E+01  0.14766673670E+01  0.51100000000E-03 0.  1.
        -12    1    3    3    0    0 -0.21873527699E+02  0.20932974038E+02 -0.28389519100E+02  0.41504281838E+02  0.00000000000E+00 0.  1.
</event>
<event>
 7    1  0.5843820E-012  0.5052885E+02  0.7816164E-02  0.1300439E+00
        -11   -1    0    0    0    0  0.00000000000E+00  0.00000000000E+00  0.45593999997E+02  0.45594000000E+02  0.51100000000E-03 0. -1.
         11   -1    0    0    0    0 -0.00000000000E+00 -0.00000000000E+00 -0.45593999997E+02  0.45594000000E+02  0.51100000000E-03 0.  1.
    9900012    2    1    2    0    0  0.28482545684E+02 -0.11109903368E+02 -0.26804503064E+02  0.50528846713E+02  0.29999960069E+02 0.  0.
         12    1    1    2    0    0 -0.28482545684E+02  0.11109903368E+02  0.26804503064E+02  0.40659153287E+02  0.00000000000E+00 0. -1.
         11    1    3    3    0    0  0.84302844145E+01 -0.13774987016E+02 -0.13031961087E+02  0.20752155855E+02  0.51100000000E-03 0. -1.
        -11    1    3    3    0    0  0.68521555941E+01 -0.71822917219E+01 -0.54608114832E+01  0.11329510712E+02  0.51100000000E-03 0.  1.
        -12    1    3    3    0    0  0.13200105676E+02  0.98473753699E+01 -0.83117304941E+01  0.18447180146E+02  0.00000000000E+00 0.  1.
</event>
<event>
 7    1  0.5843820E-012  0.5052885E+02  0.7816164E-02  0.1300439E+00
        -11   -1    0    0    0    0  0.00000000000E+00  0.00000000000E+00  0.45593999997E+02  0.45594000000E+02  0.51100000000E-03 0. -1.
         11   -1    0    0    0    0 -0.00000000000E+00 -0.00000000000E+00 -0.45593999997E+02  0.45594000000E+02  0.51100000000E-03 0.  1.
    9900012    2    1    2    0    0 -0.24605416550E+01  0.16350772575E+01 -0.40551679927E+02  0.50528849889E+02  0.29999969722E+02 0.  0.
         12    1    1    2    0    0  0.24605416550E+01 -0.16350772575E+01  0.40551679927E+02  0.40659150111E+02  0.00000000000E+00 0. -1.
         11    1    3    3    0    0 -0.12044557426E+01  0.13088721074E+02 -0.10553378257E+02  0.16856426842E+02  0.51100000000E-03 0. -1.
        -11    1    3    3    0    0  0.22480140808E+01  0.90193488619E+00 -0.40304772051E+01  0.47023186417E+01  0.51100000000E-03 0.  1.
        -12    1    3    3    0    0 -0.35040999932E+01 -0.12355578702E+02 -0.25967824465E+02  0.28970104406E+02  0.00000000000E+00 0.  1.
</event>
<event>
 7    1  0.5843820E-012  0.5052883E+02  0.7816164E-02  0.1300439E+00
        -11   -1    0    0    0    0  0.00000000000E+00  0.00000000000E+00  0.45593999997E+02  0.45594000000E+02  0.51100000000E-03 0. -1.
         11   -1    0    0    0    0 -0.00000000000E+00 -0.00000000000E+00 -0.45593999997E+02  0.45594000000E+02  0.51100000000E-03 0.  1.
    9900012    2    1    2    0    0  0.28131912183E+01  0.24025766175E+02 -0.32680521902E+02  0.50528831331E+02  0.29999913312E+02 0.  0.
         12    1    1    2    0    0 -0.28131912183E+01 -0.24025766175E+02  0.32680521902E+02  0.40659168669E+02  0.00000000000E+00 0. -1.
         11    1    3    3    0    0 -0.62746397507E+01  0.84906941717E+01 -0.24866341855E+01  0.10846489817E+02  0.51100000000E-03 0. -1.
        -11    1    3    3    0    0 -0.29496704973E+01  0.12534388011E+02 -0.19127002163E+02  0.23057615897E+02  0.51100000000E-03 0.  1.
         12    1    3    3    0    0  0.12037501466E+02  0.30006839920E+01 -0.11066885553E+02  0.16624725616E+02  0.00000000000E+00 0. -1.
</event>
<event>
 7    1  0.5843820E-012  0.5052885E+02  0.7816164E-02  0.1300439E+00
        -11   -1    0    0    0    0  0.00000000000E+00  0.00000000000E+00  0.45593999997E+02  0.45594000000E+02  0.51100000000E-03 0. -1.
         11   -1    0    0    0    0 -0.00000000000E+00 -0.00000000000E+00 -0.45593999997E+02  0.45594000000E+02  0.51100000000E-03 0.  1.
    9900012    2    1    2    0    0 -0.21511621101E+02  0.56736430676E+01  0.34032724159E+02  0.50528851193E+02  0.29999973686E+02 0.  0.
        -12    1    1    2    0    0  0.21511621101E+02 -0.56736430676E+01 -0.34032724159E+02  0.40659148807E+02  0.00000000000E+00 0.  1.
         11    1    3    3    0    0 -0.18214492523E+02  0.92897832041E+00  0.29085754133E+02  0.34330916567E+02  0.51100000000E-03 0. -1.
        -11    1    3    3    0    0 -0.61323607345E+01  0.60648595424E+01  0.80458955953E+01  0.11795117873E+02  0.51100000000E-03 0.  1.
         12    1    3    3    0    0  0.28352321564E+01 -0.13201947953E+01 -0.30989255692E+01  0.44028167531E+01  0.00000000000E+00 0. -1.
</event>
<event>
 7    1  0.5843820E-012  0.5052886E+02  0.7816164E-02  0.1300439E+00
        -11   -1    0    0    0    0  0.00000000000E+00  0.00000000000E+00  0.45593999997E+02  0.45594000000E+02  0.51100000000E-03 0. -1.
         11   -1    0    0    0    0 -0.00000000000E+00 -0.00000000000E+00 -0.45593999997E+02  0.45594000000E+02  0.51100000000E-03 0.  1.
    9900012    2    1    2    0    0 -0.23449939506E+02  0.80804646236E+01  0.32217569670E+02  0.50528863674E+02  0.30000011622E+02 0.  0.
        -12    1    1    2    0    0  0.23449939506E+02 -0.80804646236E+01 -0.32217569670E+02  0.40659136326E+02  0.00000000000E+00 0.  1.
         11    1    3    3    0    0 -0.14651989432E+02  0.14529598112E+02  0.16817587089E+02  0.26619940859E+02  0.51100000000E-03 0. -1.
        -11    1    3    3    0    0 -0.76788654607E+01  0.24846844454E+01  0.11611011245E+02  0.14140516750E+02  0.51100000000E-03 0.  1.
        -12    1    3    3    0    0 -0.11190846134E+01 -0.89338179340E+01  0.37889713366E+01  0.97684060645E+01  0.00000000000E+00 0.  1.
</event>
<event>
 7    1  0.5843820E-012  0.5052887E+02  0.7816164E-02  0.1300439E+00
        -11   -1    0    0    0    0  0.00000000000E+00  0.00000000000E+00  0.45593999997E+02  0.45594000000E+02  0.51100000000E-03 0. -1.
         11   -1    0    0    0    0 -0.00000000000E+00 -0.00000000000E+00 -0.45593999997E+02  0.45594000000E+02  0.51100000000E-03 0.  1.
    9900012    2    1    2    0    0 -0.20617812086E+02 -0.20124453184E+02  0.28689321404E+02  0.50528868752E+02  0.30000027060E+02 0.  0.
        -12    1    1    2    0    0  0.20617812086E+02  0.20124453184E+02 -0.28689321404E+02  0.40659131248E+02  0.00000000000E+00 0.  1.
         11    1    3    3    0    0 -0.75785697663E+01 -0.25329235099E+01  0.40357567062E+00  0.80008308814E+01  0.51100000000E-03 0.  1.
        -11    1    3    3    0    0 -0.15616957545E+02 -0.18360792112E+02  0.13759584548E+02  0.27754895373E+02  0.51100000000E-03 0. -1.
        -12    1    3    3    0    0  0.25777152256E+01  0.76926243811E+00  0.14526161186E+02  0.14773142499E+02  0.00000000000E+00 0.  1.
</event>
<event>
 7    1  0.5843820E-012  0.5052885E+02  0.7816164E-02  0.1300439E+00
        -11   -1    0    0    0    0  0.00000000000E+00  0.00000000000E+00  0.45593999997E+02  0.45594000000E+02  0.51100000000E-03 0. -1.
         11   -1    0    0    0    0 -0.00000000000E+00 -0.00000000000E+00 -0.45593999997E+02  0.45594000000E+02  0.51100000000E-03 0.  1.
    9900012    2    1    2    0    0 -0.58316095190E+01  0.10897391032E+02  0.38735073404E+02  0.50528847125E+02  0.29999961322E+02 0.  0.
        -12    1    1    2    0    0  0.58316095190E+01 -0.10897391032E+02 -0.38735073404E+02  0.40659152875E+02  0.00000000000E+00 0.  1.
         11    1    3    3    0    0 -0.85548587738E+01 -0.58449746277E+00  0.18632524389E+02  0.20510929070E+02  0.51100000000E-03 0. -1.
        -11    1    3    3    0    0 -0.44744818804E+00  0.32557705977E+01  0.20908434555E+02  0.21165133779E+02  0.51100000000E-03 0.  1.
        -12    1    3    3    0    0  0.31706974428E+01  0.82261178976E+01 -0.80588554091E+00  0.88527842763E+01  0.00000000000E+00 0.  1.
</event>
<event>
 7    1  0.5843820E-012  0.5052886E+02  0.7816164E-02  0.1300439E+00
        -11   -1    0    0    0    0  0.00000000000E+00  0.00000000000E+00  0.45593999997E+02  0.45594000000E+02  0.51100000000E-03 0. -1.
         11   -1    0    0    0    0 -0.00000000000E+00 -0.00000000000E+00 -0.45593999997E+02  0.45594000000E+02  0.51100000000E-03 0.  1.
    9900012    2    1    2    0    0  0.23480645287E+02  0.71746519672E+01 -0.32409094889E+02  0.50528858771E+02  0.29999996722E+02 0.  0.
         12    1    1    2    0    0 -0.23480645287E+02 -0.71746519672E+01  0.32409094889E+02  0.40659141229E+02  0.00000000000E+00 0. -1.
         11    1    3    3    0    0  0.95890639125E+01  0.34191262880E+01 -0.10181890842E+02  0.14398314925E+02  0.51100000000E-03 0.  1.
        -11    1    3    3    0    0  0.81260002740E+01  0.51604240122E+01 -0.26904410217E+02  0.28574624159E+02  0.51100000000E-03 0. -1.
         12    1    3    3    0    0  0.57655811006E+01 -0.14048983330E+01  0.46772061711E+01  0.75559196873E+01  0.00000000000E+00 0. -1.
</event>
<event>
 7    1  0.5843820E-012  0.5052886E+02  0.7816164E-02  0.1300439E+00
        -11   -1    0    0    0    0  0.00000000000E+00  0.00000000000E+00  0.45593999997E+02  0.45594000000E+02  0.51100000000E-03 0. -1.
         11   -1    0    0    0    0 -0.00000000000E+00 -0.00000000000E+00 -0.45593999997E+02  0.45594000000E+02  0.51100000000E-03 0.  1.
    9900012    2    1    2    0    0  0.79487127449E+01 -0.12990464197E+02 -0.37699227148E+02  0.50528856848E+02  0.29999990874E+02 0.  0.
         12    1    1    2    0    0 -0.79487127449E+01  0.12990464197E+02  0.37699227148E+02  0.40659143152E+02  0.00000000000E+00 0. -1.
         11    1    3    3    0    0  0.24066864704E+01  0.10363916378E+01  0.40612712683E+01  0.48332361798E+01  0.51100000000E-03 0. -1.
        -11    1    3    3    0    0 -0.29474394649E+01 -0.41221211542E+01 -0.16572866521E+02  0.17330296801E+02  0.51100000000E-03 0.  1.
        -12    1    3    3    0    0  0.84894657395E+01 -0.99047346804E+01 -0.25187631895E+02  0.28365323867E+02  0.00000000000E+00 0.  1.
</event>
<event>
 7    1  0.5843820E-012  0.5052882E+02  0.7816164E-02  0.1300439E+00
        -11   -1    0    0    0    0  0.00000000000E+00  0.00000000000E+00  0.45593999997E+02  0.45594000000E+02  0.51100000000E-03 0. -1.
         11   -1    0    0    0    0 -0.00000000000E+00 -0.00000000000E+00 -0.45593999997E+02  0.45594000000E+02  0.51100000000E-03 0.  1.
    9900012    2    1    2    0    0  0.55872517373E+00 -0.99998719553E+01 -0.39406334878E+02  0.50528820944E+02  0.29999881742E+02 0.  0.
         12    1    1    2    0    0 -0.55872517373E+00  0.99998719553E+01  0.39406334878E+02  0.40659179056E+02  0.00000000000E+00 0. -1.
         11    1    3    3    0    0  0.85134451448E+00 -0.64627335882E+01 -0.47722252734E+01  0.80787280704E+01  0.51100000000E-03 0. -1.
        -11    1    3    3    0    0 -0.15269511259E+01  0.51237137862E+01  0.12703049075E+01  0.54952431723E+01  0.51100000000E-03 0.  1.
        -12    1    3    3    0    0  0.12343317852E+01 -0.86608521533E+01 -0.35904414512E+02  0.36954849702E+02  0.00000000000E+00 0.  1.
</event>
<event>
 7    1  0.5843820E-012  0.5052885E+02  0.7816164E-02  0.1300439E+00
        -11   -1    0    0    0    0  0.00000000000E+00  0.00000000000E+00  0.45593999997E+02  0.45594000000E+02  0.51100000000E-03 0. -1.
         11   -1    0    0    0    0 -0.00000000000E+00 -0.00000000000E+00 -0.45593999997E+02  0.45594000000E+02  0.51100000000E-03 0.  1.
    9900012    2    1    2    0    0 -0.36807616981E+02  0.11931273399E+02 -0.12490414057E+02  0.50528851016E+02  0.29999973148E+02 0.  0.
         12    1    1    2    0    0  0.36807616981E+02 -0.11931273399E+02  0.12490414057E+02  0.40659148984E+02  0.00000000000E+00 0. -1.
         11    1    3    3    0    0 -0.15390538721E+02  0.83260648502E+01  0.85198098711E+00  0.17519072746E+02  0.51100000000E-03 0. -1.
        -11    1    3    3    0    0 -0.21837855839E+02  0.22699346869E+01 -0.25227961666E+01  0.22099978550E+02  0.51100000000E-03 0.  1.
         12    1    3    3    0    0  0.42077757921E+00  0.13352738623E+01 -0.10819598878E+02  0.10909799720E+02  0.00000000000E+00 0. -1.
</event>
<event>
 7    1  0.5843820E-012  0.5052886E+02  0.7816164E-02  0.1300439E+00
        -11   -1    0    0    0    0  0.00000000000E+00  0.00000000000E+00  0.45593999997E+02  0.45594000000E+02  0.51100000000E-03 0. -1.
         11   -1    0    0    0    0 -0.00000000000E+00 -0.00000000000E+00 -0.45593999997E+02  0.45594000000E+02  0.51100000000E-03 0.  1.
    9900012    2    1    2    0    0  0.21009528902E+02 -0.27506549993E+01  0.34701573637E+02  0.50528860553E+02  0.30000002138E+02 0.  0.
        -12    1    1    2    0    0 -0.21009528902E+02  0.27506549993E+01 -0.34701573637E+02  0.40659139447E+02  0.00000000000E+00 0.  1.
         11    1    3    3    0    0  0.60721644390E+00  0.71825982109E+01  0.24457054411E+02  0.25497175129E+02  0.51100000000E-03 0. -1.
        -11    1    3    3    0    0  0.10981053460E+01 -0.87620722181E+00  0.73224796160E-01  0.14067468068E+01  0.51100000000E-03 0.  1.
         12    1    3    3    0    0  0.19304207113E+02 -0.90570459883E+01  0.10171294431E+02  0.23624938617E+02  0.00000000000E+00 0. -1.
</event>
<event>
 7    1  0.5843820E-012  0.5052886E+02  0.7816164E-02  0.1300439E+00
        -11   -1    0    0    0    0  0.00000000000E+00  0.00000000000E+00  0.45593999997E+02  0.45594000000E+02  0.51100000000E-03 0. -1.
         11   -1    0    0    0    0 -0.00000000000E+00 -0.00000000000E+00 -0.45593999997E+02  0.45594000000E+02  0.51100000000E-03 0.  1.
    9900012    2    1    2    0    0  0.10029171187E+02  0.83676722264E+01  0.38504075347E+02  0.50528855500E+02  0.29999986777E+02 0.  0.
        -12    1    1    2    0    0 -0.10029171187E+02 -0.83676722264E+01 -0.38504075347E+02  0.40659144500E+02  0.00000000000E+00 0.  1.
         11    1    3    3    0    0  0.53074920433E+01  0.62879658401E+01  0.26064876623E+02  0.27332869952E+02  0.51100000000E-03 0. -1.
        -11    1    3    3    0    0 -0.64276095734E+01  0.15625408969E+01  0.18033175693E+00  0.66172667081E+01  0.51100000000E-03 0.  1.
         12    1    3    3    0    0  0.11149288718E+02  0.51716548949E+00  0.12258866967E+02  0.16578718840E+02  0.00000000000E+00 0. -1.
</event>
<event>
 7    1  0.1071836E-011  0.5052886E+02  0.7816164E-02  0.1300439E+00
        -11   -1    0    0    0    0  0.00000000000E+00  0.00000000000E+00  0.45593999997E+02  0.45594000000E+02  0.51100000000E-03 0. -1.
         11   -1    0    0    0    0 -0.00000000000E+00 -0.00000000000E+00 -0.45593999997E+02  0.45594000000E+02  0.51100000000E-03 0.  1.
    9900012    2    1    2    0    0  0.64658917099E+01  0.11037878973E+02 -0.38594339143E+02  0.50528861523E+02  0.30000005084E+02 0.  0.
         12    1    1    2    0    0 -0.64658917099E+01 -0.11037878973E+02  0.38594339143E+02  0.40659138477E+02  0.00000000000E+00 0. -1.
         11    1    3    3    0    0 -0.73937849899E+01 -0.10677902266E+01 -0.12031023438E+02  0.14161700381E+02  0.51100000000E-03 0. -1.
        -11    1    3    3    0    0  0.44997505150E+01 -0.16392285761E+00  0.11496129214E+01  0.46471750054E+01  0.51100000000E-03 0.  1.
        -12    1    3    3    0    0  0.93599261848E+01  0.12269592058E+02 -0.27712928626E+02  0.31719986136E+02  0.00000000000E+00 0.  1.
</event>
<event>
 7    1  0.5843820E-012  0.5052882E+02  0.7816164E-02  0.1300439E+00
        -11   -1    0    0    0    0  0.00000000000E+00  0.00000000000E+00  0.45593999997E+02  0.45594000000E+02  0.51100000000E-03 0. -1.
         11   -1    0    0    0    0 -0.00000000000E+00 -0.00000000000E+00 -0.45593999997E+02  0.45594000000E+02  0.51100000000E-03 0.  1.
    9900012    2    1    2    0    0  0.38125198176E+02  0.36465695230E+01  0.13650653163E+02  0.50528824688E+02  0.29999893123E+02 0.  0.
        -12    1    1    2    0    0 -0.38125198176E+02 -0.36465695230E+01 -0.13650653163E+02  0.40659175312E+02  0.00000000000E+00 0.  1.
         11    1    3    3    0    0  0.37166615714E+02 -0.11649509798E+01  0.11664622878E+02  0.38971500633E+02  0.51100000000E-03 0. -1.
        -11    1    3    3    0    0  0.18436992163E+01  0.32107125299E+01 -0.39095635579E+01  0.53844766899E+01  0.51100000000E-03 0.  1.
        -12    1    3    3    0    0 -0.88511675433E+00  0.16008079729E+01  0.58955938434E+01  0.61728473658E+01  0.00000000000E+00 0.  1.
</event>
<event>
 7    1  0.5843820E-012  0.5052887E+02  0.7816164E-02  0.1300439E+00
        -11   -1    0    0    0    0  0.00000000000E+00  0.00000000000E+00  0.45593999997E+02  0.45594000000E+02  0.51100000000E-03 0. -1.
         11   -1    0    0    0    0 -0.00000000000E+00 -0.00000000000E+00 -0.45593999997E+02  0.45594000000E+02  0.51100000000E-03 0.  1.
    9900012    2    1    2    0    0  0.37833872530E+02 -0.18908570987E+01 -0.14771179583E+02  0.50528868216E+02  0.30000025430E+02 0.  0.
         12    1    1    2    0    0 -0.37833872530E+02  0.18908570987E+01  0.14771179583E+02  0.40659131784E+02  0.00000000000E+00 0. -1.
         11    1    3    3    0    0  0.57327447798E+01 -0.15503181320E+01  0.41260134588E+01  0.72313094488E+01  0.51100000000E-03 0. -1.
        -11    1    3    3    0    0 -0.28363590623E+01 -0.27302955399E+01 -0.19164660216E+01  0.43786172176E+01  0.51100000000E-03 0.  1.
        -12    1    3    3    0    0  0.34937486812E+02  0.23897565732E+01 -0.16980727020E+02  0.38918941550E+02  0.00000000000E+00 0.  1.
</event>
<event>
 7    1  0.5843820E-012  0.5052880E+02  0.7816164E-02  0.1300439E+00
        -11   -1    0    0    0    0  0.00000000000E+00  0.00000000000E+00  0.45593999997E+02  0.45594000000E+02  0.51100000000E-03 0. -1.
         11   -1    0    0    0    0 -0.00000000000E+00 -0.00000000000E+00 -0.45593999997E+02  0.45594000000E+02  0.51100000000E-03 0.  1.
    9900012    2    1    2    0    0  0.10246602311E+02 -0.19808638568E+01  0.39296996292E+02  0.50528799342E+02  0.29999816081E+02 0.  0.
        -12    1    1    2    0    0 -0.10246602311E+02  0.19808638568E+01 -0.39296996292E+02  0.40659200658E+02  0.00000000000E+00 0.  1.
         11    1    3    3    0    0  0.33356753843E+01 -0.57559137350E+00  0.18087818301E+02  0.18401826183E+02  0.51100000000E-03 0. -1.
        -11    1    3    3    0    0 -0.31931909931E+01 -0.76078425090E+01  0.18066714314E+02  0.19861568486E+02  0.51100000000E-03 0.  1.
         12    1    3    3    0    0  0.10104117920E+02  0.62025700257E+01  0.31424636772E+01  0.12265404674E+02  0.00000000000E+00 0. -1.
</event>
<event>
 7    1  0.5843820E-012  0.5052886E+02  0.7816164E-02  0.1300439E+00
        -11   -1    0    0    0    0  0.00000000000E+00  0.00000000000E+00  0.45593999997E+02  0.45594000000E+02  0.51100000000E-03 0.  1.
         11   -1    0    0    0    0 -0.00000000000E+00 -0.00000000000E+00 -0.45593999997E+02  0.45594000000E+02  0.51100000000E-03 0. -1.
    9900012    2    1    2    0    0 -0.30000804765E+02  0.27442641542E+02  0.13800162838E+00  0.50528857045E+02  0.29999991475E+02 0.  0.
         12    1    1    2    0    0  0.30000804765E+02 -0.27442641542E+02 -0.13800162838E+00  0.40659142955E+02  0.00000000000E+00 0. -1.
         11    1    3    3    0    0 -0.12551678715E+02  0.11033274758E+02 -0.50579765413E+01  0.17460266820E+02  0.51100000000E-03 0. -1.
        -11    1    3    3    0    0  0.10197052032E+01  0.10667411326E+02  0.82031469993E+01  0.13495372690E+02  0.51100000000E-03 0.  1.
         12    1    3    3    0    0 -0.18468831253E+02  0.57419554582E+01 -0.30071688296E+01  0.19573217535E+02  0.00000000000E+00 0. -1.
</event>
<event>
 7    1  0.7874308E-012  0.5052886E+02  0.7816164E-02  0.1300439E+00
        -11   -1    0    0    0    0  0.00000000000E+00  0.00000000000E+00  0.45593999997E+02  0.45594000000E+02  0.51100000000E-03 0. -1.
         11   -1    0    0    0    0 -0.00000000000E+00 -0.00000000000E+00 -0.45593999997E+02  0.45594000000E+02  0.51100000000E-03 0.  1.
    9900012    2    1    2    0    0 -0.23263191426E+01  0.21457169317E+02 -0.34457857015E+02  0.50528858520E+02  0.29999995957E+02 0.  0.
         12    1    1    2    0    0  0.23263191426E+01 -0.21457169317E+02  0.34457857015E+02  0.40659141480E+02  0.00000000000E+00 0. -1.
         11    1    3    3    0    0  0.95951675569E+00 -0.19936830114E-01  0.30277610849E+01  0.31762253273E+01  0.51100000000E-03 0. -1.
        -11    1    3    3    0    0 -0.19060546906E+01  0.16736842078E+02 -0.10347961690E+02  0.19769553324E+02  0.51100000000E-03 0.  1.
        -12    1    3    3    0    0 -0.13797812078E+01  0.47402640689E+01 -0.27137656410E+02  0.27583079869E+02  0.00000000000E+00 0.  1.
</event>
<event>
 7    1  0.5843820E-012  0.5052884E+02  0.7816164E-02  0.1300439E+00
        -11   -1    0    0    0    0  0.00000000000E+00  0.00000000000E+00  0.45593999997E+02  0.45594000000E+02  0.51100000000E-03 0. -1.
         11   -1    0    0    0    0 -0.00000000000E+00 -0.00000000000E+00 -0.45593999997E+02  0.45594000000E+02  0.51100000000E-03 0.  1.
    9900012    2    1    2    0    0 -0.30269537852E+02 -0.22810104504E+02 -0.14718057723E+02  0.50528843438E+02  0.29999950113E+02 0.  0.
         12    1    1    2    0    0  0.30269537852E+02  0.22810104504E+02  0.14718057723E+02  0.40659156562E+02  0.00000000000E+00 0. -1.
         11    1    3    3    0    0 -0.76646804303E+01 -0.84561113573E+01 -0.12753575887E+02  0.17114521423E+02  0.51100000000E-03 0. -1.
        -11    1    3    3    0    0 -0.22265095432E+02 -0.17368241836E+02 -0.54864616080E+01  0.28766153033E+02  0.51100000000E-03 0.  1.
        -12    1    3    3    0    0 -0.33976198891E+00  0.30142486895E+01  0.35219797711E+01  0.46481689814E+01  0.00000000000E+00 0.  1.
</event>
<event>
 7    1  0.5843820E-012  0.5052885E+02  0.7816164E-02  0.1300439E+00
        -11   -1    0    0    0    0  0.00000000000E+00  0.00000000000E+00  0.45593999997E+02  0.45594000000E+02  0.51100000000E-03 0. -1.
         11   -1    0    0    0    0 -0.00000000000E+00 -0.00000000000E+00 -0.45593999997E+02  0.45594000000E+02  0.51100000000E-03 0.  1.
    9900012    2    1    2    0    0  0.13356163097E+02 -0.14253343728E+01 -0.38376395381E+02  0.50528851052E+02  0.29999973256E+02 0.  0.
         12    1    1    2    0    0 -0.13356163097E+02  0.14253343728E+01  0.38376395381E+02  0.40659148948E+02  0.00000000000E+00 0. -1.
         11    1    3    3    0    0  0.14726212328E+02  0.17564078328E+01 -0.26062622902E+02  0.29986773931E+02  0.51100000000E-03 0. -1.
        -11    1    3    3    0    0  0.39551233814E+01 -0.43618246593E+01 -0.13702253888E+02  0.14913761336E+02  0.51100000000E-03 0.  1.
         12    1    3    3    0    0 -0.53251726124E+01  0.11800824537E+01  0.13884814083E+01  0.56283157845E+01  0.00000000000E+00 0. -1.
</event>
<event>
 7    1  0.5843820E-012  0.5052886E+02  0.7816164E-02  0.1300439E+00
        -11   -1    0    0    0    0  0.00000000000E+00  0.00000000000E+00  0.45593999997E+02  0.45594000000E+02  0.51100000000E-03 0. -1.
         11   -1    0    0    0    0 -0.00000000000E+00 -0.00000000000E+00 -0.45593999997E+02  0.45594000000E+02  0.51100000000E-03 0.  1.
    9900012    2    1    2    0    0  0.12876214530E+02 -0.31582947808E+02 -0.22133370651E+02  0.50528860938E+02  0.30000003309E+02 0.  0.
         12    1    1    2    0    0 -0.12876214530E+02  0.31582947808E+02  0.22133370651E+02  0.40659139062E+02  0.00000000000E+00 0. -1.
         11    1    3    3    0    0  0.44170407619E+01  0.17854478590E+00 -0.25495015334E+00  0.44279935834E+01  0.51100000000E-03 0. -1.
        -11    1    3    3    0    0  0.15383193953E+02 -0.12025453136E+02 -0.12460755155E+02  0.23163000639E+02  0.51100000000E-03 0.  1.
         12    1    3    3    0    0 -0.69240201842E+01 -0.19736039457E+02 -0.94176653428E+01  0.22937866716E+02  0.00000000000E+00 0. -1.
</event>
<event>
 7    1  0.5843820E-012  0.5052886E+02  0.7816164E-02  0.1300439E+00
        -11   -1    0    0    0    0  0.00000000000E+00  0.00000000000E+00  0.45593999997E+02  0.45594000000E+02  0.51100000000E-03 0. -1.
         11   -1    0    0    0    0 -0.00000000000E+00 -0.00000000000E+00 -0.45593999997E+02  0.45594000000E+02  0.51100000000E-03 0.  1.
    9900012    2    1    2    0    0  0.84083405376E+01  0.24788287396E+02 -0.31112796735E+02  0.50528861995E+02  0.30000006520E+02 0.  0.
         12    1    1    2    0    0 -0.84083405376E+01 -0.24788287396E+02  0.31112796735E+02  0.40659138005E+02  0.00000000000E+00 0. -1.
         11    1    3    3    0    0 -0.30740999427E+01  0.14951360529E+01  0.14761415700E+00  0.34215950191E+01  0.51100000000E-03 0. -1.
        -11    1    3    3    0    0 -0.72440235518E+01  0.95747953973E+01 -0.99039405347E+01  0.15564081165E+02  0.51100000000E-03 0.  1.
        -12    1    3    3    0    0  0.18726464032E+02  0.13718355945E+02 -0.21356470358E+02  0.31543185811E+02  0.00000000000E+00 0.  1.
</event>
<event>
 7    1  0.5843820E-012  0.5052884E+02  0.7816164E-02  0.1300439E+00
        -11   -1    0    0    0    0  0.00000000000E+00  0.00000000000E+00  0.45593999997E+02  0.45594000000E+02  0.51100000000E-03 0. -1.
         11   -1    0    0    0    0 -0.00000000000E+00 -0.00000000000E+00 -0.45593999997E+02  0.45594000000E+02  0.51100000000E-03 0.  1.
    9900012    2    1    2    0    0 -0.29570609117E+02 -0.11842921635E+02 -0.25268390226E+02  0.50528840380E+02  0.29999940818E+02 0.  0.
         12    1    1    2    0    0  0.29570609117E+02  0.11842921635E+02  0.25268390226E+02  0.40659159620E+02  0.00000000000E+00 0. -1.
         11    1    3    3    0    0 -0.20912159939E+02 -0.12645412123E+02 -0.23420839514E+02  0.33849085732E+02  0.51100000000E-03 0. -1.
        -11    1    3    3    0    0 -0.50559252558E+01 -0.57708671521E+01 -0.42972018224E+01  0.87938178081E+01  0.51100000000E-03 0.  1.
         12    1    3    3    0    0 -0.36025239222E+01  0.65733576399E+01  0.24496511106E+01  0.78859368394E+01  0.00000000000E+00 0. -1.
</event>
<event>
 7    1  0.6002617E-012  0.5052885E+02  0.7816164E-02  0.1300439E+00
        -11   -1    0    0    0    0  0.00000000000E+00  0.00000000000E+00  0.45593999997E+02  0.45594000000E+02  0.51100000000E-03 0. -1.
         11   -1    0    0    0    0 -0.00000000000E+00 -0.00000000000E+00 -0.45593999997E+02  0.45594000000E+02  0.51100000000E-03 0.  1.
    9900012    2    1    2    0    0 -0.69381347485E+01 -0.75397020943E+00 -0.40055714623E+02  0.50528850244E+02  0.29999970803E+02 0.  0.
         12    1    1    2    0    0  0.69381347485E+01  0.75397020943E+00  0.40055714623E+02  0.40659149756E+02  0.00000000000E+00 0. -1.
         11    1    3    3    0    0 -0.68179747446E+00 -0.65665119893E+01 -0.66152635368E+01  0.93458889050E+01  0.51100000000E-03 0. -1.
        -11    1    3    3    0    0  0.43624879063E+00 -0.60220527479E+01 -0.11492078590E+01  0.61462274014E+01  0.51100000000E-03 0.  1.
        -12    1    3    3    0    0 -0.66925860646E+01  0.11834594528E+02 -0.32291243227E+02  0.35036733938E+02  0.00000000000E+00 0.  1.
</event>
<event>
 7    1  0.5843820E-012  0.5052886E+02  0.7816164E-02  0.1300439E+00
        -11   -1    0    0    0    0  0.00000000000E+00  0.00000000000E+00  0.45593999997E+02  0.45594000000E+02  0.51100000000E-03 0.  1.
         11   -1    0    0    0    0 -0.00000000000E+00 -0.00000000000E+00 -0.45593999997E+02  0.45594000000E+02  0.51100000000E-03 0. -1.
    9900012    2    1    2    0    0 -0.47997522487E+01 -0.27011833609E+02  0.30008141891E+02  0.50528863803E+02  0.30000012014E+02 0.  0.
        -12    1    1    2    0    0  0.47997522487E+01  0.27011833609E+02 -0.30008141891E+02  0.40659136197E+02  0.00000000000E+00 0.  1.
         11    1    3    3    0    0 -0.47156143126E+01 -0.21507990000E+02  0.15853672751E+02  0.27132445377E+02  0.51100000000E-03 0. -1.
        -11    1    3    3    0    0 -0.67023332539E+01 -0.14747684921E+01 -0.43573851846E+00  0.68764875823E+01  0.51100000000E-03 0.  1.
         12    1    3    3    0    0  0.66181953178E+01 -0.40290751176E+01  0.14590207658E+02  0.16519930844E+02  0.00000000000E+00 0. -1.
</event>
<event>
 7    1  0.5843820E-012  0.5052886E+02  0.7816164E-02  0.1300439E+00
        -11   -1    0    0    0    0  0.00000000000E+00  0.00000000000E+00  0.45593999997E+02  0.45594000000E+02  0.51100000000E-03 0. -1.
         11   -1    0    0    0    0 -0.00000000000E+00 -0.00000000000E+00 -0.45593999997E+02  0.45594000000E+02  0.51100000000E-03 0.  1.
    9900012    2    1    2    0    0 -0.12054176760E+02  0.27678246945E+02  0.27235579207E+02  0.50528864421E+02  0.30000013893E+02 0.  0.
        -12    1    1    2    0    0  0.12054176760E+02 -0.27678246945E+02 -0.27235579207E+02  0.40659135579E+02  0.00000000000E+00 0.  1.
         11    1    3    3    0    0 -0.90475680540E+01  0.99531112682E+01  0.15411676993E+02  0.20455872008E+02  0.51100000000E-03 0. -1.
        -11    1    3    3    0    0 -0.53035103415E+01 -0.25609905859E+01  0.69002912839E+01  0.90719300475E+01  0.51100000000E-03 0.  1.
         12    1    3    3    0    0  0.22969016352E+01  0.20286126263E+02  0.49236109300E+01  0.21001062365E+02  0.00000000000E+00 0. -1.
</event>
<event>
 7    1  0.5843820E-012  0.5052885E+02  0.7816164E-02  0.1300439E+00
        -11   -1    0    0    0    0  0.00000000000E+00  0.00000000000E+00  0.45593999997E+02  0.45594000000E+02  0.51100000000E-03 0. -1.
         11   -1    0    0    0    0 -0.00000000000E+00 -0.00000000000E+00 -0.45593999997E+02  0.45594000000E+02  0.51100000000E-03 0.  1.
    9900012    2    1    2    0    0 -0.20684963784E+02 -0.34408336249E+02  0.64315499284E+01  0.50528853862E+02  0.29999981798E+02 0.  0.
        -12    1    1    2    0    0  0.20684963784E+02  0.34408336249E+02 -0.64315499284E+01  0.40659146138E+02  0.00000000000E+00 0.  1.
         11    1    3    3    0    0 -0.41043541336E+01  0.22668465543E+01 -0.22320167241E+01  0.51929004489E+01  0.51100000000E-03 0. -1.
        -11    1    3    3    0    0 -0.49094245507E+01 -0.63743026546E+01 -0.56691999660E+01  0.98424596655E+01  0.51100000000E-03 0.  1.
        -12    1    3    3    0    0 -0.11671185100E+02 -0.30300880149E+02  0.14332766618E+02  0.35493493747E+02  0.00000000000E+00 0.  1.
</event>
<event>
 7    1  0.5843820E-012  0.5052887E+02  0.7816164E-02  0.1300439E+00
        -11   -1    0    0    0    0  0.00000000000E+00  0.00000000000E+00  0.45593999997E+02  0.45594000000E+02  0.51100000000E-03 0. -1.
         11   -1    0    0    0    0 -0.00000000000E+00 -0.00000000000E+00 -0.45593999997E+02  0.45594000000E+02  0.51100000000E-03 0.  1.
    9900012    2    1    2    0    0 -0.34869332930E+02 -0.85809696782E+01  0.19069914615E+02  0.50528867410E+02  0.30000022978E+02 0.  0.
        -12    1    1    2    0    0  0.34869332930E+02  0.85809696782E+01 -0.19069914615E+02  0.40659132590E+02  0.00000000000E+00 0.  1.
         11    1    3    3    0    0 -0.70694127661E+01 -0.70057163205E+01  0.11894573711E+01  0.10023545636E+02  0.51100000000E-03 0. -1.
        -11    1    3    3    0    0 -0.17586659013E+02  0.52677134869E+01 -0.53145106134E+00  0.18366323016E+02  0.51100000000E-03 0.  1.
         12    1    3    3    0    0 -0.10213261151E+02 -0.68429668447E+01  0.18411908305E+02  0.22138998758E+02  0.00000000000E+00 0. -1.
</event>
<event>
 7    1  0.5843820E-012  0.5052886E+02  0.7816164E-02  0.1300439E+00
        -11   -1    0    0    0    0  0.00000000000E+00  0.00000000000E+00  0.45593999997E+02  0.45594000000E+02  0.51100000000E-03 0. -1.
         11   -1    0    0    0    0 -0.00000000000E+00 -0.00000000000E+00 -0.45593999997E+02  0.45594000000E+02  0.51100000000E-03 0.  1.
    9900012    2    1    2    0    0 -0.64207628824E+00  0.50680572128E+00 -0.40650910687E+02  0.50528860146E+02  0.30000000899E+02 0.  0.
         12    1    1    2    0    0  0.64207628824E+00 -0.50680572128E+00  0.40650910687E+02  0.40659139854E+02  0.00000000000E+00 0. -1.
         11    1    3    3    0    0  0.49071712802E+01 -0.86789075445E+01 -0.22101703802E+02  0.24246424012E+02  0.51100000000E-03 0. -1.
        -11    1    3    3    0    0  0.28327917922E+01 -0.10474438470E+01 -0.10205312462E+02  0.10642849743E+02  0.51100000000E-03 0.  1.
         12    1    3    3    0    0 -0.83820393606E+01  0.10233157113E+02 -0.83438944228E+01  0.15639586391E+02  0.00000000000E+00 0. -1.
</event>
<event>
 7    1  0.5843820E-012  0.5052886E+02  0.7816164E-02  0.1300439E+00
        -11   -1    0    0    0    0  0.00000000000E+00  0.00000000000E+00  0.45593999997E+02  0.45594000000E+02  0.51100000000E-03 0.  1.
         11   -1    0    0    0    0 -0.00000000000E+00 -0.00000000000E+00 -0.45593999997E+02  0.45594000000E+02  0.51100000000E-03 0. -1.
    9900012    2    1    2    0    0 -0.39850497250E+02  0.92109475827E+00  0.80159239840E+01  0.50528861003E+02  0.30000003505E+02 0.  0.
         12    1    1    2    0    0  0.39850497250E+02 -0.92109475827E+00 -0.80159239840E+01  0.40659138997E+02  0.00000000000E+00 0. -1.
         11    1    3    3    0    0 -0.71687937413E+01 -0.36490330005E-01 -0.88830430750E+01  0.11414963416E+02  0.51100000000E-03 0. -1.
        -11    1    3    3    0    0 -0.14463118331E+02 -0.45470086510E+01  0.27733209326E+01  0.15412604867E+02  0.51100000000E-03 0.  1.
         12    1    3    3    0    0 -0.18218585178E+02  0.55045937393E+01  0.14125646126E+02  0.23701292720E+02  0.00000000000E+00 0. -1.
</event>
<event>
 7    1  0.5843820E-012  0.5052893E+02  0.7816164E-02  0.1300439E+00
        -11   -1    0    0    0    0  0.00000000000E+00  0.00000000000E+00  0.45593999997E+02  0.45594000000E+02  0.51100000000E-03 0. -1.
         11   -1    0    0    0    0 -0.00000000000E+00 -0.00000000000E+00 -0.45593999997E+02  0.45594000000E+02  0.51100000000E-03 0.  1.
    9900012    2    1    2    0    0 -0.19961465220E+02 -0.29257097982E+02  0.19968035318E+02  0.50528925853E+02  0.30000200621E+02 0.  0.
        -12    1    1    2    0    0  0.19961465220E+02  0.29257097982E+02 -0.19968035318E+02  0.40659074147E+02  0.00000000000E+00 0.  1.
         11    1    3    3    0    0 -0.99736878356E+01 -0.30247456052E+01  0.94814537846E+00  0.10465300518E+02  0.51100000000E-03 0. -1.
        -11    1    3    3    0    0 -0.10895426646E+02 -0.11523119613E+02 -0.18042668634E+00  0.15859544806E+02  0.51100000000E-03 0.  1.
        -12    1    3    3    0    0  0.90764926180E+00 -0.14709232765E+02  0.19200316626E+02  0.24204080528E+02  0.00000000000E+00 0.  1.
</event>
<event>
 7    1  0.5843820E-012  0.5052886E+02  0.7816164E-02  0.1300439E+00
        -11   -1    0    0    0    0  0.00000000000E+00  0.00000000000E+00  0.45593999997E+02  0.45594000000E+02  0.51100000000E-03 0. -1.
         11   -1    0    0    0    0 -0.00000000000E+00 -0.00000000000E+00 -0.45593999997E+02  0.45594000000E+02  0.51100000000E-03 0.  1.
    9900012    2    1    2    0    0  0.10851222401E+02  0.10442711093E+02 -0.37767266614E+02  0.50528859944E+02  0.30000000287E+02 0.  0.
         12    1    1    2    0    0 -0.10851222401E+02 -0.10442711093E+02  0.37767266614E+02  0.40659140056E+02  0.00000000000E+00 0. -1.
         11    1    3    3    0    0  0.33121694450E+01  0.82388641677E+01 -0.13450043203E+02  0.16116854893E+02  0.51100000000E-03 0.  1.
        -11    1    3    3    0    0  0.39401728070E+01  0.36406044312E+01  0.34483600204E+01  0.63773152239E+01  0.51100000000E-03 0. -1.
         12    1    3    3    0    0  0.35988801491E+01 -0.14367575061E+01 -0.27765583431E+02  0.28034689828E+02  0.00000000000E+00 0. -1.
</event>
<event>
 7    1  0.5843820E-012  0.5052887E+02  0.7816164E-02  0.1300439E+00
        -11   -1    0    0    0    0  0.00000000000E+00  0.00000000000E+00  0.45593999997E+02  0.45594000000E+02  0.51100000000E-03 0. -1.
         11   -1    0    0    0    0 -0.00000000000E+00 -0.00000000000E+00 -0.45593999997E+02  0.45594000000E+02  0.51100000000E-03 0.  1.
    9900012    2    1    2    0    0 -0.53706133645E+00 -0.29970180628E+02 -0.27471166335E+02  0.50528866444E+02  0.30000020043E+02 0.  0.
         12    1    1    2    0    0  0.53706133645E+00  0.29970180628E+02  0.27471166335E+02  0.40659133556E+02  0.00000000000E+00 0. -1.
         11    1    3    3    0    0 -0.43616459325E+01 -0.12284813484E+01 -0.17539603429E+01  0.48589606718E+01  0.51100000000E-03 0. -1.
        -11    1    3    3    0    0 -0.24693645272E+00 -0.86380706716E+01  0.40310518961E+01  0.95355451962E+01  0.51100000000E-03 0.  1.
        -12    1    3    3    0    0  0.40715210488E+01 -0.20103628608E+02 -0.29748257888E+02  0.36134360576E+02  0.00000000000E+00 0.  1.
</event>
<event>
 7    1  0.5843820E-012  0.5052884E+02  0.7816164E-02  0.1300439E+00
        -11   -1    0    0    0    0  0.00000000000E+00  0.00000000000E+00  0.45593999997E+02  0.45594000000E+02  0.51100000000E-03 0. -1.
         11   -1    0    0    0    0 -0.00000000000E+00 -0.00000000000E+00 -0.45593999997E+02  0.45594000000E+02  0.51100000000E-03 0.  1.
    9900012    2    1    2    0    0  0.25123744955E+02  0.15198939589E+02  0.28123958211E+02  0.50528839277E+02  0.29999937466E+02 0.  0.
        -12    1    1    2    0    0 -0.25123744955E+02 -0.15198939589E+02 -0.28123958211E+02  0.40659160723E+02  0.00000000000E+00 0.  1.
         11    1    3    3    0    0  0.12662290465E+02  0.75768764363E+01  0.68462056570E+01  0.16266935437E+02  0.51100000000E-03 0. -1.
        -11    1    3    3    0    0 -0.31065819854E+01  0.63628324266E+01 -0.89846334555E+00  0.71374872865E+01  0.51100000000E-03 0.  1.
         12    1    3    3    0    0  0.15568036476E+02  0.12592307264E+01  0.22176215900E+02  0.27124416554E+02  0.00000000000E+00 0. -1.
</event>
<event>
 7    1  0.5843820E-012  0.5052889E+02  0.7816164E-02  0.1300439E+00
        -11   -1    0    0    0    0  0.00000000000E+00  0.00000000000E+00  0.45593999997E+02  0.45594000000E+02  0.51100000000E-03 0. -1.
         11   -1    0    0    0    0 -0.00000000000E+00 -0.00000000000E+00 -0.45593999997E+02  0.45594000000E+02  0.51100000000E-03 0.  1.
    9900012    2    1    2    0    0 -0.28407506773E+02 -0.23643148563E+02  0.16946326405E+02  0.50528894087E+02  0.30000104066E+02 0.  0.
        -12    1    1    2    0    0  0.28407506773E+02  0.23643148563E+02 -0.16946326405E+02  0.40659105913E+02  0.00000000000E+00 0.  1.
         11    1    3    3    0    0  0.99823974512E+00 -0.26656837335E+01  0.26381222133E+00  0.28586621880E+01  0.51100000000E-03 0. -1.
        -11    1    3    3    0    0 -0.44866869665E+01  0.48665425704E+01 -0.23654552941E+01  0.70291518361E+01  0.51100000000E-03 0.  1.
         12    1    3    3    0    0 -0.24919059551E+02 -0.25844007400E+02  0.19047969478E+02  0.40641080063E+02  0.00000000000E+00 0. -1.
</event>
<event>
 7    1  0.5843820E-012  0.5052885E+02  0.7816164E-02  0.1300439E+00
        -11   -1    0    0    0    0  0.00000000000E+00  0.00000000000E+00  0.45593999997E+02  0.45594000000E+02  0.51100000000E-03 0. -1.
         11   -1    0    0    0    0 -0.00000000000E+00 -0.00000000000E+00 -0.45593999997E+02  0.45594000000E+02  0.51100000000E-03 0.  1.
    9900012    2    1    2    0    0 -0.20025546665E+02 -0.53998130880E+01 -0.34971213840E+02  0.50528852221E+02  0.29999976812E+02 0.  0.
         12    1    1    2    0    0  0.20025546665E+02  0.53998130880E+01  0.34971213840E+02  0.40659147779E+02  0.00000000000E+00 0. -1.
         11    1    3    3    0    0  0.16080396401E+01  0.28112759154E+01 -0.53983864770E+01  0.62953665956E+01  0.51100000000E-03 0. -1.
        -11    1    3    3    0    0 -0.19221979929E+01  0.42240940372E+01 -0.17263613133E+02  0.17876525228E+02  0.51100000000E-03 0.  1.
        -12    1    3    3    0    0 -0.19711388312E+02 -0.12435183041E+02 -0.12309214230E+02  0.26356960398E+02  0.00000000000E+00 0.  1.
</event>
<event>
 7    1  0.5843820E-012  0.5052886E+02  0.7816164E-02  0.1300439E+00
        -11   -1    0    0    0    0  0.00000000000E+00  0.00000000000E+00  0.45593999997E+02  0.45594000000E+02  0.51100000000E-03 0. -1.
         11   -1    0    0    0    0 -0.00000000000E+00 -0.00000000000E+00 -0.45593999997E+02  0.45594000000E+02  0.51100000000E-03 0.  1.
    9900012    2    1    2    0    0 -0.38723345141E+01 -0.18709745337E+02  0.35890335090E+02  0.50528859600E+02  0.29999999240E+02 0.  0.
        -12    1    1    2    0    0  0.38723345141E+01  0.18709745337E+02 -0.35890335090E+02  0.40659140400E+02  0.00000000000E+00 0.  1.
         11    1    3    3    0    0 -0.42887337701E+00 -0.13068835515E+02  0.95430652283E+01  0.16187911796E+02  0.51100000000E-03 0. -1.
        -11    1    3    3    0    0 -0.15129237422E+01  0.34272213290E+01 -0.21872031020E+01  0.43380458687E+01  0.51100000000E-03 0.  1.
         12    1    3    3    0    0 -0.19305373949E+01 -0.90681311516E+01  0.28534472964E+02  0.30002901936E+02  0.00000000000E+00 0. -1.
</event>
<event>
 7    1  0.5843820E-012  0.5052888E+02  0.7816164E-02  0.1300439E+00
        -11   -1    0    0    0    0  0.00000000000E+00  0.00000000000E+00  0.45593999997E+02  0.45594000000E+02  0.51100000000E-03 0.  1.
         11   -1    0    0    0    0 -0.00000000000E+00 -0.00000000000E+00 -0.45593999997E+02  0.45594000000E+02  0.51100000000E-03 0. -1.
    9900012    2    1    2    0    0  0.39900479300E+02  0.77791031150E+01  0.77567261494E+00  0.50528876034E+02  0.30000049193E+02 0.  0.
        -12    1    1    2    0    0 -0.39900479300E+02 -0.77791031150E+01 -0.77567261494E+00  0.40659123966E+02  0.00000000000E+00 0.  1.
         11    1    3    3    0    0  0.97380020887E+01  0.14343111916E+02  0.73303416807E+01  0.18822525163E+02  0.51100000000E-03 0. -1.
        -11    1    3    3    0    0  0.35760033876E+01 -0.80782132620E+00  0.22087317945E+00  0.36727592823E+01  0.51100000000E-03 0.  1.
         12    1    3    3    0    0  0.26586473824E+02 -0.57561874746E+01 -0.67755422452E+01  0.28033591589E+02  0.00000000000E+00 0. -1.
</event>
<event>
 7    1  0.5843820E-012  0.5052886E+02  0.7816164E-02  0.1300439E+00
        -11   -1    0    0    0    0  0.00000000000E+00  0.00000000000E+00  0.45593999997E+02  0.45594000000E+02  0.51100000000E-03 0. -1.
         11   -1    0    0    0    0 -0.00000000000E+00 -0.00000000000E+00 -0.45593999997E+02  0.45594000000E+02  0.51100000000E-03 0.  1.
    9900012    2    1    2    0    0  0.24499014428E+01 -0.24339117249E+02  0.32477237287E+02  0.50528860962E+02  0.30000003380E+02 0.  0.
        -12    1    1    2    0    0 -0.24499014428E+01  0.24339117249E+02 -0.32477237287E+02  0.40659139038E+02  0.00000000000E+00 0.  1.
         11    1    3    3    0    0  0.11968329313E+01 -0.11217652028E+00  0.10447733808E+01  0.15926532315E+01  0.51100000000E-03 0. -1.
        -11    1    3    3    0    0 -0.81563326284E+01 -0.17530728706E+01 -0.96662545353E+00  0.83984160092E+01  0.51100000000E-03 0.  1.
         12    1    3    3    0    0  0.94094011398E+01 -0.22473867858E+02  0.32399089360E+02  0.40537791721E+02  0.00000000000E+00 0. -1.
</event>
<event>
 7    1  0.5843820E-012  0.5052886E+02  0.7816164E-02  0.1300439E+00
        -11   -1    0    0    0    0  0.00000000000E+00  0.00000000000E+00  0.45593999997E+02  0.45594000000E+02  0.51100000000E-03 0. -1.
         11   -1    0    0    0    0 -0.00000000000E+00 -0.00000000000E+00 -0.45593999997E+02  0.45594000000E+02  0.51100000000E-03 0.  1.
    9900012    2    1    2    0    0 -0.16445370149E+02  0.19496890862E+02  0.31663648563E+02  0.50528860893E+02  0.30000003170E+02 0.  0.
        -12    1    1    2    0    0  0.16445370149E+02 -0.19496890862E+02 -0.31663648563E+02  0.40659139107E+02  0.00000000000E+00 0.  1.
         11    1    3    3    0    0 -0.15119798498E+01 -0.18385932652E+01  0.34700482626E+01  0.42080569705E+01  0.51100000000E-03 0. -1.
        -11    1    3    3    0    0  0.50826107303E+01  0.38434756951E+01  0.15710274614E+02  0.16953405733E+02  0.51100000000E-03 0.  1.
         12    1    3    3    0    0 -0.20016001030E+02  0.17492008432E+02  0.12483325687E+02  0.29367398189E+02  0.00000000000E+00 0. -1.
</event>
<event>
 7    1  0.5843820E-012  0.5052885E+02  0.7816164E-02  0.1300439E+00
        -11   -1    0    0    0    0  0.00000000000E+00  0.00000000000E+00  0.45593999997E+02  0.45594000000E+02  0.51100000000E-03 0.  1.
         11   -1    0    0    0    0 -0.00000000000E+00 -0.00000000000E+00 -0.45593999997E+02  0.45594000000E+02  0.51100000000E-03 0. -1.
    9900012    2    1    2    0    0  0.39180155904E+02 -0.64083542886E+01 -0.87757993430E+01  0.50528852500E+02  0.29999977658E+02 0.  0.
        -12    1    1    2    0    0 -0.39180155904E+02  0.64083542886E+01  0.87757993430E+01  0.40659147500E+02  0.00000000000E+00 0.  1.
         11    1    3    3    0    0  0.33990665785E+02 -0.83615785737E+01 -0.14146531476E+02  0.37754545552E+02  0.51100000000E-03 0. -1.
        -11    1    3    3    0    0  0.25021387133E+01 -0.36193706145E+01 -0.26152480787E+00  0.44078268196E+01  0.51100000000E-03 0.  1.
         12    1    3    3    0    0  0.26873514054E+01  0.55725948996E+01  0.56322569406E+01  0.83664801282E+01  0.00000000000E+00 0. -1.
</event>
<event>
 7    1  0.5843820E-012  0.5052882E+02  0.7816164E-02  0.1300439E+00
        -11   -1    0    0    0    0  0.00000000000E+00  0.00000000000E+00  0.45593999997E+02  0.45594000000E+02  0.51100000000E-03 0.  1.
         11   -1    0    0    0    0 -0.00000000000E+00 -0.00000000000E+00 -0.45593999997E+02  0.45594000000E+02  0.51100000000E-03 0. -1.
    9900012    2    1    2    0    0  0.28334650921E+01 -0.38173877196E+02 -0.13707495379E+02  0.50528820788E+02  0.29999881267E+02 0.  0.
        -12    1    1    2    0    0 -0.28334650921E+01  0.38173877196E+02  0.13707495379E+02  0.40659179212E+02  0.00000000000E+00 0.  1.
         11    1    3    3    0    0  0.50611975974E+01 -0.89203881050E+01  0.47587575726E+01  0.11306406103E+02  0.51100000000E-03 0. -1.
        -11    1    3    3    0    0  0.29360216138E+01 -0.41927375090E+01  0.29039214836E+01  0.58848985531E+01  0.51100000000E-03 0.  1.
        -12    1    3    3    0    0 -0.51637541191E+01 -0.25060751582E+02 -0.21370174435E+02  0.33337516132E+02  0.00000000000E+00 0.  1.
</event>
<event>
 7    1  0.5843820E-012  0.5052886E+02  0.7816164E-02  0.1300439E+00
        -11   -1    0    0    0    0  0.00000000000E+00  0.00000000000E+00  0.45593999997E+02  0.45594000000E+02  0.51100000000E-03 0. -1.
         11   -1    0    0    0    0 -0.00000000000E+00 -0.00000000000E+00 -0.45593999997E+02  0.45594000000E+02  0.51100000000E-03 0.  1.
    9900012    2    1    2    0    0  0.38103839555E+02  0.81474120413E+01  0.11613910186E+02  0.50528858081E+02  0.29999994622E+02 0.  0.
         12    1    1    2    0    0 -0.38103839555E+02 -0.81474120413E+01 -0.11613910186E+02  0.40659141919E+02  0.00000000000E+00 0. -1.
         11    1    3    3    0    0  0.21633480282E+02  0.58547636221E+01 -0.35359933534E+01  0.22688961533E+02  0.51100000000E-03 0. -1.
        -11    1    3    3    0    0  0.51850957134E+01  0.30211117508E+01 -0.28019984999E+01  0.66229547501E+01  0.51100000000E-03 0.  1.
         12    1    3    3    0    0  0.11285263560E+02 -0.72846333166E+00  0.17951902039E+02  0.21216941798E+02  0.00000000000E+00 0. -1.
</event>
<event>
 7    1  0.5843820E-012  0.5052886E+02  0.7816164E-02  0.1300439E+00
        -11   -1    0    0    0    0  0.00000000000E+00  0.00000000000E+00  0.45593999997E+02  0.45594000000E+02  0.51100000000E-03 0.  1.
         11   -1    0    0    0    0 -0.00000000000E+00 -0.00000000000E+00 -0.45593999997E+02  0.45594000000E+02  0.51100000000E-03 0. -1.
    9900012    2    1    2    0    0 -0.31063248396E+02 -0.29721830231E+01  0.26065423372E+02  0.50528861195E+02  0.30000004087E+02 0.  0.
        -12    1    1    2    0    0  0.31063248396E+02  0.29721830231E+01 -0.26065423372E+02  0.40659138805E+02  0.00000000000E+00 0.  1.
         11    1    3    3    0    0 -0.27931062515E+02 -0.81703733212E+01  0.95072333542E+01  0.30615139061E+02  0.51100000000E-03 0. -1.
        -11    1    3    3    0    0  0.15062500013E+01  0.29332043595E+01  0.88740497493E+00  0.34146690516E+01  0.51100000000E-03 0.  1.
        -12    1    3    3    0    0 -0.46384358821E+01  0.22649859386E+01  0.15670785043E+02  0.16499053082E+02  0.00000000000E+00 0.  1.
</event>
<event>
 7    1  0.5843820E-012  0.5052883E+02  0.7816164E-02  0.1300439E+00
        -11   -1    0    0    0    0  0.00000000000E+00  0.00000000000E+00  0.45593999997E+02  0.45594000000E+02  0.51100000000E-03 0.  1.
         11   -1    0    0    0    0 -0.00000000000E+00 -0.00000000000E+00 -0.45593999997E+02  0.45594000000E+02  0.51100000000E-03 0. -1.
    9900012    2    1    2    0    0  0.10906033878E+02 -0.29932985393E+02  0.25263473613E+02  0.50528827745E+02  0.29999902413E+02 0.  0.
        -12    1    1    2    0    0 -0.10906033878E+02  0.29932985393E+02 -0.25263473613E+02  0.40659172255E+02  0.00000000000E+00 0.  1.
         11    1    3    3    0    0  0.12997069430E+02 -0.46096180789E+01  0.80981676040E+01  0.15992270364E+02  0.51100000000E-03 0. -1.
        -11    1    3    3    0    0  0.46191046016E+01 -0.20960463475E+01  0.61397988712E+01  0.79640861403E+01  0.51100000000E-03 0.  1.
         12    1    3    3    0    0 -0.67101401532E+01 -0.23227320966E+02  0.11025507138E+02  0.26572471240E+02  0.00000000000E+00 0. -1.
</event>
<event>
 7    1  0.5843820E-012  0.5052886E+02  0.7816164E-02  0.1300439E+00
        -11   -1    0    0    0    0  0.00000000000E+00  0.00000000000E+00  0.45593999997E+02  0.45594000000E+02  0.51100000000E-03 0. -1.
         11   -1    0    0    0    0 -0.00000000000E+00 -0.00000000000E+00 -0.45593999997E+02  0.45594000000E+02  0.51100000000E-03 0.  1.
    9900012    2    1    2    0    0 -0.29333322869E+02 -0.26428132478E+02  0.97095595236E+01  0.50528861262E+02  0.30000004291E+02 0.  0.
         12    1    1    2    0    0  0.29333322869E+02  0.26428132478E+02 -0.97095595236E+01  0.40659138738E+02  0.00000000000E+00 0. -1.
         11    1    3    3    0    0  0.18230413179E+01 -0.13546572734E+01  0.29924673037E+01  0.37567854343E+01  0.51100000000E-03 0. -1.
        -11    1    3    3    0    0 -0.47562439111E+01  0.25191278373E+00  0.89311402058E+01  0.10121787482E+02  0.51100000000E-03 0.  1.
        -12    1    3    3    0    0 -0.26400120276E+02 -0.25325387988E+02 -0.22140479859E+01  0.36650288345E+02  0.00000000000E+00 0.  1.
</event>
<event>
 7    1  0.5843820E-012  0.5052885E+02  0.7816164E-02  0.1300439E+00
        -11   -1    0    0    0    0  0.00000000000E+00  0.00000000000E+00  0.45593999997E+02  0.45594000000E+02  0.51100000000E-03 0. -1.
         11   -1    0    0    0    0 -0.00000000000E+00 -0.00000000000E+00 -0.45593999997E+02  0.45594000000E+02  0.51100000000E-03 0.  1.
    9900012    2    1    2    0    0  0.83053576375E+01  0.24563945975E+02 -0.31317722727E+02  0.50528853868E+02  0.29999981818E+02 0.  0.
         12    1    1    2    0    0 -0.83053576375E+01 -0.24563945975E+02  0.31317722727E+02  0.40659146132E+02  0.00000000000E+00 0. -1.
         11    1    3    3    0    0  0.85711790736E+01  0.19091152147E+02 -0.19022956058E+02  0.28280913325E+02  0.51100000000E-03 0.  1.
        -11    1    3    3    0    0 -0.44530064193E+01  0.94316138274E+01 -0.22533853872E+01  0.10670630325E+02  0.51100000000E-03 0. -1.
         12    1    3    3    0    0  0.41871849832E+01 -0.39588199996E+01 -0.10041381282E+02  0.11577310219E+02  0.00000000000E+00 0. -1.
</event>
<event>
 7    1  0.5843820E-012  0.5052885E+02  0.7816164E-02  0.1300439E+00
        -11   -1    0    0    0    0  0.00000000000E+00  0.00000000000E+00  0.45593999997E+02  0.45594000000E+02  0.51100000000E-03 0. -1.
         11   -1    0    0    0    0 -0.00000000000E+00 -0.00000000000E+00 -0.45593999997E+02  0.45594000000E+02  0.51100000000E-03 0.  1.
    9900012    2    1    2    0    0 -0.21403141923E+02 -0.25910877370E+02  0.22884449882E+02  0.50528854698E+02  0.29999984341E+02 0.  0.
        -12    1    1    2    0    0  0.21403141923E+02  0.25910877370E+02 -0.22884449882E+02  0.40659145302E+02  0.00000000000E+00 0.  1.
         11    1    3    3    0    0  0.81992107774E+00 -0.21632709758E+01  0.31475115160E+01  0.39062566343E+01  0.51100000000E-03 0. -1.
        -11    1    3    3    0    0  0.28150865971E+01  0.34910967236E+01  0.52111567577E+01  0.68752180982E+01  0.51100000000E-03 0.  1.
         12    1    3    3    0    0 -0.25038149598E+02 -0.27238703118E+02  0.14525781609E+02  0.39747379966E+02  0.00000000000E+00 0. -1.
</event>
<event>
 7    1  0.5843820E-012  0.5052885E+02  0.7816164E-02  0.1300439E+00
        -11   -1    0    0    0    0  0.00000000000E+00  0.00000000000E+00  0.45593999997E+02  0.45594000000E+02  0.51100000000E-03 0. -1.
         11   -1    0    0    0    0 -0.00000000000E+00 -0.00000000000E+00 -0.45593999997E+02  0.45594000000E+02  0.51100000000E-03 0.  1.
    9900012    2    1    2    0    0 -0.43000830527E+01 -0.32567699621E+02  0.23958724154E+02  0.50528852985E+02  0.29999979133E+02 0.  0.
        -12    1    1    2    0    0  0.43000830527E+01  0.32567699621E+02 -0.23958724154E+02  0.40659147015E+02  0.00000000000E+00 0.  1.
         11    1    3    3    0    0  0.76669977216E+00 -0.19352895314E+01  0.14990044830E+02  0.15133889731E+02  0.51100000000E-03 0. -1.
        -11    1    3    3    0    0 -0.67844540921E+00  0.15624607463E+01  0.65316965021E-01  0.17046519657E+01  0.51100000000E-03 0.  1.
        -12    1    3    3    0    0 -0.43883374157E+01 -0.32194870836E+02  0.89033623593E+01  0.33690311289E+02  0.00000000000E+00 0.  1.
</event>
<event>
 7    1  0.5843820E-012  0.5052886E+02  0.7816164E-02  0.1300439E+00
        -11   -1    0    0    0    0  0.00000000000E+00  0.00000000000E+00  0.45593999997E+02  0.45594000000E+02  0.51100000000E-03 0. -1.
         11   -1    0    0    0    0 -0.00000000000E+00 -0.00000000000E+00 -0.45593999997E+02  0.45594000000E+02  0.51100000000E-03 0.  1.
    9900012    2    1    2    0    0 -0.19940912161E+02  0.12052814394E+02  0.33320491141E+02  0.50528862743E+02  0.30000008793E+02 0.  0.
        -12    1    1    2    0    0  0.19940912161E+02 -0.12052814394E+02 -0.33320491141E+02  0.40659137257E+02  0.00000000000E+00 0.  1.
         11    1    3    3    0    0 -0.11431432569E+02 -0.18805974521E+01  0.53355954589E+01  0.12754719774E+02  0.51100000000E-03 0. -1.
        -11    1    3    3    0    0  0.26032990392E+00  0.66947097117E+01 -0.87320413314E+00  0.67564336378E+01  0.51100000000E-03 0.  1.
        -12    1    3    3    0    0 -0.87698094961E+01  0.72387021345E+01  0.28858099815E+02  0.31017709331E+02  0.00000000000E+00 0.  1.
</event>
<event>
 7    1  0.5843820E-012  0.5052886E+02  0.7816164E-02  0.1300439E+00
        -11   -1    0    0    0    0  0.00000000000E+00  0.00000000000E+00  0.45593999997E+02  0.45594000000E+02  0.51100000000E-03 0.  1.
         11   -1    0    0    0    0 -0.00000000000E+00 -0.00000000000E+00 -0.45593999997E+02  0.45594000000E+02  0.51100000000E-03 0. -1.
    9900012    2    1    2    0    0  0.77083617903E+01  0.34974546881E+02 -0.19249108223E+02  0.50528856644E+02  0.29999990256E+02 0.  0.
         12    1    1    2    0    0 -0.77083617903E+01 -0.34974546881E+02  0.19249108223E+02  0.40659143356E+02  0.00000000000E+00 0. -1.
         11    1    3    3    0    0  0.61142031978E+00  0.12233516727E+02 -0.18683635874E+02  0.22340792646E+02  0.51100000000E-03 0. -1.
        -11    1    3    3    0    0  0.79753519690E+01  0.19009082705E+02 -0.60613818087E+01  0.21487015009E+02  0.51100000000E-03 0.  1.
        -12    1    3    3    0    0 -0.87841049844E+00  0.37319474494E+01  0.54959094595E+01  0.67010489892E+01  0.00000000000E+00 0.  1.
</event>
<event>
 7    1  0.5843820E-012  0.5052886E+02  0.7816164E-02  0.1300439E+00
        -11   -1    0    0    0    0  0.00000000000E+00  0.00000000000E+00  0.45593999997E+02  0.45594000000E+02  0.51100000000E-03 0. -1.
         11   -1    0    0    0    0 -0.00000000000E+00 -0.00000000000E+00 -0.45593999997E+02  0.45594000000E+02  0.51100000000E-03 0.  1.
    9900012    2    1    2    0    0 -0.17454320825E+02  0.11634956045E+02 -0.34830166626E+02  0.50528855581E+02  0.29999987025E+02 0.  0.
         12    1    1    2    0    0  0.17454320825E+02 -0.11634956045E+02  0.34830166626E+02  0.40659144419E+02  0.00000000000E+00 0. -1.
         11    1    3    3    0    0 -0.51948906773E+01  0.73265429493E+01 -0.86144957948E+01  0.12444864756E+02  0.51100000000E-03 0. -1.
        -11    1    3    3    0    0 -0.18446954062E+02  0.71051333513E+01 -0.14402072239E+02  0.24457978640E+02  0.51100000000E-03 0.  1.
        -12    1    3    3    0    0  0.61875239139E+01 -0.27967202555E+01 -0.11813598592E+02  0.13626012185E+02  0.00000000000E+00 0.  1.
</event>
<event>
 7    1  0.5843820E-012  0.5052885E+02  0.7816164E-02  0.1300439E+00
        -11   -1    0    0    0    0  0.00000000000E+00  0.00000000000E+00  0.45593999997E+02  0.45594000000E+02  0.51100000000E-03 0. -1.
         11   -1    0    0    0    0 -0.00000000000E+00 -0.00000000000E+00 -0.45593999997E+02  0.45594000000E+02  0.51100000000E-03 0.  1.
    9900012    2    1    2    0    0  0.17387069016E+02  0.50940999583E+01 -0.36399260387E+02  0.50528853673E+02  0.29999981224E+02 0.  0.
         12    1    1    2    0    0 -0.17387069016E+02 -0.50940999583E+01  0.36399260387E+02  0.40659146327E+02  0.00000000000E+00 0. -1.
         11    1    3    3    0    0 -0.40082767297E+01  0.73697181201E+01 -0.34737476629E+01  0.90799752531E+01  0.51100000000E-03 0. -1.
        -11    1    3    3    0    0  0.70985368820E+01  0.50973018145E+01 -0.15032507630E+02  0.17388156819E+02  0.51100000000E-03 0.  1.
         12    1    3    3    0    0  0.14296808863E+02 -0.73729199763E+01 -0.17893005094E+02  0.24060721601E+02  0.00000000000E+00 0. -1.
</event>
<event>
 7    1  0.5843820E-012  0.5052888E+02  0.7816164E-02  0.1300439E+00
        -11   -1    0    0    0    0  0.00000000000E+00  0.00000000000E+00  0.45593999997E+02  0.45594000000E+02  0.51100000000E-03 0. -1.
         11   -1    0    0    0    0 -0.00000000000E+00 -0.00000000000E+00 -0.45593999997E+02  0.45594000000E+02  0.51100000000E-03 0.  1.
    9900012    2    1    2    0    0 -0.83953849978E+01 -0.34196639037E+02 -0.20329079613E+02  0.50528879393E+02  0.30000059402E+02 0.  0.
         12    1    1    2    0    0  0.83953849978E+01  0.34196639037E+02  0.20329079613E+02  0.40659120607E+02  0.00000000000E+00 0. -1.
         11    1    3    3    0    0 -0.99792712723E+01 -0.14558817672E+02 -0.89181425227E+00  0.17673153653E+02  0.51100000000E-03 0. -1.
        -11    1    3    3    0    0  0.31037005241E+01 -0.93691132038E+01  0.10130362106E+01  0.99216672891E+01  0.51100000000E-03 0.  1.
         12    1    3    3    0    0 -0.15198142496E+01 -0.10268708161E+02 -0.20450301571E+02  0.22934058450E+02  0.00000000000E+00 0. -1.
</event>
<event>
 7    1  0.5843820E-012  0.5052887E+02  0.7816164E-02  0.1300439E+00
        -11   -1    0    0    0    0  0.00000000000E+00  0.00000000000E+00  0.45593999997E+02  0.45594000000E+02  0.51100000000E-03 0. -1.
         11   -1    0    0    0    0 -0.00000000000E+00 -0.00000000000E+00 -0.45593999997E+02  0.45594000000E+02  0.51100000000E-03 0.  1.
    9900012    2    1    2    0    0  0.46237372198E+01  0.88204292014E+01  0.39420623942E+02  0.50528874220E+02  0.30000043680E+02 0.  0.
        -12    1    1    2    0    0 -0.46237372198E+01 -0.88204292014E+01 -0.39420623942E+02  0.40659125780E+02  0.00000000000E+00 0.  1.
         11    1    3    3    0    0  0.37890051234E+01  0.10830150613E+02  0.99939074393E+01  0.15216008290E+02  0.51100000000E-03 0. -1.
        -11    1    3    3    0    0  0.84661171788E+00  0.76821155553E+01  0.54658489957E+01  0.94661056570E+01  0.51100000000E-03 0.  1.
        -12    1    3    3    0    0 -0.11879621485E-01 -0.96918369669E+01  0.23960867507E+02  0.25846760273E+02  0.00000000000E+00 0.  1.
</event>
<event>
 7    1  0.5843820E-012  0.5052886E+02  0.7816164E-02  0.1300439E+00
        -11   -1    0    0    0    0  0.00000000000E+00  0.00000000000E+00  0.45593999997E+02  0.45594000000E+02  0.51100000000E-03 0. -1.
         11   -1    0    0    0    0 -0.00000000000E+00 -0.00000000000E+00 -0.45593999997E+02  0.45594000000E+02  0.51100000000E-03 0.  1.
    9900012    2    1    2    0    0  0.21074646575E+02  0.28922789588E+02  0.19300184711E+02  0.50528860613E+02  0.30000002318E+02 0.  0.
        -12    1    1    2    0    0 -0.21074646575E+02 -0.28922789588E+02 -0.19300184711E+02  0.40659139387E+02  0.00000000000E+00 0.  1.
         11    1    3    3    0    0  0.98539716187E+01  0.20099948273E+02  0.78565747933E+01  0.23724132123E+02  0.51100000000E-03 0. -1.
        -11    1    3    3    0    0  0.82896380591E+01  0.93876885669E+01 -0.23063959446E+01  0.12734451629E+02  0.51100000000E-03 0.  1.
         12    1    3    3    0    0  0.29310368976E+01 -0.56484725193E+00  0.13750005862E+02  0.14070276860E+02  0.00000000000E+00 0. -1.
</event>
<event>
 7    1  0.5843820E-012  0.5052885E+02  0.7816164E-02  0.1300439E+00
        -11   -1    0    0    0    0  0.00000000000E+00  0.00000000000E+00  0.45593999997E+02  0.45594000000E+02  0.51100000000E-03 0. -1.
         11   -1    0    0    0    0 -0.00000000000E+00 -0.00000000000E+00 -0.45593999997E+02  0.45594000000E+02  0.51100000000E-03 0.  1.
    9900012    2    1    2    0    0  0.20064213620E+02  0.13489980095E+02 -0.32689669668E+02  0.50528846859E+02  0.29999960514E+02 0.  0.
         12    1    1    2    0    0 -0.20064213620E+02 -0.13489980095E+02  0.32689669668E+02  0.40659153141E+02  0.00000000000E+00 0. -1.
         11    1    3    3    0    0  0.14547062064E+02  0.38312511220E+01 -0.53639154062E+01  0.15970819910E+02  0.51100000000E-03 0. -1.
        -11    1    3    3    0    0  0.62514878148E+01  0.75678791234E+01 -0.31908528808E+01  0.10321600491E+02  0.51100000000E-03 0.  1.
        -12    1    3    3    0    0 -0.73433625849E+00  0.20908498492E+01 -0.24134901381E+02  0.24236426459E+02  0.00000000000E+00 0.  1.
</event>
<event>
 7    1  0.5843820E-012  0.5052886E+02  0.7816164E-02  0.1300439E+00
        -11   -1    0    0    0    0  0.00000000000E+00  0.00000000000E+00  0.45593999997E+02  0.45594000000E+02  0.51100000000E-03 0. -1.
         11   -1    0    0    0    0 -0.00000000000E+00 -0.00000000000E+00 -0.45593999997E+02  0.45594000000E+02  0.51100000000E-03 0.  1.
    9900012    2    1    2    0    0 -0.11086974808E+02 -0.45545435124E+01 -0.38852299181E+02  0.50528855535E+02  0.29999986883E+02 0.  0.
         12    1    1    2    0    0  0.11086974808E+02  0.45545435124E+01  0.38852299181E+02  0.40659144465E+02  0.00000000000E+00 0. -1.
         11    1    3    3    0    0 -0.10117016486E+02  0.77085681094E+01 -0.20849483310E+02  0.24422878607E+02  0.51100000000E-03 0. -1.
        -11    1    3    3    0    0 -0.23333276493E+01  0.26858882398E+01 -0.16942468304E+01  0.39406707727E+01  0.51100000000E-03 0.  1.
        -12    1    3    3    0    0  0.13633693278E+01 -0.14948999862E+02 -0.16308569040E+02  0.22165306155E+02  0.00000000000E+00 0.  1.
</event>
<event>
 7    1  0.5843820E-012  0.5052886E+02  0.7816164E-02  0.1300439E+00
        -11   -1    0    0    0    0  0.00000000000E+00  0.00000000000E+00  0.45593999997E+02  0.45594000000E+02  0.51100000000E-03 0. -1.
         11   -1    0    0    0    0 -0.00000000000E+00 -0.00000000000E+00 -0.45593999997E+02  0.45594000000E+02  0.51100000000E-03 0.  1.
    9900012    2    1    2    0    0  0.56216046208E+01  0.20572876009E+02  0.34616763321E+02  0.50528856273E+02  0.29999989126E+02 0.  0.
        -12    1    1    2    0    0 -0.56216046208E+01 -0.20572876009E+02 -0.34616763321E+02  0.40659143727E+02  0.00000000000E+00 0.  1.
         11    1    3    3    0    0  0.21039458600E+01 -0.53946142818E+01  0.11111055725E+02  0.12529326040E+02  0.51100000000E-03 0. -1.
        -11    1    3    3    0    0  0.62867962550E+01  0.72765484695E+01  0.13625990396E+02  0.16677517181E+02  0.51100000000E-03 0.  1.
        -12    1    3    3    0    0 -0.27691374942E+01  0.18690941821E+02  0.98797172006E+01  0.21322013052E+02  0.00000000000E+00 0.  1.
</event>
<event>
 7    1  0.5843820E-012  0.5052886E+02  0.7816164E-02  0.1300439E+00
        -11   -1    0    0    0    0  0.00000000000E+00  0.00000000000E+00  0.45593999997E+02  0.45594000000E+02  0.51100000000E-03 0. -1.
         11   -1    0    0    0    0 -0.00000000000E+00 -0.00000000000E+00 -0.45593999997E+02  0.45594000000E+02  0.51100000000E-03 0.  1.
    9900012    2    1    2    0    0  0.57909773513E+01 -0.20902505095E+02  0.34390632921E+02  0.50528858707E+02  0.29999996527E+02 0.  0.
        -12    1    1    2    0    0 -0.57909773513E+01  0.20902505095E+02 -0.34390632921E+02  0.40659141293E+02  0.00000000000E+00 0.  1.
         11    1    3    3    0    0 -0.19337039383E+01 -0.14761057874E+02  0.18933741700E+02  0.24085568615E+02  0.51100000000E-03 0. -1.
        -11    1    3    3    0    0 -0.63601668741E+01 -0.29211940853E+01  0.53874236858E+01  0.88322948197E+01  0.51100000000E-03 0.  1.
         12    1    3    3    0    0  0.14084848164E+02 -0.32202531358E+01  0.10069467535E+02  0.17610995273E+02  0.00000000000E+00 0. -1.
</event>
<event>
 7    1  0.5843820E-012  0.5052887E+02  0.7816164E-02  0.1300439E+00
        -11   -1    0    0    0    0  0.00000000000E+00  0.00000000000E+00  0.45593999997E+02  0.45594000000E+02  0.51100000000E-03 0. -1.
         11   -1    0    0    0    0 -0.00000000000E+00 -0.00000000000E+00 -0.45593999997E+02  0.45594000000E+02  0.51100000000E-03 0.  1.
    9900012    2    1    2    0    0  0.35129941247E+01  0.41090051943E+01  0.40298136342E+02  0.50528870102E+02  0.30000031163E+02 0.  0.
        -12    1    1    2    0    0 -0.35129941247E+01 -0.41090051943E+01 -0.40298136342E+02  0.40659129898E+02  0.00000000000E+00 0.  1.
         11    1    3    3    0    0  0.93385491414E+01 -0.19160698206E+01  0.21540695043E+02  0.23555919995E+02  0.51100000000E-03 0. -1.
        -11    1    3    3    0    0 -0.73289937796E+00 -0.38074773507E+01  0.14663137318E+02  0.15167123047E+02  0.51100000000E-03 0.  1.
         12    1    3    3    0    0 -0.50926556387E+01  0.98325523657E+01  0.40943039811E+01  0.11805827060E+02  0.00000000000E+00 0. -1.
</event>
<event>
 7    1  0.5843820E-012  0.5052886E+02  0.7816164E-02  0.1300439E+00
        -11   -1    0    0    0    0  0.00000000000E+00  0.00000000000E+00  0.45593999997E+02  0.45594000000E+02  0.51100000000E-03 0.  1.
         11   -1    0    0    0    0 -0.00000000000E+00 -0.00000000000E+00 -0.45593999997E+02  0.45594000000E+02  0.51100000000E-03 0. -1.
    9900012    2    1    2    0    0 -0.27914339871E+02 -0.49000870671E+01 -0.29153813414E+02  0.50528855146E+02  0.29999985701E+02 0.  0.
         12    1    1    2    0    0  0.27914339871E+02  0.49000870671E+01  0.29153813414E+02  0.40659144854E+02  0.00000000000E+00 0. -1.
         11    1    3    3    0    0 -0.40625955139E+01  0.37118803623E+01 -0.18494223455E+02  0.19295570465E+02  0.51100000000E-03 0. -1.
        -11    1    3    3    0    0 -0.32550779862E+01 -0.22811199707E+01 -0.87386454607E+01  0.96001544657E+01  0.51100000000E-03 0.  1.
        -12    1    3    3    0    0 -0.20596666371E+02 -0.63308474588E+01 -0.19209444990E+01  0.21633130215E+02  0.00000000000E+00 0.  1.
</event>
<event>
 7    1  0.5843820E-012  0.5052886E+02  0.7816164E-02  0.1300439E+00
        -11   -1    0    0    0    0  0.00000000000E+00  0.00000000000E+00  0.45593999997E+02  0.45594000000E+02  0.51100000000E-03 0. -1.
         11   -1    0    0    0    0 -0.00000000000E+00 -0.00000000000E+00 -0.45593999997E+02  0.45594000000E+02  0.51100000000E-03 0.  1.
    9900012    2    1    2    0    0 -0.38857211686E+01 -0.13563869730E+02 -0.38132512221E+02  0.50528857371E+02  0.29999992463E+02 0.  0.
         12    1    1    2    0    0  0.38857211686E+01  0.13563869730E+02  0.38132512221E+02  0.40659142629E+02  0.00000000000E+00 0. -1.
         11    1    3    3    0    0  0.32150296690E+01 -0.63710051239E+01 -0.23639960229E+02  0.24693599210E+02  0.51100000000E-03 0.  1.
        -11    1    3    3    0    0  0.63938963961E+00 -0.12108390344E+02 -0.70505310741E+01  0.14026115803E+02  0.51100000000E-03 0. -1.
        -12    1    3    3    0    0 -0.77401404771E+01  0.49155257371E+01 -0.74420209180E+01  0.11809142358E+02  0.00000000000E+00 0.  1.
</event>
<event>
 7    1  0.5843820E-012  0.5052886E+02  0.7816164E-02  0.1300439E+00
        -11   -1    0    0    0    0  0.00000000000E+00  0.00000000000E+00  0.45593999997E+02  0.45594000000E+02  0.51100000000E-03 0. -1.
         11   -1    0    0    0    0 -0.00000000000E+00 -0.00000000000E+00 -0.45593999997E+02  0.45594000000E+02  0.51100000000E-03 0.  1.
    9900012    2    1    2    0    0 -0.74288339665E+01  0.89116210360E+01  0.38968715693E+02  0.50528863679E+02  0.30000011638E+02 0.  0.
        -12    1    1    2    0    0  0.74288339665E+01 -0.89116210360E+01 -0.38968715693E+02  0.40659136321E+02  0.00000000000E+00 0.  1.
         11    1    3    3    0    0 -0.12147477202E+02  0.56775932819E+01  0.70927215668E+01  0.15169145241E+02  0.51100000000E-03 0. -1.
        -11    1    3    3    0    0 -0.51888317729E+00  0.50639604148E+01  0.29024806224E+01  0.58598062134E+01  0.51100000000E-03 0.  1.
         12    1    3    3    0    0  0.52375264131E+01 -0.18299326606E+01  0.28973513504E+02  0.29499912224E+02  0.00000000000E+00 0. -1.
</event>
<event>
 7    1  0.5843820E-012  0.5052886E+02  0.7816164E-02  0.1300439E+00
        -11   -1    0    0    0    0  0.00000000000E+00  0.00000000000E+00  0.45593999997E+02  0.45594000000E+02  0.51100000000E-03 0.  1.
         11   -1    0    0    0    0 -0.00000000000E+00 -0.00000000000E+00 -0.45593999997E+02  0.45594000000E+02  0.51100000000E-03 0. -1.
    9900012    2    1    2    0    0 -0.74929051555E+01  0.13250274603E+02 -0.37702151537E+02  0.50528860373E+02  0.30000001589E+02 0.  0.
         12    1    1    2    0    0  0.74929051555E+01 -0.13250274603E+02  0.37702151537E+02  0.40659139627E+02  0.00000000000E+00 0. -1.
         11    1    3    3    0    0 -0.29967285863E+01 -0.29696066943E+00 -0.14303316126E+02  0.14616888189E+02  0.51100000000E-03 0. -1.
        -11    1    3    3    0    0  0.82491717501E+01  0.83891018726E+01 -0.46254274813E+01  0.12642011091E+02  0.51100000000E-03 0.  1.
         12    1    3    3    0    0 -0.12745348319E+02  0.51581333995E+01 -0.18773407929E+02  0.23269961092E+02  0.00000000000E+00 0. -1.
</event>
<event>
 7    1  0.5843820E-012  0.5052886E+02  0.7816164E-02  0.1300439E+00
        -11   -1    0    0    0    0  0.00000000000E+00  0.00000000000E+00  0.45593999997E+02  0.45594000000E+02  0.51100000000E-03 0. -1.
         11   -1    0    0    0    0 -0.00000000000E+00 -0.00000000000E+00 -0.45593999997E+02  0.45594000000E+02  0.51100000000E-03 0.  1.
    9900012    2    1    2    0    0  0.12431584834E+01  0.40108530332E+02  0.65518041318E+01  0.50528858521E+02  0.29999995961E+02 0.  0.
         12    1    1    2    0    0 -0.12431584834E+01 -0.40108530332E+02 -0.65518041318E+01  0.40659141479E+02  0.00000000000E+00 0. -1.
         11    1    3    3    0    0 -0.37178733816E+00  0.67848699384E+01 -0.35618871131E+01  0.76720092527E+01  0.51100000000E-03 0. -1.
        -11    1    3    3    0    0 -0.10260513971E+02  0.24877880292E+02  0.83591022791E+01  0.28179099807E+02  0.51100000000E-03 0.  1.
         12    1    3    3    0    0  0.11875459793E+02  0.84457801013E+01  0.17545889658E+01  0.14677749461E+02  0.00000000000E+00 0. -1.
</event>
<event>
 7    1  0.5843820E-012  0.5052885E+02  0.7816164E-02  0.1300439E+00
        -11   -1    0    0    0    0  0.00000000000E+00  0.00000000000E+00  0.45593999997E+02  0.45594000000E+02  0.51100000000E-03 0. -1.
         11   -1    0    0    0    0 -0.00000000000E+00 -0.00000000000E+00 -0.45593999997E+02  0.45594000000E+02  0.51100000000E-03 0.  1.
    9900012    2    1    2    0    0  0.87909777004E+01 -0.26555280456E+02  0.29507669028E+02  0.50528846781E+02  0.29999960277E+02 0.  0.
        -12    1    1    2    0    0 -0.87909777004E+01  0.26555280456E+02 -0.29507669028E+02  0.40659153219E+02  0.00000000000E+00 0.  1.
         11    1    3    3    0    0  0.14180039949E+01 -0.11665464923E+02  0.95325525671E+01  0.15131535477E+02  0.51100000000E-03 0. -1.
        -11    1    3    3    0    0 -0.18294015082E+01 -0.91339614294E+01  0.22413824423E+02  0.24272525348E+02  0.51100000000E-03 0.  1.
        -12    1    3    3    0    0  0.92023752138E+01 -0.57558541036E+01 -0.24387079624E+01  0.11124785956E+02  0.00000000000E+00 0.  1.
</event>
<event>
 7    1  0.5843820E-012  0.5052887E+02  0.7816164E-02  0.1300439E+00
        -11   -1    0    0    0    0  0.00000000000E+00  0.00000000000E+00  0.45593999997E+02  0.45594000000E+02  0.51100000000E-03 0. -1.
         11   -1    0    0    0    0 -0.00000000000E+00 -0.00000000000E+00 -0.45593999997E+02  0.45594000000E+02  0.51100000000E-03 0.  1.
    9900012    2    1    2    0    0 -0.23695138971E+02  0.29896781324E+02  0.14067251692E+02  0.50528871694E+02  0.30000036002E+02 0.  0.
        -12    1    1    2    0    0  0.23695138971E+02 -0.29896781324E+02 -0.14067251692E+02  0.40659128306E+02  0.00000000000E+00 0.  1.
         11    1    3    3    0    0 -0.11415966462E+01 -0.13102893570E+01  0.30741668077E+01  0.35313740844E+01  0.51100000000E-03 0.  1.
        -11    1    3    3    0    0 -0.41623631918E+01  0.12917992608E+01  0.11052879377E+02  0.11881083934E+02  0.51100000000E-03 0. -1.
        -12    1    3    3    0    0 -0.18391179133E+02  0.29915271421E+02 -0.59794492546E-01  0.35116413676E+02  0.00000000000E+00 0.  1.
</event>
<event>
 7    1  0.5843820E-012  0.5052886E+02  0.7816164E-02  0.1300439E+00
        -11   -1    0    0    0    0  0.00000000000E+00  0.00000000000E+00  0.45593999997E+02  0.45594000000E+02  0.51100000000E-03 0. -1.
         11   -1    0    0    0    0 -0.00000000000E+00 -0.00000000000E+00 -0.45593999997E+02  0.45594000000E+02  0.51100000000E-03 0.  1.
    9900012    2    1    2    0    0 -0.12291986253E+02  0.10361345881E+02 -0.37345888539E+02  0.50528858281E+02  0.29999995232E+02 0.  0.
         12    1    1    2    0    0  0.12291986253E+02 -0.10361345881E+02  0.37345888539E+02  0.40659141719E+02  0.00000000000E+00 0. -1.
         11    1    3    3    0    0  0.29085727776E+01 -0.43271561492E+01 -0.11658862539E+01  0.53425992700E+01  0.51100000000E-03 0. -1.
        -11    1    3    3    0    0  0.24268032202E+01 -0.20113344985E-02 -0.10155635006E+00  0.24289281316E+01  0.51100000000E-03 0.  1.
        -12    1    3    3    0    0 -0.17627362251E+02  0.14690513365E+02 -0.36078445935E+02  0.42757330880E+02  0.00000000000E+00 0.  1.
</event>
<event>
 7    1  0.5843820E-012  0.5052885E+02  0.7816164E-02  0.1300439E+00
        -11   -1    0    0    0    0  0.00000000000E+00  0.00000000000E+00  0.45593999997E+02  0.45594000000E+02  0.51100000000E-03 0. -1.
         11   -1    0    0    0    0 -0.00000000000E+00 -0.00000000000E+00 -0.45593999997E+02  0.45594000000E+02  0.51100000000E-03 0.  1.
    9900012    2    1    2    0    0  0.10270364449E+02 -0.26804664856E+01  0.39249223993E+02  0.50528845182E+02  0.29999955414E+02 0.  0.
        -12    1    1    2    0    0 -0.10270364449E+02  0.26804664856E+01 -0.39249223993E+02  0.40659154818E+02  0.00000000000E+00 0.  1.
         11    1    3    3    0    0  0.66837265632E+01 -0.44635401944E+01  0.22453756948E+02  0.23848827921E+02  0.51100000000E-03 0. -1.
        -11    1    3    3    0    0  0.99863942890E+00 -0.78088413909E+01  0.14475648385E+02  0.16477854260E+02  0.51100000000E-03 0.  1.
        -12    1    3    3    0    0  0.25879984566E+01  0.95919150997E+01  0.23198186597E+01  0.10202163001E+02  0.00000000000E+00 0.  1.
</event>
<event>
 7    1  0.5843820E-012  0.5052886E+02  0.7816164E-02  0.1300439E+00
        -11   -1    0    0    0    0  0.00000000000E+00  0.00000000000E+00  0.45593999997E+02  0.45594000000E+02  0.51100000000E-03 0. -1.
         11   -1    0    0    0    0 -0.00000000000E+00 -0.00000000000E+00 -0.45593999997E+02  0.45594000000E+02  0.51100000000E-03 0.  1.
    9900012    2    1    2    0    0  0.26765693503E+02  0.99545018833E+01  0.28942548564E+02  0.50528861128E+02  0.30000003884E+02 0.  0.
        -12    1    1    2    0    0 -0.26765693503E+02 -0.99545018833E+01 -0.28942548564E+02  0.40659138872E+02  0.00000000000E+00 0.  1.
         11    1    3    3    0    0  0.11697585710E+02 -0.52130689637E+01  0.86882845735E+01  0.15475654705E+02  0.51100000000E-03 0. -1.
        -11    1    3    3    0    0  0.82912691199E+01 -0.28191256440E+01  0.30981681565E+01  0.92893088657E+01  0.51100000000E-03 0.  1.
        -12    1    3    3    0    0  0.67768386735E+01  0.17986696491E+02  0.17156095834E+02  0.25763897557E+02  0.00000000000E+00 0.  1.
</event>
<event>
 7    1  0.5843820E-012  0.5052886E+02  0.7816164E-02  0.1300439E+00
        -11   -1    0    0    0    0  0.00000000000E+00  0.00000000000E+00  0.45593999997E+02  0.45594000000E+02  0.51100000000E-03 0. -1.
         11   -1    0    0    0    0 -0.00000000000E+00 -0.00000000000E+00 -0.45593999997E+02  0.45594000000E+02  0.51100000000E-03 0.  1.
    9900012    2    1    2    0    0  0.39399651111E+02 -0.64507574449E+01  0.76955367030E+01  0.50528855095E+02  0.29999985547E+02 0.  0.
        -12    1    1    2    0    0 -0.39399651111E+02  0.64507574449E+01 -0.76955367030E+01  0.40659144905E+02  0.00000000000E+00 0.  1.
         11    1    3    3    0    0  0.85457271699E+01  0.29086119312E+01  0.22296432472E+01  0.92984291953E+01  0.51100000000E-03 0. -1.
        -11    1    3    3    0    0  0.39979398610E+01  0.59840721501E+01  0.72936558065E+01  0.10246465630E+02  0.51100000000E-03 0.  1.
        -12    1    3    3    0    0  0.26855984080E+02 -0.15343441526E+02 -0.18277623507E+01  0.30983960269E+02  0.00000000000E+00 0.  1.
</event>
<event>
 7    1  0.5843820E-012  0.5052886E+02  0.7816164E-02  0.1300439E+00
        -11   -1    0    0    0    0  0.00000000000E+00  0.00000000000E+00  0.45593999997E+02  0.45594000000E+02  0.51100000000E-03 0. -1.
         11   -1    0    0    0    0 -0.00000000000E+00 -0.00000000000E+00 -0.45593999997E+02  0.45594000000E+02  0.51100000000E-03 0.  1.
    9900012    2    1    2    0    0  0.24817733948E+01 -0.34923020507E+02 -0.20673388994E+02  0.50528861138E+02  0.30000003915E+02 0.  0.
         12    1    1    2    0    0 -0.24817733948E+01  0.34923020507E+02  0.20673388994E+02  0.40659138862E+02  0.00000000000E+00 0. -1.
         11    1    3    3    0    0 -0.13452946633E+01 -0.13622699395E+01  0.36133469326E+01  0.40892387355E+01  0.51100000000E-03 0. -1.
        -11    1    3    3    0    0 -0.15802312179E+01 -0.18252339273E+01  0.32690374892E+01  0.40638917257E+01  0.51100000000E-03 0.  1.
        -12    1    3    3    0    0  0.54072992759E+01 -0.31735516640E+02 -0.27555773416E+02  0.42375730677E+02  0.00000000000E+00 0.  1.
</event>
<event>
 7    1  0.5843820E-012  0.5052886E+02  0.7816164E-02  0.1300439E+00
        -11   -1    0    0    0    0  0.00000000000E+00  0.00000000000E+00  0.45593999997E+02  0.45594000000E+02  0.51100000000E-03 0.  1.
         11   -1    0    0    0    0 -0.00000000000E+00 -0.00000000000E+00 -0.45593999997E+02  0.45594000000E+02  0.51100000000E-03 0. -1.
    9900012    2    1    2    0    0 -0.11442987823E+02  0.23960294649E+02 -0.30791685562E+02  0.50528860932E+02  0.30000003289E+02 0.  0.
         12    1    1    2    0    0  0.11442987823E+02 -0.23960294649E+02  0.30791685562E+02  0.40659139068E+02  0.00000000000E+00 0. -1.
         11    1    3    3    0    0  0.85597014893E+01  0.82162204445E+01 -0.16746593263E+02  0.20523721742E+02  0.51100000000E-03 0. -1.
        -11    1    3    3    0    0 -0.10450902518E+01  0.91878629850E+00 -0.34307357854E+01  0.37022061243E+01  0.51100000000E-03 0.  1.
        -12    1    3    3    0    0 -0.18957599061E+02  0.14825287906E+02 -0.10614356513E+02  0.26302933065E+02  0.00000000000E+00 0.  1.
</event>
<event>
 7    1  0.5843820E-012  0.5052886E+02  0.7816164E-02  0.1300439E+00
        -11   -1    0    0    0    0  0.00000000000E+00  0.00000000000E+00  0.45593999997E+02  0.45594000000E+02  0.51100000000E-03 0. -1.
         11   -1    0    0    0    0 -0.00000000000E+00 -0.00000000000E+00 -0.45593999997E+02  0.45594000000E+02  0.51100000000E-03 0.  1.
    9900012    2    1    2    0    0 -0.13099062420E+02  0.20779735311E+02 -0.32400348737E+02  0.50528862845E+02  0.30000009105E+02 0.  0.
         12    1    1    2    0    0  0.13099062420E+02 -0.20779735311E+02  0.32400348737E+02  0.40659137155E+02  0.00000000000E+00 0. -1.
         11    1    3    3    0    0  0.34193318628E+01  0.44309244654E+01 -0.19930907310E+02  0.20701835389E+02  0.51100000000E-03 0. -1.
        -11    1    3    3    0    0  0.24915963894E+01  0.28162645337E+01 -0.17935839069E+01  0.41660943320E+01  0.51100000000E-03 0.  1.
        -12    1    3    3    0    0 -0.19009990672E+02  0.13532546312E+02 -0.10675857520E+02  0.25660933125E+02  0.00000000000E+00 0.  1.
</event>
<event>
 7    1  0.5843820E-012  0.5052884E+02  0.7816164E-02  0.1300439E+00
        -11   -1    0    0    0    0  0.00000000000E+00  0.00000000000E+00  0.45593999997E+02  0.45594000000E+02  0.51100000000E-03 0. -1.
         11   -1    0    0    0    0 -0.00000000000E+00 -0.00000000000E+00 -0.45593999997E+02  0.45594000000E+02  0.51100000000E-03 0.  1.
    9900012    2    1    2    0    0  0.28924903915E+01  0.19963429318E+02  0.35302438142E+02  0.50528841750E+02  0.29999944984E+02 0.  0.
        -12    1    1    2    0    0 -0.28924903915E+01 -0.19963429318E+02 -0.35302438142E+02  0.40659158250E+02  0.00000000000E+00 0.  1.
         11    1    3    3    0    0  0.26935373806E+01  0.38952312195E+01  0.37515923418E+01  0.60417228697E+01  0.51100000000E-03 0. -1.
        -11    1    3    3    0    0  0.10760376355E+01  0.20160290867E+02  0.99929223125E+01  0.22526732596E+02  0.51100000000E-03 0.  1.
         12    1    3    3    0    0 -0.87708462466E+00 -0.40920927688E+01  0.21557923488E+02  0.21960386285E+02  0.00000000000E+00 0. -1.
</event>
<event>
 7    1  0.5843820E-012  0.5052882E+02  0.7816164E-02  0.1300439E+00
        -11   -1    0    0    0    0  0.00000000000E+00  0.00000000000E+00  0.45593999997E+02  0.45594000000E+02  0.51100000000E-03 0.  1.
         11   -1    0    0    0    0 -0.00000000000E+00 -0.00000000000E+00 -0.45593999997E+02  0.45594000000E+02  0.51100000000E-03 0. -1.
    9900012    2    1    2    0    0  0.39183397226E+02  0.89571901950E+01 -0.61317847541E+01  0.50528823193E+02  0.29999888577E+02 0.  0.
        -12    1    1    2    0    0 -0.39183397226E+02 -0.89571901950E+01  0.61317847541E+01  0.40659176807E+02  0.00000000000E+00 0.  1.
         11    1    3    3    0    0  0.99522305400E+01  0.41300765250E+01 -0.96889272842E+01  0.14490677589E+02  0.51100000000E-03 0. -1.
        -11    1    3    3    0    0  0.74335164443E+01  0.32195301333E+01 -0.79389337794E+01  0.11342363547E+02  0.51100000000E-03 0.  1.
        -12    1    3    3    0    0  0.21797650242E+02  0.16075835366E+01  0.11496076309E+02  0.24695782057E+02  0.00000000000E+00 0.  1.
</event>
<event>
 7    1  0.5843820E-012  0.5052885E+02  0.7816164E-02  0.1300439E+00
        -11   -1    0    0    0    0  0.00000000000E+00  0.00000000000E+00  0.45593999997E+02  0.45594000000E+02  0.51100000000E-03 0. -1.
         11   -1    0    0    0    0 -0.00000000000E+00 -0.00000000000E+00 -0.45593999997E+02  0.45594000000E+02  0.51100000000E-03 0.  1.
    9900012    2    1    2    0    0 -0.82998493646E+01  0.19732081080E+01 -0.39754057902E+02  0.50528853804E+02  0.29999981624E+02 0.  0.
         12    1    1    2    0    0  0.82998493646E+01 -0.19732081080E+01  0.39754057902E+02  0.40659146196E+02  0.00000000000E+00 0. -1.
         11    1    3    3    0    0  0.74997438224E+01  0.31920218416E+01 -0.11493113957E+02  0.14089954916E+02  0.51100000000E-03 0. -1.
        -11    1    3    3    0    0  0.34909565334E+01  0.86876908085E+00 -0.45887258549E+01  0.58307754601E+01  0.51100000000E-03 0.  1.
         12    1    3    3    0    0 -0.19290549720E+02 -0.20875828144E+01 -0.23672218090E+02  0.30608123428E+02  0.00000000000E+00 0. -1.
</event>
<event>
 7    1  0.5843820E-012  0.5052885E+02  0.7816164E-02  0.1300439E+00
        -11   -1    0    0    0    0  0.00000000000E+00  0.00000000000E+00  0.45593999997E+02  0.45594000000E+02  0.51100000000E-03 0. -1.
         11   -1    0    0    0    0 -0.00000000000E+00 -0.00000000000E+00 -0.45593999997E+02  0.45594000000E+02  0.51100000000E-03 0.  1.
    9900012    2    1    2    0    0  0.29734946216E+02  0.90170750354E+01  0.26223879032E+02  0.50528849736E+02  0.29999969258E+02 0.  0.
        -12    1    1    2    0    0 -0.29734946216E+02 -0.90170750354E+01 -0.26223879032E+02  0.40659150264E+02  0.00000000000E+00 0.  1.
         11    1    3    3    0    0  0.32435107557E+01  0.78746002337E+01  0.48980218502E+01  0.98244750073E+01  0.51100000000E-03 0. -1.
        -11    1    3    3    0    0 -0.27151197751E+01  0.21093848268E+01  0.77578515057E+01  0.84856137071E+01  0.51100000000E-03 0.  1.
         12    1    3    3    0    0  0.29206555236E+02 -0.96691002519E+00  0.13568005677E+02  0.32218761022E+02  0.00000000000E+00 0. -1.
</event>
<event>
 7    1  0.5843820E-012  0.5052887E+02  0.7816164E-02  0.1300439E+00
        -11   -1    0    0    0    0  0.00000000000E+00  0.00000000000E+00  0.45593999997E+02  0.45594000000E+02  0.51100000000E-03 0.  1.
         11   -1    0    0    0    0 -0.00000000000E+00 -0.00000000000E+00 -0.45593999997E+02  0.45594000000E+02  0.51100000000E-03 0. -1.
    9900012    2    1    2    0    0 -0.14283329469E+02 -0.28946533494E+02  0.24723463500E+02  0.50528868806E+02  0.30000027223E+02 0.  0.
        -12    1    1    2    0    0  0.14283329469E+02  0.28946533494E+02 -0.24723463500E+02  0.40659131194E+02  0.00000000000E+00 0.  1.
         11    1    3    3    0    0 -0.75412551182E+01 -0.19440906677E+02  0.33217982806E+01  0.21115248643E+02  0.51100000000E-03 0. -1.
        -11    1    3    3    0    0 -0.52523453852E+01  0.12883651190E+01  0.11546034860E-01  0.54080634517E+01  0.51100000000E-03 0.  1.
        -12    1    3    3    0    0 -0.14897289658E+01 -0.10793991936E+02  0.21390119184E+02  0.24005556711E+02  0.00000000000E+00 0.  1.
</event>
<event>
 7    1  0.5843820E-012  0.5052887E+02  0.7816164E-02  0.1300439E+00
        -11   -1    0    0    0    0  0.00000000000E+00  0.00000000000E+00  0.45593999997E+02  0.45594000000E+02  0.51100000000E-03 0. -1.
         11   -1    0    0    0    0 -0.00000000000E+00 -0.00000000000E+00 -0.45593999997E+02  0.45594000000E+02  0.51100000000E-03 0.  1.
    9900012    2    1    2    0    0  0.22014467200E+02  0.14460368959E+01 -0.34153144098E+02  0.50528867685E+02  0.30000023816E+02 0.  0.
         12    1    1    2    0    0 -0.22014467200E+02 -0.14460368959E+01  0.34153144098E+02  0.40659132315E+02  0.00000000000E+00 0. -1.
         11    1    3    3    0    0 -0.11638175212E+01 -0.81626220189E+00  0.62689047535E+00  0.15536238715E+01  0.51100000000E-03 0. -1.
        -11    1    3    3    0    0  0.10632481525E+02  0.89359727901E+01 -0.30663290468E+01  0.14223348662E+02  0.51100000000E-03 0.  1.
        -12    1    3    3    0    0  0.12545803196E+02 -0.66736736922E+01 -0.31713705527E+02  0.34751895152E+02  0.00000000000E+00 0.  1.
</event>
<event>
 7    1  0.5843820E-012  0.5052885E+02  0.7816164E-02  0.1300439E+00
        -11   -1    0    0    0    0  0.00000000000E+00  0.00000000000E+00  0.45593999997E+02  0.45594000000E+02  0.51100000000E-03 0. -1.
         11   -1    0    0    0    0 -0.00000000000E+00 -0.00000000000E+00 -0.45593999997E+02  0.45594000000E+02  0.51100000000E-03 0.  1.
    9900012    2    1    2    0    0  0.10219146429E+02  0.20778152592E+01  0.39299083251E+02  0.50528853251E+02  0.29999979940E+02 0.  0.
        -12    1    1    2    0    0 -0.10219146429E+02 -0.20778152592E+01 -0.39299083251E+02  0.40659146749E+02  0.00000000000E+00 0.  1.
         11    1    3    3    0    0 -0.27544883898E+01  0.40746820877E+00  0.31774781130E+02  0.31896550797E+02  0.51100000000E-03 0. -1.
        -11    1    3    3    0    0  0.24241908289E+01  0.18327251445E+01  0.74883797031E+01  0.80815477150E+01  0.51100000000E-03 0.  1.
        -12    1    3    3    0    0  0.10549443990E+02 -0.16237809411E+00  0.35922418645E-01  0.10550754739E+02  0.00000000000E+00 0.  1.
</event>
<event>
 7    1  0.5843820E-012  0.5052886E+02  0.7816164E-02  0.1300439E+00
        -11   -1    0    0    0    0  0.00000000000E+00  0.00000000000E+00  0.45593999997E+02  0.45594000000E+02  0.51100000000E-03 0. -1.
         11   -1    0    0    0    0 -0.00000000000E+00 -0.00000000000E+00 -0.45593999997E+02  0.45594000000E+02  0.51100000000E-03 0.  1.
    9900012    2    1    2    0    0  0.22673486137E+02  0.22575651411E+02  0.25088217135E+02  0.50528860200E+02  0.30000001065E+02 0.  0.
        -12    1    1    2    0    0 -0.22673486137E+02 -0.22575651411E+02 -0.25088217135E+02  0.40659139800E+02  0.00000000000E+00 0.  1.
         11    1    3    3    0    0  0.58607347959E+01  0.92318666113E+01 -0.10905212785E+01  0.10989304364E+02  0.51100000000E-03 0. -1.
        -11    1    3    3    0    0  0.16214088408E+02  0.33297685117E+01  0.71548297994E+01  0.18032626291E+02  0.51100000000E-03 0.  1.
         12    1    3    3    0    0  0.59866293320E+00  0.10014016288E+02  0.19023908614E+02  0.21506929546E+02  0.00000000000E+00 0. -1.
</event>
<event>
 7    1  0.5843820E-012  0.5052886E+02  0.7816164E-02  0.1300439E+00
        -11   -1    0    0    0    0  0.00000000000E+00  0.00000000000E+00  0.45593999997E+02  0.45594000000E+02  0.51100000000E-03 0. -1.
         11   -1    0    0    0    0 -0.00000000000E+00 -0.00000000000E+00 -0.45593999997E+02  0.45594000000E+02  0.51100000000E-03 0.  1.
    9900012    2    1    2    0    0  0.24153901411E+02  0.22854753188E+01 -0.32627159302E+02  0.50528857425E+02  0.29999992630E+02 0.  0.
         12    1    1    2    0    0 -0.24153901411E+02 -0.22854753188E+01  0.32627159302E+02  0.40659142575E+02  0.00000000000E+00 0. -1.
         11    1    3    3    0    0  0.10550656255E+02  0.60973086486E+01 -0.38201308954E+01  0.12770548950E+02  0.51100000000E-03 0. -1.
        -11    1    3    3    0    0  0.95778382671E+00 -0.88208558304E+01 -0.46059006950E+01  0.99969579830E+01  0.51100000000E-03 0.  1.
        -12    1    3    3    0    0  0.12645461329E+02  0.50090225006E+01 -0.24201127711E+02  0.27761350492E+02  0.00000000000E+00 0.  1.
</event>
<event>
 7    1  0.5843820E-012  0.5052886E+02  0.7816164E-02  0.1300439E+00
        -11   -1    0    0    0    0  0.00000000000E+00  0.00000000000E+00  0.45593999997E+02  0.45594000000E+02  0.51100000000E-03 0. -1.
         11   -1    0    0    0    0 -0.00000000000E+00 -0.00000000000E+00 -0.45593999997E+02  0.45594000000E+02  0.51100000000E-03 0.  1.
    9900012    2    1    2    0    0 -0.20448917693E+02 -0.43016882816E+01 -0.34878400683E+02  0.50528860915E+02  0.30000003238E+02 0.  0.
         12    1    1    2    0    0  0.20448917693E+02  0.43016882816E+01  0.34878400683E+02  0.40659139085E+02  0.00000000000E+00 0. -1.
         11    1    3    3    0    0 -0.10864200547E+02  0.85518054452E+00 -0.13947256642E+02  0.17699947892E+02  0.51100000000E-03 0.  1.
        -11    1    3    3    0    0 -0.38681340243E+01 -0.13148546841E+02 -0.17903314641E+02  0.22547182091E+02  0.51100000000E-03 0. -1.
         12    1    3    3    0    0 -0.57165831221E+01  0.79916780146E+01 -0.30278294007E+01  0.10281730932E+02  0.00000000000E+00 0. -1.
</event>
<event>
 7    1  0.5843820E-012  0.5052885E+02  0.7816164E-02  0.1300439E+00
        -11   -1    0    0    0    0  0.00000000000E+00  0.00000000000E+00  0.45593999997E+02  0.45594000000E+02  0.51100000000E-03 0. -1.
         11   -1    0    0    0    0 -0.00000000000E+00 -0.00000000000E+00 -0.45593999997E+02  0.45594000000E+02  0.51100000000E-03 0.  1.
    9900012    2    1    2    0    0  0.21042228736E+02 -0.87145316826E+01  0.33681569702E+02  0.50528848629E+02  0.29999965892E+02 0.  0.
        -12    1    1    2    0    0 -0.21042228736E+02  0.87145316826E+01 -0.33681569702E+02  0.40659151371E+02  0.00000000000E+00 0.  1.
         11    1    3    3    0    0  0.47220200062E+01  0.25219038396E+01  0.18212706443E-01  0.53532984111E+01  0.51100000000E-03 0. -1.
        -11    1    3    3    0    0  0.28898732761E+01 -0.75435028821E+01 -0.68831962460E+00  0.81073785807E+01  0.51100000000E-03 0.  1.
         12    1    3    3    0    0  0.13430335454E+02 -0.36929326401E+01  0.34351676620E+02  0.37068171637E+02  0.00000000000E+00 0. -1.
</event>
<event>
 7    1  0.5843820E-012  0.5052887E+02  0.7816164E-02  0.1300439E+00
        -11   -1    0    0    0    0  0.00000000000E+00  0.00000000000E+00  0.45593999997E+02  0.45594000000E+02  0.51100000000E-03 0. -1.
         11   -1    0    0    0    0 -0.00000000000E+00 -0.00000000000E+00 -0.45593999997E+02  0.45594000000E+02  0.51100000000E-03 0.  1.
    9900012    2    1    2    0    0  0.20519562443E+02  0.40601782842E+01  0.34865853810E+02  0.50528865080E+02  0.30000015898E+02 0.  0.
        -12    1    1    2    0    0 -0.20519562443E+02 -0.40601782842E+01 -0.34865853810E+02  0.40659134920E+02  0.00000000000E+00 0.  1.
         11    1    3    3    0    0  0.11375271524E+02 -0.46779392584E+01  0.79894956107E+01  0.14666695549E+02  0.51100000000E-03 0. -1.
        -11    1    3    3    0    0  0.79200244430E+01 -0.51631581583E+01  0.79835669608E+01  0.12374260827E+02  0.51100000000E-03 0.  1.
         12    1    3    3    0    0  0.12242664759E+01  0.13901275701E+02  0.18892791238E+02  0.23487908704E+02  0.00000000000E+00 0. -1.
</event>
<event>
 7    1  0.5843820E-012  0.5052886E+02  0.7816164E-02  0.1300439E+00
        -11   -1    0    0    0    0  0.00000000000E+00  0.00000000000E+00  0.45593999997E+02  0.45594000000E+02  0.51100000000E-03 0. -1.
         11   -1    0    0    0    0 -0.00000000000E+00 -0.00000000000E+00 -0.45593999997E+02  0.45594000000E+02  0.51100000000E-03 0.  1.
    9900012    2    1    2    0    0 -0.23182117128E+02  0.23849843555E+02  0.23386752233E+02  0.50528858689E+02  0.29999996472E+02 0.  0.
        -12    1    1    2    0    0  0.23182117128E+02 -0.23849843555E+02 -0.23386752233E+02  0.40659141311E+02  0.00000000000E+00 0.  1.
         11    1    3    3    0    0 -0.80744657051E+01  0.12269479172E+02  0.19802089485E+01  0.14820875255E+02  0.51100000000E-03 0. -1.
        -11    1    3    3    0    0 -0.97737656742E+01  0.14124155318E+02  0.44384340771E+01  0.17740291886E+02  0.51100000000E-03 0.  1.
         12    1    3    3    0    0 -0.53338857484E+01 -0.25437909349E+01  0.16968109208E+02  0.17967691549E+02  0.00000000000E+00 0. -1.
</event>
<event>
 7    1  0.5843820E-012  0.5052884E+02  0.7816164E-02  0.1300439E+00
        -11   -1    0    0    0    0  0.00000000000E+00  0.00000000000E+00  0.45593999997E+02  0.45594000000E+02  0.51100000000E-03 0.  1.
         11   -1    0    0    0    0 -0.00000000000E+00 -0.00000000000E+00 -0.45593999997E+02  0.45594000000E+02  0.51100000000E-03 0. -1.
    9900012    2    1    2    0    0  0.13086267666E+02  0.37124413819E+02  0.10183045498E+02  0.50528844592E+02  0.29999953623E+02 0.  0.
        -12    1    1    2    0    0 -0.13086267666E+02 -0.37124413819E+02 -0.10183045498E+02  0.40659155408E+02  0.00000000000E+00 0.  1.
         11    1    3    3    0    0 -0.46179029336E+00  0.24375294381E+01  0.24553217228E+01  0.34904734722E+01  0.51100000000E-03 0. -1.
        -11    1    3    3    0    0 -0.51845312180E+01  0.18571367353E+02 -0.39902863907E+01  0.19690033902E+02  0.51100000000E-03 0.  1.
        -12    1    3    3    0    0  0.18732589177E+02  0.16115517028E+02  0.11718010166E+02  0.27348337218E+02  0.00000000000E+00 0.  1.
</event>
<event>
 7    1  0.5843820E-012  0.5052887E+02  0.7816164E-02  0.1300439E+00
        -11   -1    0    0    0    0  0.00000000000E+00  0.00000000000E+00  0.45593999997E+02  0.45594000000E+02  0.51100000000E-03 0. -1.
         11   -1    0    0    0    0 -0.00000000000E+00 -0.00000000000E+00 -0.45593999997E+02  0.45594000000E+02  0.51100000000E-03 0.  1.
    9900012    2    1    2    0    0  0.15804816253E+00 -0.34764230913E+02  0.21085249428E+02  0.50528874657E+02  0.30000045009E+02 0.  0.
        -12    1    1    2    0    0 -0.15804816253E+00  0.34764230913E+02 -0.21085249428E+02  0.40659125343E+02  0.00000000000E+00 0.  1.
         11    1    3    3    0    0  0.21137069759E+00 -0.60188209242E+00  0.78561444724E+01  0.78820013866E+01  0.51100000000E-03 0. -1.
        -11    1    3    3    0    0  0.68478729461E+01 -0.14605441749E+01  0.10775506117E+01  0.70843255681E+01  0.51100000000E-03 0.  1.
         12    1    3    3    0    0 -0.69011954811E+01 -0.32701804645E+02  0.12151554344E+02  0.35562547703E+02  0.00000000000E+00 0. -1.
</event>
<event>
 7    1  0.5843820E-012  0.5052886E+02  0.7816164E-02  0.1300439E+00
        -11   -1    0    0    0    0  0.00000000000E+00  0.00000000000E+00  0.45593999997E+02  0.45594000000E+02  0.51100000000E-03 0. -1.
         11   -1    0    0    0    0 -0.00000000000E+00 -0.00000000000E+00 -0.45593999997E+02  0.45594000000E+02  0.51100000000E-03 0.  1.
    9900012    2    1    2    0    0 -0.20698371524E+02 -0.22785779480E+02 -0.26562217659E+02  0.50528859118E+02  0.29999997775E+02 0.  0.
         12    1    1    2    0    0  0.20698371524E+02  0.22785779480E+02  0.26562217659E+02  0.40659140882E+02  0.00000000000E+00 0. -1.
         11    1    3    3    0    0 -0.16765761337E+02 -0.72958546742E+01 -0.18375235570E+02  0.25922375106E+02  0.51100000000E-03 0. -1.
        -11    1    3    3    0    0  0.77546597546E+00 -0.14689198080E+02 -0.11602785618E+02  0.18734954552E+02  0.51100000000E-03 0.  1.
         12    1    3    3    0    0 -0.47080761633E+01 -0.80072672646E+00  0.34158035292E+01  0.58715294600E+01  0.00000000000E+00 0. -1.
</event>
<event>
 7    1  0.5843820E-012  0.5052885E+02  0.7816164E-02  0.1300439E+00
        -11   -1    0    0    0    0  0.00000000000E+00  0.00000000000E+00  0.45593999997E+02  0.45594000000E+02  0.51100000000E-03 0. -1.
         11   -1    0    0    0    0 -0.00000000000E+00 -0.00000000000E+00 -0.45593999997E+02  0.45594000000E+02  0.51100000000E-03 0.  1.
    9900012    2    1    2    0    0  0.16317416155E+02 -0.19051424951E+02  0.31999238418E+02  0.50528854387E+02  0.29999983396E+02 0.  0.
        -12    1    1    2    0    0 -0.16317416155E+02  0.19051424951E+02 -0.31999238418E+02  0.40659145613E+02  0.00000000000E+00 0.  1.
         11    1    3    3    0    0  0.13453976131E+01  0.30746216809E+01  0.95546706163E+01  0.10126950383E+02  0.51100000000E-03 0. -1.
        -11    1    3    3    0    0  0.62859935882E+01  0.20277112340E+01  0.48605413061E+00  0.66228073442E+01  0.51100000000E-03 0.  1.
         12    1    3    3    0    0  0.86860249535E+01 -0.24153757866E+02  0.21958513671E+02  0.33779096660E+02  0.00000000000E+00 0. -1.
</event>
<event>
 7    1  0.5843820E-012  0.5052886E+02  0.7816164E-02  0.1300439E+00
        -11   -1    0    0    0    0  0.00000000000E+00  0.00000000000E+00  0.45593999997E+02  0.45594000000E+02  0.51100000000E-03 0. -1.
         11   -1    0    0    0    0 -0.00000000000E+00 -0.00000000000E+00 -0.45593999997E+02  0.45594000000E+02  0.51100000000E-03 0.  1.
    9900012    2    1    2    0    0  0.56271714477E+01 -0.14306897691E+02 -0.37640578568E+02  0.50528861605E+02  0.30000005335E+02 0.  0.
         12    1    1    2    0    0 -0.56271714477E+01  0.14306897691E+02  0.37640578568E+02  0.40659138395E+02  0.00000000000E+00 0. -1.
         11    1    3    3    0    0  0.63397127396E+01 -0.10417766575E+02 -0.16661372881E+02  0.20647594644E+02  0.51100000000E-03 0.  1.
        -11    1    3    3    0    0  0.52589652310E+01  0.44103100959E+01 -0.17950106454E+02  0.19217540749E+02  0.51100000000E-03 0. -1.
        -12    1    3    3    0    0 -0.59715065229E+01 -0.82994412116E+01 -0.30290992329E+01  0.10663726213E+02  0.00000000000E+00 0.  1.
</event>
<event>
 7    1  0.5843820E-012  0.5052887E+02  0.7816164E-02  0.1300439E+00
        -11   -1    0    0    0    0  0.00000000000E+00  0.00000000000E+00  0.45593999997E+02  0.45594000000E+02  0.51100000000E-03 0. -1.
         11   -1    0    0    0    0 -0.00000000000E+00 -0.00000000000E+00 -0.45593999997E+02  0.45594000000E+02  0.51100000000E-03 0.  1.
    9900012    2    1    2    0    0  0.10797598936E+02 -0.17222478269E+02  0.35213112596E+02  0.50528865735E+02  0.30000017887E+02 0.  0.
        -12    1    1    2    0    0 -0.10797598936E+02  0.17222478269E+02 -0.35213112596E+02  0.40659134265E+02  0.00000000000E+00 0.  1.
         11    1    3    3    0    0 -0.80309501313E+01 -0.25424379466E+01  0.14080059485E+02  0.16407566123E+02  0.51100000000E-03 0. -1.
        -11    1    3    3    0    0  0.51540079206E+01 -0.11621612559E+02  0.11228136744E+02  0.16961625250E+02  0.51100000000E-03 0.  1.
        -12    1    3    3    0    0  0.13674541147E+02 -0.30584277627E+01  0.99049163670E+01  0.17159674361E+02  0.00000000000E+00 0.  1.
</event>
<event>
 7    1  0.5843820E-012  0.5052885E+02  0.7816164E-02  0.1300439E+00
        -11   -1    0    0    0    0  0.00000000000E+00  0.00000000000E+00  0.45593999997E+02  0.45594000000E+02  0.51100000000E-03 0. -1.
         11   -1    0    0    0    0 -0.00000000000E+00 -0.00000000000E+00 -0.45593999997E+02  0.45594000000E+02  0.51100000000E-03 0.  1.
    9900012    2    1    2    0    0 -0.23958496586E+02  0.86992792179E+01 -0.31677738573E+02  0.50528854181E+02  0.29999982770E+02 0.  0.
         12    1    1    2    0    0  0.23958496586E+02 -0.86992792179E+01  0.31677738573E+02  0.40659145819E+02  0.00000000000E+00 0. -1.
         11    1    3    3    0    0 -0.93532299159E+01  0.43075628563E+01 -0.12649495149E+02  0.16310969787E+02  0.51100000000E-03 0. -1.
        -11    1    3    3    0    0  0.14918767647E+01  0.23560454412E+01 -0.17721971263E+02  0.17940036569E+02  0.51100000000E-03 0.  1.
         12    1    3    3    0    0 -0.16097143435E+02  0.20356709205E+01 -0.13062721621E+01  0.16277847825E+02  0.00000000000E+00 0. -1.
</event>
<event>
 7    1  0.5843820E-012  0.5052886E+02  0.7816164E-02  0.1300439E+00
        -11   -1    0    0    0    0  0.00000000000E+00  0.00000000000E+00  0.45593999997E+02  0.45594000000E+02  0.51100000000E-03 0. -1.
         11   -1    0    0    0    0 -0.00000000000E+00 -0.00000000000E+00 -0.45593999997E+02  0.45594000000E+02  0.51100000000E-03 0.  1.
    9900012    2    1    2    0    0 -0.14587521358E+02  0.19164184141E+02 -0.32758265084E+02  0.50528860013E+02  0.30000000495E+02 0.  0.
         12    1    1    2    0    0  0.14587521358E+02 -0.19164184141E+02  0.32758265084E+02  0.40659139987E+02  0.00000000000E+00 0. -1.
         11    1    3    3    0    0 -0.34465876703E+00 -0.78151649378E-01  0.12287146822E+01  0.12785293807E+01  0.51100000000E-03 0. -1.
        -11    1    3    3    0    0 -0.17168202911E+02  0.76471909385E+01 -0.75865119076E+01  0.20267754776E+02  0.51100000000E-03 0.  1.
         12    1    3    3    0    0  0.29253403202E+01  0.11595144852E+02 -0.26400467859E+02  0.28982575857E+02  0.00000000000E+00 0. -1.
</event>
<event>
 7    1  0.5843820E-012  0.5052885E+02  0.7816164E-02  0.1300439E+00
        -11   -1    0    0    0    0  0.00000000000E+00  0.00000000000E+00  0.45593999997E+02  0.45594000000E+02  0.51100000000E-03 0. -1.
         11   -1    0    0    0    0 -0.00000000000E+00 -0.00000000000E+00 -0.45593999997E+02  0.45594000000E+02  0.51100000000E-03 0.  1.
    9900012    2    1    2    0    0  0.35175061146E+02 -0.17586087747E+02  0.10325248022E+02  0.50528853974E+02  0.29999982140E+02 0.  0.
        -12    1    1    2    0    0 -0.35175061146E+02  0.17586087747E+02 -0.10325248022E+02  0.40659146026E+02  0.00000000000E+00 0.  1.
         11    1    3    3    0    0  0.10235357731E+02 -0.17296913269E+02  0.85407745415E+01  0.21837824675E+02  0.51100000000E-03 0. -1.
        -11    1    3    3    0    0  0.27431640641E+01 -0.52138600665E+01  0.63710629655E+00  0.59258071661E+01  0.51100000000E-03 0.  1.
        -12    1    3    3    0    0  0.22196539351E+02  0.49246855888E+01  0.11473671836E+01  0.22765222133E+02  0.00000000000E+00 0.  1.
</event>
<event>
 7    1  0.5843820E-012  0.5052880E+02  0.7816164E-02  0.1300439E+00
        -11   -1    0    0    0    0  0.00000000000E+00  0.00000000000E+00  0.45593999997E+02  0.45594000000E+02  0.51100000000E-03 0. -1.
         11   -1    0    0    0    0 -0.00000000000E+00 -0.00000000000E+00 -0.45593999997E+02  0.45594000000E+02  0.51100000000E-03 0.  1.
    9900012    2    1    2    0    0 -0.19539937490E+02  0.10276974602E+02  0.34143008479E+02  0.50528801877E+02  0.29999823784E+02 0.  0.
        -12    1    1    2    0    0  0.19539937490E+02 -0.10276974602E+02 -0.34143008479E+02  0.40659198123E+02  0.00000000000E+00 0.  1.
         11    1    3    3    0    0 -0.28381858874E+01  0.98023748155E+01  0.13927793058E+02  0.17266304494E+02  0.51100000000E-03 0. -1.
        -11    1    3    3    0    0  0.37098057093E+01  0.48542093107E-01 -0.97630105179E+00  0.38364278620E+01  0.51100000000E-03 0.  1.
         12    1    3    3    0    0 -0.20411557311E+02  0.42605769332E+00  0.21191516473E+02  0.29426069521E+02  0.00000000000E+00 0. -1.
</event>
<event>
 7    1  0.5843820E-012  0.5052887E+02  0.7816164E-02  0.1300439E+00
        -11   -1    0    0    0    0  0.00000000000E+00  0.00000000000E+00  0.45593999997E+02  0.45594000000E+02  0.51100000000E-03 0. -1.
         11   -1    0    0    0    0 -0.00000000000E+00 -0.00000000000E+00 -0.45593999997E+02  0.45594000000E+02  0.51100000000E-03 0.  1.
    9900012    2    1    2    0    0  0.31109891810E+02  0.79915341779E+01 -0.24929405093E+02  0.50528865414E+02  0.30000016912E+02 0.  0.
         12    1    1    2    0    0 -0.31109891810E+02 -0.79915341779E+01  0.24929405093E+02  0.40659134586E+02  0.00000000000E+00 0. -1.
         11    1    3    3    0    0  0.15275999994E+01  0.86687475262E+00 -0.52368879738E+01  0.55235884628E+01  0.51100000000E-03 0.  1.
        -11    1    3    3    0    0 -0.29364125193E+01 -0.41935474700E+01  0.40776425874E+00  0.51356237030E+01  0.51100000000E-03 0. -1.
         12    1    3    3    0    0  0.32518704330E+02  0.11318206895E+02 -0.20100281378E+02  0.39869653248E+02  0.00000000000E+00 0. -1.
</event>
<event>
 7    1  0.5843820E-012  0.5052886E+02  0.7816164E-02  0.1300439E+00
        -11   -1    0    0    0    0  0.00000000000E+00  0.00000000000E+00  0.45593999997E+02  0.45594000000E+02  0.51100000000E-03 0. -1.
         11   -1    0    0    0    0 -0.00000000000E+00 -0.00000000000E+00 -0.45593999997E+02  0.45594000000E+02  0.51100000000E-03 0.  1.
    9900012    2    1    2    0    0  0.25076465066E+02  0.79187951973E+01 -0.31010150982E+02  0.50528857344E+02  0.29999992383E+02 0.  0.
         12    1    1    2    0    0 -0.25076465066E+02 -0.79187951973E+01  0.31010150982E+02  0.40659142656E+02  0.00000000000E+00 0. -1.
         11    1    3    3    0    0  0.46257785178E+01  0.32069371546E+01 -0.10187196293E+02  0.11638781783E+02  0.51100000000E-03 0. -1.
        -11    1    3    3    0    0  0.13827051578E+01 -0.39788483185E+00 -0.19012069584E+02  0.19066435850E+02  0.51100000000E-03 0.  1.
         12    1    3    3    0    0  0.19067981390E+02  0.51097428745E+01 -0.18108851051E+01  0.19823639711E+02  0.00000000000E+00 0. -1.
</event>
<event>
 7    1  0.5843820E-012  0.5052886E+02  0.7816164E-02  0.1300439E+00
        -11   -1    0    0    0    0  0.00000000000E+00  0.00000000000E+00  0.45593999997E+02  0.45594000000E+02  0.51100000000E-03 0. -1.
         11   -1    0    0    0    0 -0.00000000000E+00 -0.00000000000E+00 -0.45593999997E+02  0.45594000000E+02  0.51100000000E-03 0.  1.
    9900012    2    1    2    0    0  0.17930027643E+02 -0.11100879362E+02 -0.34762769508E+02  0.50528861326E+02  0.30000004486E+02 0.  0.
         12    1    1    2    0    0 -0.17930027643E+02  0.11100879362E+02  0.34762769508E+02  0.40659138674E+02  0.00000000000E+00 0. -1.
         11    1    3    3    0    0  0.12708661098E+02 -0.19234511865E+02 -0.20580867269E+02  0.30903860785E+02  0.51100000000E-03 0. -1.
        -11    1    3    3    0    0  0.38264610906E+01 -0.10706017837E+01 -0.25284152434E+01  0.47096577966E+01  0.51100000000E-03 0.  1.
        -12    1    3    3    0    0  0.13949054540E+01  0.92042342866E+01 -0.11653486995E+02  0.14915342744E+02  0.00000000000E+00 0.  1.
</event>
<event>
 7    1  0.5843820E-012  0.5052888E+02  0.7816164E-02  0.1300439E+00
        -11   -1    0    0    0    0  0.00000000000E+00  0.00000000000E+00  0.45593999997E+02  0.45594000000E+02  0.51100000000E-03 0. -1.
         11   -1    0    0    0    0 -0.00000000000E+00 -0.00000000000E+00 -0.45593999997E+02  0.45594000000E+02  0.51100000000E-03 0.  1.
    9900012    2    1    2    0    0 -0.25882956656E+02  0.30986010777E+02  0.48066641074E+01  0.50528876437E+02  0.30000050417E+02 0.  0.
        -12    1    1    2    0    0  0.25882956656E+02 -0.30986010777E+02 -0.48066641074E+01  0.40659123563E+02  0.00000000000E+00 0.  1.
         11    1    3    3    0    0  0.30425778925E+01  0.69916568689E+01 -0.13051077998E+01  0.77358808571E+01  0.51100000000E-03 0. -1.
        -11    1    3    3    0    0  0.10799455470E+01  0.63622257344E+01 -0.25334252551E+01  0.69327081624E+01  0.51100000000E-03 0.  1.
         12    1    3    3    0    0 -0.30005480095E+02  0.17632128173E+02  0.86451971623E+01  0.35860287417E+02  0.00000000000E+00 0. -1.
</event>
<event>
 7    1  0.5843820E-012  0.5052885E+02  0.7816164E-02  0.1300439E+00
        -11   -1    0    0    0    0  0.00000000000E+00  0.00000000000E+00  0.45593999997E+02  0.45594000000E+02  0.51100000000E-03 0. -1.
         11   -1    0    0    0    0 -0.00000000000E+00 -0.00000000000E+00 -0.45593999997E+02  0.45594000000E+02  0.51100000000E-03 0.  1.
    9900012    2    1    2    0    0  0.10463336418E+02 -0.17943654544E+02 -0.34952967487E+02  0.50528854860E+02  0.29999984832E+02 0.  0.
         12    1    1    2    0    0 -0.10463336418E+02  0.17943654544E+02  0.34952967487E+02  0.40659145140E+02  0.00000000000E+00 0. -1.
         11    1    3    3    0    0  0.13808867085E+02 -0.11006914482E+02 -0.37296952987E+01  0.18048479268E+02  0.51100000000E-03 0. -1.
        -11    1    3    3    0    0 -0.61261099914E+00 -0.60407694382E+01 -0.20952083403E+02  0.21814123563E+02  0.51100000000E-03 0.  1.
        -12    1    3    3    0    0 -0.27329196683E+01 -0.89597062347E+00 -0.10271188786E+02  0.10666252029E+02  0.00000000000E+00 0.  1.
</event>
<event>
 7    1  0.5843820E-012  0.5052890E+02  0.7816164E-02  0.1300439E+00
        -11   -1    0    0    0    0  0.00000000000E+00  0.00000000000E+00  0.45593999997E+02  0.45594000000E+02  0.51100000000E-03 0. -1.
         11   -1    0    0    0    0 -0.00000000000E+00 -0.00000000000E+00 -0.45593999997E+02  0.45594000000E+02  0.51100000000E-03 0.  1.
    9900012    2    1    2    0    0 -0.15003195042E+02 -0.49762435667E+01  0.37460696605E+02  0.50528897063E+02  0.30000113114E+02 0.  0.
        -12    1    1    2    0    0  0.15003195042E+02  0.49762435667E+01 -0.37460696605E+02  0.40659102937E+02  0.00000000000E+00 0.  1.
         11    1    3    3    0    0 -0.13231206729E+02 -0.34968182575E+01  0.15048888864E+02  0.20341131377E+02  0.51100000000E-03 0. -1.
        -11    1    3    3    0    0 -0.79389531863E+00 -0.49605716790E+01 -0.20750391913E+01  0.54353775458E+01  0.51100000000E-03 0.  1.
         12    1    3    3    0    0 -0.97809299475E+00  0.34811463698E+01  0.24486846932E+02  0.24752388140E+02  0.00000000000E+00 0. -1.
</event>
<event>
 7    1  0.5843820E-012  0.5052888E+02  0.7816164E-02  0.1300439E+00
        -11   -1    0    0    0    0  0.00000000000E+00  0.00000000000E+00  0.45593999997E+02  0.45594000000E+02  0.51100000000E-03 0. -1.
         11   -1    0    0    0    0 -0.00000000000E+00 -0.00000000000E+00 -0.45593999997E+02  0.45594000000E+02  0.51100000000E-03 0.  1.
    9900012    2    1    2    0    0  0.38368289290E+02  0.47912034308E+01 -0.12573087923E+02  0.50528883024E+02  0.30000070438E+02 0.  0.
         12    1    1    2    0    0 -0.38368289290E+02 -0.47912034308E+01  0.12573087923E+02  0.40659116976E+02  0.00000000000E+00 0. -1.
         11    1    3    3    0    0  0.82026349806E+01 -0.74467645700E+01  0.40757891856E+01  0.11804642347E+02  0.51100000000E-03 0. -1.
        -11    1    3    3    0    0  0.83519261290E+01 -0.19970789480E+01 -0.19150591954E+01  0.87983206563E+01  0.51100000000E-03 0.  1.
         12    1    3    3    0    0  0.21813728181E+02  0.14235046949E+02 -0.14733817913E+02  0.29925920021E+02  0.00000000000E+00 0. -1.
</event>
<event>
 7    1  0.5843820E-012  0.5052886E+02  0.7816164E-02  0.1300439E+00
        -11   -1    0    0    0    0  0.00000000000E+00  0.00000000000E+00  0.45593999997E+02  0.45594000000E+02  0.51100000000E-03 0. -1.
         11   -1    0    0    0    0 -0.00000000000E+00 -0.00000000000E+00 -0.45593999997E+02  0.45594000000E+02  0.51100000000E-03 0.  1.
    9900012    2    1    2    0    0  0.30093497515E+02 -0.17805408193E+02 -0.20748843094E+02  0.50528860273E+02  0.30000001285E+02 0.  0.
         12    1    1    2    0    0 -0.30093497515E+02  0.17805408193E+02  0.20748843094E+02  0.40659139727E+02  0.00000000000E+00 0. -1.
         11    1    3    3    0    0 -0.21848211979E+01 -0.28791374584E+00  0.76897931754E+00  0.23340238739E+01  0.51100000000E-03 0. -1.
        -11    1    3    3    0    0  0.66473251001E+01  0.49840002631E+01 -0.79170627703E+01  0.11476370192E+02  0.51100000000E-03 0.  1.
        -12    1    3    3    0    0  0.25630993613E+02 -0.22501494710E+02 -0.13600759642E+02  0.36718466207E+02  0.00000000000E+00 0.  1.
</event>
<event>
 7    1  0.5843820E-012  0.5052886E+02  0.7816164E-02  0.1300439E+00
        -11   -1    0    0    0    0  0.00000000000E+00  0.00000000000E+00  0.45593999997E+02  0.45594000000E+02  0.51100000000E-03 0. -1.
         11   -1    0    0    0    0 -0.00000000000E+00 -0.00000000000E+00 -0.45593999997E+02  0.45594000000E+02  0.51100000000E-03 0.  1.
    9900012    2    1    2    0    0 -0.15504019309E+02 -0.24818219967E+02  0.28228477541E+02  0.50528860789E+02  0.30000002855E+02 0.  0.
        -12    1    1    2    0    0  0.15504019309E+02  0.24818219967E+02 -0.28228477541E+02  0.40659139211E+02  0.00000000000E+00 0.  1.
         11    1    3    3    0    0 -0.82737979983E+01  0.87892976007E+00  0.47643553803E+01  0.95878742843E+01  0.51100000000E-03 0. -1.
        -11    1    3    3    0    0  0.29518276353E+00 -0.38992030332E+01 -0.36482580678E+01  0.53479626353E+01  0.51100000000E-03 0.  1.
         12    1    3    3    0    0 -0.75254040744E+01 -0.21797946694E+02  0.27112380228E+02  0.35593023870E+02  0.00000000000E+00 0. -1.
</event>
<event>
 7    1  0.5843820E-012  0.5052886E+02  0.7816164E-02  0.1300439E+00
        -11   -1    0    0    0    0  0.00000000000E+00  0.00000000000E+00  0.45593999997E+02  0.45594000000E+02  0.51100000000E-03 0. -1.
         11   -1    0    0    0    0 -0.00000000000E+00 -0.00000000000E+00 -0.45593999997E+02  0.45594000000E+02  0.51100000000E-03 0.  1.
    9900012    2    1    2    0    0 -0.25981751359E+02  0.68712509174E+01 -0.30510659331E+02  0.50528858031E+02  0.29999994471E+02 0.  0.
         12    1    1    2    0    0  0.25981751359E+02 -0.68712509174E+01  0.30510659331E+02  0.40659141969E+02  0.00000000000E+00 0. -1.
         11    1    3    3    0    0 -0.10604572903E+02 -0.60438457417E+01 -0.10094303965E+02  0.15839192233E+02  0.51100000000E-03 0.  1.
        -11    1    3    3    0    0 -0.73793155102E+01 -0.45220171315E+01 -0.83533540704E+01  0.12028360687E+02  0.51100000000E-03 0. -1.
        -12    1    3    3    0    0 -0.79978629464E+01  0.17437113791E+02 -0.12063001295E+02  0.22661305110E+02  0.00000000000E+00 0.  1.
</event>
<event>
 7    1  0.5843820E-012  0.5052886E+02  0.7816164E-02  0.1300439E+00
        -11   -1    0    0    0    0  0.00000000000E+00  0.00000000000E+00  0.45593999997E+02  0.45594000000E+02  0.51100000000E-03 0. -1.
         11   -1    0    0    0    0 -0.00000000000E+00 -0.00000000000E+00 -0.45593999997E+02  0.45594000000E+02  0.51100000000E-03 0.  1.
    9900012    2    1    2    0    0 -0.92685400676E+00 -0.38753462125E+01  0.40463423960E+02  0.50528855332E+02  0.29999986266E+02 0.  0.
        -12    1    1    2    0    0  0.92685400676E+00  0.38753462125E+01 -0.40463423960E+02  0.40659144668E+02  0.00000000000E+00 0.  1.
         11    1    3    3    0    0 -0.16662863911E+01  0.14731737396E+01  0.89276400455E+01  0.92005167380E+01  0.51100000000E-03 0. -1.
        -11    1    3    3    0    0  0.13204681319E+02 -0.52541425891E+01  0.17847860079E+02  0.22814813888E+02  0.51100000000E-03 0.  1.
        -12    1    3    3    0    0 -0.12465248935E+02 -0.94377362948E-01  0.13687923836E+02  0.18513524706E+02  0.00000000000E+00 0.  1.
</event>
<event>
 7    1  0.5843820E-012  0.5052887E+02  0.7816164E-02  0.1300439E+00
        -11   -1    0    0    0    0  0.00000000000E+00  0.00000000000E+00  0.45593999997E+02  0.45594000000E+02  0.51100000000E-03 0. -1.
         11   -1    0    0    0    0 -0.00000000000E+00 -0.00000000000E+00 -0.45593999997E+02  0.45594000000E+02  0.51100000000E-03 0.  1.
    9900012    2    1    2    0    0 -0.32670468497E+02 -0.74320505295E+01 -0.23034097971E+02  0.50528873641E+02  0.30000041920E+02 0.  0.
         12    1    1    2    0    0  0.32670468497E+02  0.74320505295E+01  0.23034097971E+02  0.40659126359E+02  0.00000000000E+00 0. -1.
         11    1    3    3    0    0 -0.89762566334E+01  0.61111137597E+01 -0.14618741323E+02  0.18210614835E+02  0.51100000000E-03 0. -1.
        -11    1    3    3    0    0 -0.19844550325E+02 -0.91448135681E+01 -0.12513347882E+02  0.25179707470E+02  0.51100000000E-03 0.  1.
         12    1    3    3    0    0 -0.38496615387E+01 -0.43983507211E+01  0.40979912341E+01  0.71385513364E+01  0.00000000000E+00 0. -1.
</event>
<event>
 7    1  0.5843820E-012  0.5052885E+02  0.7816164E-02  0.1300439E+00
        -11   -1    0    0    0    0  0.00000000000E+00  0.00000000000E+00  0.45593999997E+02  0.45594000000E+02  0.51100000000E-03 0. -1.
         11   -1    0    0    0    0 -0.00000000000E+00 -0.00000000000E+00 -0.45593999997E+02  0.45594000000E+02  0.51100000000E-03 0.  1.
    9900012    2    1    2    0    0  0.13524963444E+02  0.18973348761E+02 -0.33320468810E+02  0.50528852922E+02  0.29999978943E+02 0.  0.
         12    1    1    2    0    0 -0.13524963444E+02 -0.18973348761E+02  0.33320468810E+02  0.40659147078E+02  0.00000000000E+00 0. -1.
         11    1    3    3    0    0 -0.29210786182E+01  0.27316629787E+01  0.56695901269E+00  0.40393224315E+01  0.51100000000E-03 0. -1.
        -11    1    3    3    0    0  0.27992175332E+01  0.73961012112E+01  0.10258721806E+01  0.79743555173E+01  0.51100000000E-03 0.  1.
        -12    1    3    3    0    0  0.13646824529E+02  0.88455845712E+01 -0.34913300003E+02  0.38515174974E+02  0.00000000000E+00 0.  1.
</event>
<event>
 7    1  0.5843820E-012  0.5052887E+02  0.7816164E-02  0.1300439E+00
        -11   -1    0    0    0    0  0.00000000000E+00  0.00000000000E+00  0.45593999997E+02  0.45594000000E+02  0.51100000000E-03 0. -1.
         11   -1    0    0    0    0 -0.00000000000E+00 -0.00000000000E+00 -0.45593999997E+02  0.45594000000E+02  0.51100000000E-03 0.  1.
    9900012    2    1    2    0    0  0.34107097112E+02  0.68359035166E+01  0.21050926305E+02  0.50528866357E+02  0.30000019778E+02 0.  0.
        -12    1    1    2    0    0 -0.34107097112E+02 -0.68359035166E+01 -0.21050926305E+02  0.40659133643E+02  0.00000000000E+00 0.  1.
         11    1    3    3    0    0  0.12048152622E+01 -0.90382352103E+00  0.10100040430E+02  0.10211723347E+02  0.51100000000E-03 0. -1.
        -11    1    3    3    0    0 -0.12054604781E+01  0.43331365495E+01  0.17515592836E+01  0.48267139449E+01  0.51100000000E-03 0.  1.
         12    1    3    3    0    0  0.34107742328E+02  0.34065904882E+01  0.91993265914E+01  0.35490429065E+02  0.00000000000E+00 0. -1.
</event>
<event>
 7    1  0.5843820E-012  0.5052887E+02  0.7816164E-02  0.1300439E+00
        -11   -1    0    0    0    0  0.00000000000E+00  0.00000000000E+00  0.45593999997E+02  0.45594000000E+02  0.51100000000E-03 0. -1.
         11   -1    0    0    0    0 -0.00000000000E+00 -0.00000000000E+00 -0.45593999997E+02  0.45594000000E+02  0.51100000000E-03 0.  1.
    9900012    2    1    2    0    0 -0.22358669885E+01 -0.30001677710E+01  0.40486602684E+02  0.50528866896E+02  0.30000021418E+02 0.  0.
        -12    1    1    2    0    0  0.22358669885E+01  0.30001677710E+01 -0.40486602684E+02  0.40659133104E+02  0.00000000000E+00 0.  1.
         11    1    3    3    0    0 -0.72576011242E+01  0.17812341711E+01  0.25816042032E+02  0.26875892464E+02  0.51100000000E-03 0. -1.
        -11    1    3    3    0    0  0.84228825068E+01  0.35517076109E+00  0.15291304218E+02  0.17461245114E+02  0.51100000000E-03 0.  1.
        -12    1    3    3    0    0 -0.34011483711E+01 -0.51365727032E+01 -0.62074356630E+00  0.61917293184E+01  0.00000000000E+00 0.  1.
</event>
<event>
 7    1  0.5843820E-012  0.5052887E+02  0.7816164E-02  0.1300439E+00
        -11   -1    0    0    0    0  0.00000000000E+00  0.00000000000E+00  0.45593999997E+02  0.45594000000E+02  0.51100000000E-03 0. -1.
         11   -1    0    0    0    0 -0.00000000000E+00 -0.00000000000E+00 -0.45593999997E+02  0.45594000000E+02  0.51100000000E-03 0.  1.
    9900012    2    1    2    0    0 -0.35944149571E+02 -0.16580992036E+02  0.92873027312E+01  0.50528866004E+02  0.30000018706E+02 0.  0.
         12    1    1    2    0    0  0.35944149571E+02  0.16580992036E+02 -0.92873027312E+01  0.40659133996E+02  0.00000000000E+00 0. -1.
         11    1    3    3    0    0 -0.16988748713E+02 -0.67552599592E+01  0.15272142097E+02  0.23822036950E+02  0.51100000000E-03 0. -1.
        -11    1    3    3    0    0 -0.20015232817E+02 -0.91802137332E+01 -0.15197509759E+01  0.22072505798E+02  0.51100000000E-03 0.  1.
        -12    1    3    3    0    0  0.10598319586E+01 -0.64551834354E+00 -0.44650883903E+01  0.46343232565E+01  0.00000000000E+00 0.  1.
</event>
<event>
 7    1  0.5843820E-012  0.5052886E+02  0.7816164E-02  0.1300439E+00
        -11   -1    0    0    0    0  0.00000000000E+00  0.00000000000E+00  0.45593999997E+02  0.45594000000E+02  0.51100000000E-03 0. -1.
         11   -1    0    0    0    0 -0.00000000000E+00 -0.00000000000E+00 -0.45593999997E+02  0.45594000000E+02  0.51100000000E-03 0.  1.
    9900012    2    1    2    0    0 -0.16972109760E+02  0.18955866219E+02 -0.31714169529E+02  0.50528856837E+02  0.29999990843E+02 0.  0.
         12    1    1    2    0    0  0.16972109760E+02 -0.18955866219E+02  0.31714169529E+02  0.40659143163E+02  0.00000000000E+00 0. -1.
         11    1    3    3    0    0  0.23097946505E+01  0.40554721667E+00 -0.99255442967E+01  0.10198825899E+02  0.51100000000E-03 0. -1.
        -11    1    3    3    0    0  0.37386705415E+01  0.70064320639E+01 -0.31658820738E+01  0.85493015650E+01  0.51100000000E-03 0.  1.
        -12    1    3    3    0    0 -0.23020574952E+02  0.11543886939E+02 -0.18622743158E+02  0.31780729373E+02  0.00000000000E+00 0.  1.
</event>
<event>
 7    1  0.5843820E-012  0.5052884E+02  0.7816164E-02  0.1300439E+00
        -11   -1    0    0    0    0  0.00000000000E+00  0.00000000000E+00  0.45593999997E+02  0.45594000000E+02  0.51100000000E-03 0.  1.
         11   -1    0    0    0    0 -0.00000000000E+00 -0.00000000000E+00 -0.45593999997E+02  0.45594000000E+02  0.51100000000E-03 0. -1.
    9900012    2    1    2    0    0 -0.34613486943E+02 -0.16521195253E+02  0.13495336450E+02  0.50528837726E+02  0.29999932751E+02 0.  0.
        -12    1    1    2    0    0  0.34613486943E+02  0.16521195253E+02 -0.13495336450E+02  0.40659162274E+02  0.00000000000E+00 0.  1.
         11    1    3    3    0    0 -0.84016852959E+01  0.51199147516E+01  0.86807262550E+01  0.13120855591E+02  0.51100000000E-03 0. -1.
        -11    1    3    3    0    0  0.13465127847E+01 -0.21926951607E+01  0.25177935501E+01  0.36000407455E+01  0.51100000000E-03 0.  1.
         12    1    3    3    0    0 -0.27558314432E+02 -0.19448414844E+02  0.22968166452E+01  0.33807941389E+02  0.00000000000E+00 0. -1.
</event>
<event>
 7    1  0.5843820E-012  0.5052886E+02  0.7816164E-02  0.1300439E+00
        -11   -1    0    0    0    0  0.00000000000E+00  0.00000000000E+00  0.45593999997E+02  0.45594000000E+02  0.51100000000E-03 0. -1.
         11   -1    0    0    0    0 -0.00000000000E+00 -0.00000000000E+00 -0.45593999997E+02  0.45594000000E+02  0.51100000000E-03 0.  1.
    9900012    2    1    2    0    0 -0.87136976963E+01  0.28319201778E+02  0.27843487082E+02  0.50528862162E+02  0.30000007027E+02 0.  0.
        -12    1    1    2    0    0  0.87136976963E+01 -0.28319201778E+02 -0.27843487082E+02  0.40659137838E+02  0.00000000000E+00 0.  1.
         11    1    3    3    0    0 -0.51623292266E+01  0.10510725130E+02  0.62654214427E+01  0.13280831748E+02  0.51100000000E-03 0. -1.
        -11    1    3    3    0    0  0.12547267945E+01  0.21622783444E+02  0.22279371128E+02  0.31072326616E+02  0.51100000000E-03 0.  1.
        -12    1    3    3    0    0 -0.48060952642E+01 -0.38143067955E+01 -0.70130548918E+00  0.61757037986E+01  0.00000000000E+00 0.  1.
</event>
<event>
 7    1  0.5843820E-012  0.5052886E+02  0.7816164E-02  0.1300439E+00
        -11   -1    0    0    0    0  0.00000000000E+00  0.00000000000E+00  0.45593999997E+02  0.45594000000E+02  0.51100000000E-03 0. -1.
         11   -1    0    0    0    0 -0.00000000000E+00 -0.00000000000E+00 -0.45593999997E+02  0.45594000000E+02  0.51100000000E-03 0.  1.
    9900012    2    1    2    0    0  0.64563471666E+01  0.38489694781E+01  0.39958316026E+02  0.50528855833E+02  0.29999987790E+02 0.  0.
        -12    1    1    2    0    0 -0.64563471666E+01 -0.38489694781E+01 -0.39958316026E+02  0.40659144167E+02  0.00000000000E+00 0.  1.
         11    1    3    3    0    0 -0.60301425205E+01  0.12561852965E+02  0.16641595004E+02  0.21704963794E+02  0.51100000000E-03 0. -1.
        -11    1    3    3    0    0  0.34139970624E+01  0.10852426733E+01  0.53377133635E+01  0.64283988531E+01  0.51100000000E-03 0.  1.
         12    1    3    3    0    0  0.90724926246E+01 -0.97981261605E+01  0.17979007658E+02  0.22395493186E+02  0.00000000000E+00 0. -1.
</event>
<event>
 7    1  0.5843820E-012  0.5052885E+02  0.7816164E-02  0.1300439E+00
        -11   -1    0    0    0    0  0.00000000000E+00  0.00000000000E+00  0.45593999997E+02  0.45594000000E+02  0.51100000000E-03 0. -1.
         11   -1    0    0    0    0 -0.00000000000E+00 -0.00000000000E+00 -0.45593999997E+02  0.45594000000E+02  0.51100000000E-03 0.  1.
    9900012    2    1    2    0    0  0.64229978567E+00  0.11281523522E+02 -0.39057410657E+02  0.50528847904E+02  0.29999963688E+02 0.  0.
         12    1    1    2    0    0 -0.64229978567E+00 -0.11281523522E+02  0.39057410657E+02  0.40659152096E+02  0.00000000000E+00 0. -1.
         11    1    3    3    0    0 -0.16182813019E+01  0.63767279410E+00 -0.80521260652E+01  0.82378513822E+01  0.51100000000E-03 0.  1.
        -11    1    3    3    0    0 -0.11432164942E+02  0.37135727564E+01 -0.73363327923E+01  0.14082144615E+02  0.51100000000E-03 0. -1.
         12    1    3    3    0    0  0.13692746029E+02  0.69302779713E+01 -0.23668951799E+02  0.28208851906E+02  0.00000000000E+00 0. -1.
</event>
<event>
 7    1  0.5843820E-012  0.5052885E+02  0.7816164E-02  0.1300439E+00
        -11   -1    0    0    0    0  0.00000000000E+00  0.00000000000E+00  0.45593999997E+02  0.45594000000E+02  0.51100000000E-03 0.  1.
         11   -1    0    0    0    0 -0.00000000000E+00 -0.00000000000E+00 -0.45593999997E+02  0.45594000000E+02  0.51100000000E-03 0. -1.
    9900012    2    1    2    0    0 -0.32066040446E+02 -0.20612059568E+02 -0.14144905109E+02  0.50528852320E+02  0.29999977111E+02 0.  0.
         12    1    1    2    0    0  0.32066040446E+02  0.20612059568E+02  0.14144905109E+02  0.40659147680E+02  0.00000000000E+00 0. -1.
         11    1    3    3    0    0 -0.13395404617E+02  0.46940957056E+01 -0.95608400797E+01  0.17113768218E+02  0.51100000000E-03 0. -1.
        -11    1    3    3    0    0 -0.13311275848E+02 -0.11184792939E+02  0.73421090131E+00  0.17401974707E+02  0.51100000000E-03 0.  1.
        -12    1    3    3    0    0 -0.53593599816E+01 -0.14121362334E+02 -0.53182759309E+01  0.16013109394E+02  0.00000000000E+00 0.  1.
</event>
<event>
 7    1  0.5843820E-012  0.5052890E+02  0.7816164E-02  0.1300439E+00
        -11   -1    0    0    0    0  0.00000000000E+00  0.00000000000E+00  0.45593999997E+02  0.45594000000E+02  0.51100000000E-03 0. -1.
         11   -1    0    0    0    0 -0.00000000000E+00 -0.00000000000E+00 -0.45593999997E+02  0.45594000000E+02  0.51100000000E-03 0.  1.
    9900012    2    1    2    0    0  0.89346330938E+00  0.20215988614E+02  0.35265818836E+02  0.50528899536E+02  0.30000120631E+02 0.  0.
        -12    1    1    2    0    0 -0.89346330938E+00 -0.20215988614E+02 -0.35265818836E+02  0.40659100464E+02  0.00000000000E+00 0.  1.
         11    1    3    3    0    0  0.73274008310E+00 -0.35538709372E+01  0.31578510926E+01  0.48102942168E+01  0.51100000000E-03 0. -1.
        -11    1    3    3    0    0  0.94123473006E+00 -0.31937120189E+01  0.10923189220E+02  0.11419359976E+02  0.51100000000E-03 0.  1.
         12    1    3    3    0    0 -0.78051150378E+00  0.26963571570E+02  0.21184778523E+02  0.34299245343E+02  0.00000000000E+00 0. -1.
</event>
<event>
 7    1  0.5843820E-012  0.5052885E+02  0.7816164E-02  0.1300439E+00
        -11   -1    0    0    0    0  0.00000000000E+00  0.00000000000E+00  0.45593999997E+02  0.45594000000E+02  0.51100000000E-03 0. -1.
         11   -1    0    0    0    0 -0.00000000000E+00 -0.00000000000E+00 -0.45593999997E+02  0.45594000000E+02  0.51100000000E-03 0.  1.
    9900012    2    1    2    0    0  0.86011354166E+01 -0.19939922491E+02 -0.34374213560E+02  0.50528848542E+02  0.29999965629E+02 0.  0.
         12    1    1    2    0    0 -0.86011354166E+01  0.19939922491E+02  0.34374213560E+02  0.40659151458E+02  0.00000000000E+00 0. -1.
         11    1    3    3    0    0 -0.73285660310E+01  0.62322206179E+00 -0.25453707619E+01  0.77830070272E+01  0.51100000000E-03 0. -1.
        -11    1    3    3    0    0 -0.13114658515E+01 -0.49640548443E+01 -0.75423069595E+01  0.91240439340E+01  0.51100000000E-03 0.  1.
         12    1    3    3    0    0  0.17241167299E+02 -0.15599089709E+02 -0.24286535838E+02  0.33621797581E+02  0.00000000000E+00 0. -1.
</event>
<event>
 7    1  0.5843820E-012  0.5052886E+02  0.7816164E-02  0.1300439E+00
        -11   -1    0    0    0    0  0.00000000000E+00  0.00000000000E+00  0.45593999997E+02  0.45594000000E+02  0.51100000000E-03 0. -1.
         11   -1    0    0    0    0 -0.00000000000E+00 -0.00000000000E+00 -0.45593999997E+02  0.45594000000E+02  0.51100000000E-03 0.  1.
    9900012    2    1    2    0    0 -0.13337723517E+02 -0.14635906285E+02  0.35511417924E+02  0.50528862966E+02  0.30000009471E+02 0.  0.
        -12    1    1    2    0    0  0.13337723517E+02  0.14635906285E+02 -0.35511417924E+02  0.40659137034E+02  0.00000000000E+00 0.  1.
         11    1    3    3    0    0 -0.12520439187E+01 -0.53640124406E+01  0.70502509487E+01  0.89468587861E+01  0.51100000000E-03 0. -1.
        -11    1    3    3    0    0 -0.40520393445E+01 -0.97557001638E+01 -0.13992351862E+01  0.10656010881E+02  0.51100000000E-03 0.  1.
         12    1    3    3    0    0 -0.80336402536E+01  0.48380631912E+00  0.29860402161E+02  0.30925993299E+02  0.00000000000E+00 0. -1.
</event>
<event>
 7    1  0.5843820E-012  0.5052887E+02  0.7816164E-02  0.1300439E+00
        -11   -1    0    0    0    0  0.00000000000E+00  0.00000000000E+00  0.45593999997E+02  0.45594000000E+02  0.51100000000E-03 0. -1.
         11   -1    0    0    0    0 -0.00000000000E+00 -0.00000000000E+00 -0.45593999997E+02  0.45594000000E+02  0.51100000000E-03 0.  1.
    9900012    2    1    2    0    0  0.33232943885E+01  0.18413542923E+02  0.36097947060E+02  0.50528872728E+02  0.30000039143E+02 0.  0.
        -12    1    1    2    0    0 -0.33232943885E+01 -0.18413542923E+02 -0.36097947060E+02  0.40659127272E+02  0.00000000000E+00 0.  1.
         11    1    3    3    0    0  0.76096331162E+00  0.12017974141E+02  0.79056073782E+01  0.14405186423E+02  0.51100000000E-03 0. -1.
        -11    1    3    3    0    0 -0.88130792837E+00  0.14032658898E+02  0.15623154967E+02  0.21018448820E+02  0.51100000000E-03 0.  1.
         12    1    3    3    0    0  0.34436390053E+01 -0.76370901166E+01  0.12569184715E+02  0.15105237484E+02  0.00000000000E+00 0. -1.
</event>
<event>
 7    1  0.5843820E-012  0.5052889E+02  0.7816164E-02  0.1300439E+00
        -11   -1    0    0    0    0  0.00000000000E+00  0.00000000000E+00  0.45593999997E+02  0.45594000000E+02  0.51100000000E-03 0. -1.
         11   -1    0    0    0    0 -0.00000000000E+00 -0.00000000000E+00 -0.45593999997E+02  0.45594000000E+02  0.51100000000E-03 0.  1.
    9900012    2    1    2    0    0 -0.31193301159E+02 -0.28025698242E+01  0.25928498096E+02  0.50528887266E+02  0.30000083334E+02 0.  0.
        -12    1    1    2    0    0  0.31193301159E+02  0.28025698242E+01 -0.25928498096E+02  0.40659112734E+02  0.00000000000E+00 0.  1.
         11    1    3    3    0    0 -0.51154010110E+01  0.51973707615E+01  0.15630964635E+02  0.17248392563E+02  0.51100000000E-03 0. -1.
        -11    1    3    3    0    0 -0.43958621625E+01 -0.87907564175E+01  0.45801121619E+01  0.10843358807E+02  0.51100000000E-03 0.  1.
        -12    1    3    3    0    0 -0.21682037986E+02  0.79081583187E+00  0.57174212987E+01  0.22437135896E+02  0.00000000000E+00 0.  1.
</event>
<event>
 7    1  0.5843820E-012  0.5052886E+02  0.7816164E-02  0.1300439E+00
        -11   -1    0    0    0    0  0.00000000000E+00  0.00000000000E+00  0.45593999997E+02  0.45594000000E+02  0.51100000000E-03 0. -1.
         11   -1    0    0    0    0 -0.00000000000E+00 -0.00000000000E+00 -0.45593999997E+02  0.45594000000E+02  0.51100000000E-03 0.  1.
    9900012    2    1    2    0    0 -0.15184832921E+02 -0.13072733453E+02 -0.35379231725E+02  0.50528861442E+02  0.30000004839E+02 0.  0.
         12    1    1    2    0    0  0.15184832921E+02  0.13072733453E+02  0.35379231725E+02  0.40659138558E+02  0.00000000000E+00 0. -1.
         11    1    3    3    0    0  0.98194994074E+00 -0.30936118050E+01 -0.15616805815E+02  0.15950526130E+02  0.51100000000E-03 0. -1.
        -11    1    3    3    0    0 -0.16429641751E+02 -0.76143538781E+01 -0.23791630458E+02  0.29899050037E+02  0.51100000000E-03 0.  1.
         12    1    3    3    0    0  0.26285888841E+00 -0.23647677700E+01  0.40292045474E+01  0.46792852751E+01  0.00000000000E+00 0. -1.
</event>
<event>
 7    1  0.5843820E-012  0.5052886E+02  0.7816164E-02  0.1300439E+00
        -11   -1    0    0    0    0  0.00000000000E+00  0.00000000000E+00  0.45593999997E+02  0.45594000000E+02  0.51100000000E-03 0. -1.
         11   -1    0    0    0    0 -0.00000000000E+00 -0.00000000000E+00 -0.45593999997E+02  0.45594000000E+02  0.51100000000E-03 0.  1.
    9900012    2    1    2    0    0  0.13063502985E+02  0.74038930227E+01 -0.37784826980E+02  0.50528857214E+02  0.29999991989E+02 0.  0.
         12    1    1    2    0    0 -0.13063502985E+02 -0.74038930227E+01  0.37784826980E+02  0.40659142786E+02  0.00000000000E+00 0. -1.
         11    1    3    3    0    0  0.37373544617E+01  0.12854401541E+00 -0.22083434201E+02  0.22397821508E+02  0.51100000000E-03 0. -1.
        -11    1    3    3    0    0 -0.15909178230E+01  0.43996984883E+01 -0.16168646918E+02  0.16831919371E+02  0.51100000000E-03 0.  1.
         12    1    3    3    0    0  0.10917066347E+02  0.28756505190E+01  0.46725413874E+00  0.11299116335E+02  0.00000000000E+00 0. -1.
</event>
<event>
 7    1  0.5843820E-012  0.5052886E+02  0.7816164E-02  0.1300439E+00
        -11   -1    0    0    0    0  0.00000000000E+00  0.00000000000E+00  0.45593999997E+02  0.45594000000E+02  0.51100000000E-03 0. -1.
         11   -1    0    0    0    0 -0.00000000000E+00 -0.00000000000E+00 -0.45593999997E+02  0.45594000000E+02  0.51100000000E-03 0.  1.
    9900012    2    1    2    0    0 -0.28252253732E+02 -0.10022769323E+02  0.27468526596E+02  0.50528859586E+02  0.29999999197E+02 0.  0.
        -12    1    1    2    0    0  0.28252253732E+02  0.10022769323E+02 -0.27468526596E+02  0.40659140414E+02  0.00000000000E+00 0.  1.
         11    1    3    3    0    0 -0.12688103259E+02 -0.78499405588E+01  0.14733507249E+02  0.20968685395E+02  0.51100000000E-03 0. -1.
        -11    1    3    3    0    0 -0.30657188381E+01 -0.91661228931E+01  0.11735780852E+02  0.15203453336E+02  0.51100000000E-03 0.  1.
        -12    1    3    3    0    0 -0.12498431636E+02  0.69932941285E+01  0.99923849529E+00  0.14356720854E+02  0.00000000000E+00 0.  1.
</event>
<event>
 7    1  0.5843820E-012  0.5052885E+02  0.7816164E-02  0.1300439E+00
        -11   -1    0    0    0    0  0.00000000000E+00  0.00000000000E+00  0.45593999997E+02  0.45594000000E+02  0.51100000000E-03 0. -1.
         11   -1    0    0    0    0 -0.00000000000E+00 -0.00000000000E+00 -0.45593999997E+02  0.45594000000E+02  0.51100000000E-03 0.  1.
    9900012    2    1    2    0    0 -0.33217968667E+02  0.12441268381E+02  0.19873292299E+02  0.50528851606E+02  0.29999974941E+02 0.  0.
        -12    1    1    2    0    0  0.33217968667E+02 -0.12441268381E+02 -0.19873292299E+02  0.40659148394E+02  0.00000000000E+00 0.  1.
         11    1    3    3    0    0 -0.19612842326E+01 -0.41220942767E+01  0.24010298480E+00  0.45712084585E+01  0.51100000000E-03 0. -1.
        -11    1    3    3    0    0 -0.12559832587E+02 -0.40732961119E+01  0.97326054914E+01  0.16403193157E+02  0.51100000000E-03 0.  1.
        -12    1    3    3    0    0 -0.18696851848E+02  0.20636658770E+02  0.99005838231E+01  0.29554449990E+02  0.00000000000E+00 0.  1.
</event>
<event>
 7    1  0.5843820E-012  0.5052887E+02  0.7816164E-02  0.1300439E+00
        -11   -1    0    0    0    0  0.00000000000E+00  0.00000000000E+00  0.45593999997E+02  0.45594000000E+02  0.51100000000E-03 0. -1.
         11   -1    0    0    0    0 -0.00000000000E+00 -0.00000000000E+00 -0.45593999997E+02  0.45594000000E+02  0.51100000000E-03 0.  1.
    9900012    2    1    2    0    0  0.19542072280E+02  0.30267812667E+02  0.18844948725E+02  0.50528866154E+02  0.30000019162E+02 0.  0.
        -12    1    1    2    0    0 -0.19542072280E+02 -0.30267812667E+02 -0.18844948725E+02  0.40659133846E+02  0.00000000000E+00 0.  1.
         11    1    3    3    0    0  0.14262435349E+02  0.69423805240E+01  0.14260434785E+02  0.21330112751E+02  0.51100000000E-03 0. -1.
        -11    1    3    3    0    0  0.10923250229E+01 -0.18216093519E+01  0.29740697014E+01  0.36546580464E+01  0.51100000000E-03 0.  1.
         12    1    3    3    0    0  0.41873119086E+01  0.25147041495E+02  0.16104442378E+01  0.25544095357E+02  0.00000000000E+00 0. -1.
</event>
<event>
 7    1  0.5843820E-012  0.5052885E+02  0.7816164E-02  0.1300439E+00
        -11   -1    0    0    0    0  0.00000000000E+00  0.00000000000E+00  0.45593999997E+02  0.45594000000E+02  0.51100000000E-03 0. -1.
         11   -1    0    0    0    0 -0.00000000000E+00 -0.00000000000E+00 -0.45593999997E+02  0.45594000000E+02  0.51100000000E-03 0.  1.
    9900012    2    1    2    0    0 -0.26341733107E+02  0.39735790314E+01 -0.30716284796E+02  0.50528851152E+02  0.29999973561E+02 0.  0.
         12    1    1    2    0    0  0.26341733107E+02 -0.39735790314E+01  0.30716284796E+02  0.40659148848E+02  0.00000000000E+00 0. -1.
         11    1    3    3    0    0 -0.52785356561E+01 -0.42318357218E+01 -0.93420238757E+01  0.11534504003E+02  0.51100000000E-03 0. -1.
        -11    1    3    3    0    0 -0.19157600756E+02 -0.45619787286E+01 -0.12385424115E+02  0.23264222477E+02  0.51100000000E-03 0.  1.
        -12    1    3    3    0    0 -0.19055966946E+01  0.12767393482E+02 -0.89888368051E+01  0.15730124672E+02  0.00000000000E+00 0.  1.
</event>
<event>
 7    1  0.5843820E-012  0.5052886E+02  0.7816164E-02  0.1300439E+00
        -11   -1    0    0    0    0  0.00000000000E+00  0.00000000000E+00  0.45593999997E+02  0.45594000000E+02  0.51100000000E-03 0. -1.
         11   -1    0    0    0    0 -0.00000000000E+00 -0.00000000000E+00 -0.45593999997E+02  0.45594000000E+02  0.51100000000E-03 0.  1.
    9900012    2    1    2    0    0 -0.41508346062E+01  0.36058287569E+02 -0.18323102759E+02  0.50528860498E+02  0.30000001970E+02 0.  0.
         12    1    1    2    0    0  0.41508346062E+01 -0.36058287569E+02  0.18323102759E+02  0.40659139502E+02  0.00000000000E+00 0. -1.
         11    1    3    3    0    0  0.34660013827E+01  0.16114254251E+02 -0.15858807584E+02  0.22873218704E+02  0.51100000000E-03 0. -1.
        -11    1    3    3    0    0 -0.11991583801E+02  0.82326322657E+01  0.12889411174E+01  0.14602591741E+02  0.51100000000E-03 0.  1.
         12    1    3    3    0    0  0.43747478121E+01  0.11711401052E+02 -0.37532362927E+01  0.13053050053E+02  0.00000000000E+00 0. -1.
</event>
<event>
 7    1  0.5843820E-012  0.5052885E+02  0.7816164E-02  0.1300439E+00
        -11   -1    0    0    0    0  0.00000000000E+00  0.00000000000E+00  0.45593999997E+02  0.45594000000E+02  0.51100000000E-03 0.  1.
         11   -1    0    0    0    0 -0.00000000000E+00 -0.00000000000E+00 -0.45593999997E+02  0.45594000000E+02  0.51100000000E-03 0. -1.
    9900012    2    1    2    0    0  0.28752900039E+01 -0.39420396582E+02  0.95357808847E+01  0.50528854948E+02  0.29999985099E+02 0.  0.
        -12    1    1    2    0    0 -0.28752900039E+01  0.39420396582E+02 -0.95357808847E+01  0.40659145052E+02  0.00000000000E+00 0.  1.
         11    1    3    3    0    0  0.14232531311E+01 -0.10128169319E+02  0.10742302633E+02  0.14832482238E+02  0.51100000000E-03 0. -1.
        -11    1    3    3    0    0 -0.57279881128E+01 -0.37840264729E+01  0.49839869093E+01  0.84834444621E+01  0.51100000000E-03 0.  1.
         12    1    3    3    0    0  0.71800249856E+01 -0.25508200790E+02 -0.61905086574E+01  0.27212928247E+02  0.00000000000E+00 0. -1.
</event>
<event>
 7    1  0.5843820E-012  0.5052885E+02  0.7816164E-02  0.1300439E+00
        -11   -1    0    0    0    0  0.00000000000E+00  0.00000000000E+00  0.45593999997E+02  0.45594000000E+02  0.51100000000E-03 0. -1.
         11   -1    0    0    0    0 -0.00000000000E+00 -0.00000000000E+00 -0.45593999997E+02  0.45594000000E+02  0.51100000000E-03 0.  1.
    9900012    2    1    2    0    0 -0.26684214966E+02 -0.30073451519E+02  0.60586316400E+01  0.50528845656E+02  0.29999956857E+02 0.  0.
         12    1    1    2    0    0  0.26684214966E+02  0.30073451519E+02 -0.60586316400E+01  0.40659154344E+02  0.00000000000E+00 0. -1.
         11    1    3    3    0    0 -0.81421080468E+01 -0.13873221830E+02  0.41389583792E+01  0.16609972430E+02  0.51100000000E-03 0. -1.
        -11    1    3    3    0    0 -0.14800865671E+02 -0.17782154417E+02  0.97431394966E+01  0.25103772781E+02  0.51100000000E-03 0.  1.
        -12    1    3    3    0    0 -0.37412412478E+01  0.15819247283E+01 -0.78234662358E+01  0.88151004455E+01  0.00000000000E+00 0.  1.
</event>
<event>
 7    1  0.5843820E-012  0.5052887E+02  0.7816164E-02  0.1300439E+00
        -11   -1    0    0    0    0  0.00000000000E+00  0.00000000000E+00  0.45593999997E+02  0.45594000000E+02  0.51100000000E-03 0. -1.
         11   -1    0    0    0    0 -0.00000000000E+00 -0.00000000000E+00 -0.45593999997E+02  0.45594000000E+02  0.51100000000E-03 0.  1.
    9900012    2    1    2    0    0  0.33023633243E+00  0.27126047772E+02  0.30285865799E+02  0.50528865836E+02  0.30000018196E+02 0.  0.
        -12    1    1    2    0    0 -0.33023633243E+00 -0.27126047772E+02 -0.30285865799E+02  0.40659134164E+02  0.00000000000E+00 0.  1.
         11    1    3    3    0    0  0.52512407955E+00 -0.56554741714E+01  0.90942200576E+01  0.10722172453E+02  0.51100000000E-03 0. -1.
        -11    1    3    3    0    0 -0.22452538801E+01  0.99308844010E+01  0.32687921772E+01  0.10693392003E+02  0.51100000000E-03 0.  1.
        -12    1    3    3    0    0  0.20503661330E+01  0.22850637542E+02  0.17922853564E+02  0.29113301380E+02  0.00000000000E+00 0.  1.
</event>
<event>
 7    1  0.5843820E-012  0.5052884E+02  0.7816164E-02  0.1300439E+00
        -11   -1    0    0    0    0  0.00000000000E+00  0.00000000000E+00  0.45593999997E+02  0.45594000000E+02  0.51100000000E-03 0. -1.
         11   -1    0    0    0    0 -0.00000000000E+00 -0.00000000000E+00 -0.45593999997E+02  0.45594000000E+02  0.51100000000E-03 0.  1.
    9900012    2    1    2    0    0 -0.20222339221E+02  0.14937998624E+02 -0.31954346566E+02  0.50528842717E+02  0.29999947923E+02 0.  0.
         12    1    1    2    0    0  0.20222339221E+02 -0.14937998624E+02  0.31954346566E+02  0.40659157283E+02  0.00000000000E+00 0. -1.
         11    1    3    3    0    0 -0.48633774937E+01 -0.28744024964E+01 -0.11548336969E+02  0.12856077060E+02  0.51100000000E-03 0.  1.
        -11    1    3    3    0    0  0.26034614402E+01  0.97356361304E+01 -0.13405082003E+02  0.16770713941E+02  0.51100000000E-03 0. -1.
         12    1    3    3    0    0 -0.17962423168E+02  0.80767649904E+01 -0.70009275944E+01  0.20902051716E+02  0.00000000000E+00 0. -1.
</event>
<event>
 7    1  0.5843820E-012  0.5052887E+02  0.7816164E-02  0.1300439E+00
        -11   -1    0    0    0    0  0.00000000000E+00  0.00000000000E+00  0.45593999997E+02  0.45594000000E+02  0.51100000000E-03 0.  1.
         11   -1    0    0    0    0 -0.00000000000E+00 -0.00000000000E+00 -0.45593999997E+02  0.45594000000E+02  0.51100000000E-03 0. -1.
    9900012    2    1    2    0    0  0.35618194175E+02  0.66887682493E+01 -0.18432846377E+02  0.50528865694E+02  0.30000017762E+02 0.  0.
         12    1    1    2    0    0 -0.35618194175E+02 -0.66887682493E+01  0.18432846377E+02  0.40659134306E+02  0.00000000000E+00 0. -1.
         11    1    3    3    0    0  0.72576785699E+01 -0.10738221134E+02 -0.79068144250E+01  0.15182259580E+02  0.51100000000E-03 0. -1.
        -11    1    3    3    0    0  0.16888870706E+01  0.24091280586E+01 -0.20493224954E+01  0.35855209511E+01  0.51100000000E-03 0.  1.
         12    1    3    3    0    0  0.26671628535E+02  0.15017861325E+02 -0.84767094565E+01  0.31761085162E+02  0.00000000000E+00 0. -1.
</event>
<event>
 7    1  0.5843820E-012  0.5052888E+02  0.7816164E-02  0.1300439E+00
        -11   -1    0    0    0    0  0.00000000000E+00  0.00000000000E+00  0.45593999997E+02  0.45594000000E+02  0.51100000000E-03 0. -1.
         11   -1    0    0    0    0 -0.00000000000E+00 -0.00000000000E+00 -0.45593999997E+02  0.45594000000E+02  0.51100000000E-03 0.  1.
    9900012    2    1    2    0    0 -0.29649947987E-01  0.22135298698E+02 -0.34105592072E+02  0.50528883702E+02  0.30000072499E+02 0.  0.
         12    1    1    2    0    0  0.29649947987E-01 -0.22135298698E+02  0.34105592072E+02  0.40659116298E+02  0.00000000000E+00 0. -1.
         11    1    3    3    0    0 -0.65743660565E+00  0.15901605921E+02 -0.23248042630E+02  0.28173831478E+02  0.51100000000E-03 0. -1.
        -11    1    3    3    0    0  0.64083922411E+01  0.61373489459E+01 -0.13373876460E+02  0.16049769937E+02  0.51100000000E-03 0.  1.
         12    1    3    3    0    0 -0.57806055835E+01  0.96343830412E-01  0.25163270181E+01  0.63052822861E+01  0.00000000000E+00 0. -1.
</event>
<event>
 7    1  0.5843820E-012  0.5052886E+02  0.7816164E-02  0.1300439E+00
        -11   -1    0    0    0    0  0.00000000000E+00  0.00000000000E+00  0.45593999997E+02  0.45594000000E+02  0.51100000000E-03 0. -1.
         11   -1    0    0    0    0 -0.00000000000E+00 -0.00000000000E+00 -0.45593999997E+02  0.45594000000E+02  0.51100000000E-03 0.  1.
    9900012    2    1    2    0    0  0.25030633392E+01 -0.24641150126E+02  0.32244595840E+02  0.50528861218E+02  0.30000004157E+02 0.  0.
        -12    1    1    2    0    0 -0.25030633392E+01  0.24641150126E+02 -0.32244595840E+02  0.40659138782E+02  0.00000000000E+00 0.  1.
         11    1    3    3    0    0 -0.12319401004E+01  0.37349431173E+01 -0.53917426415E+00  0.39696581274E+01  0.51100000000E-03 0. -1.
        -11    1    3    3    0    0 -0.24445438266E+01 -0.65423511330E+00  0.95048777249E+01  0.98359808322E+01  0.51100000000E-03 0.  1.
         12    1    3    3    0    0  0.61795472662E+01 -0.27721858130E+02  0.23278892380E+02  0.36723222258E+02  0.00000000000E+00 0. -1.
</event>
<event>
 7    1  0.5843820E-012  0.5052888E+02  0.7816164E-02  0.1300439E+00
        -11   -1    0    0    0    0  0.00000000000E+00  0.00000000000E+00  0.45593999997E+02  0.45594000000E+02  0.51100000000E-03 0.  1.
         11   -1    0    0    0    0 -0.00000000000E+00 -0.00000000000E+00 -0.45593999997E+02  0.45594000000E+02  0.51100000000E-03 0. -1.
    9900012    2    1    2    0    0  0.14838056250E+02 -0.37757337255E+02  0.27165962334E+01  0.50528876486E+02  0.30000050566E+02 0.  0.
        -12    1    1    2    0    0 -0.14838056250E+02  0.37757337255E+02 -0.27165962334E+01  0.40659123514E+02  0.00000000000E+00 0.  1.
         11    1    3    3    0    0  0.67993505890E+01 -0.72735080741E+01  0.25280763397E+01  0.10272597450E+02  0.51100000000E-03 0. -1.
        -11    1    3    3    0    0  0.16780324064E+02 -0.16894193956E+02  0.24626659574E+01  0.23938625462E+02  0.51100000000E-03 0.  1.
        -12    1    3    3    0    0 -0.87416184029E+01 -0.13589635224E+02 -0.22741460637E+01  0.16317653574E+02  0.00000000000E+00 0.  1.
</event>
<event>
 7    1  0.5843820E-012  0.5052885E+02  0.7816164E-02  0.1300439E+00
        -11   -1    0    0    0    0  0.00000000000E+00  0.00000000000E+00  0.45593999997E+02  0.45594000000E+02  0.51100000000E-03 0. -1.
         11   -1    0    0    0    0 -0.00000000000E+00 -0.00000000000E+00 -0.45593999997E+02  0.45594000000E+02  0.51100000000E-03 0.  1.
    9900012    2    1    2    0    0 -0.21102937124E+02 -0.84859330619E+01 -0.33701944913E+02  0.50528854582E+02  0.29999983988E+02 0.  0.
         12    1    1    2    0    0  0.21102937124E+02  0.84859330619E+01  0.33701944913E+02  0.40659145418E+02  0.00000000000E+00 0. -1.
         11    1    3    3    0    0 -0.23097231642E+01  0.37434948046E+01  0.92978741727E+00  0.44958958340E+01  0.51100000000E-03 0. -1.
        -11    1    3    3    0    0 -0.67503978216E+01 -0.35489717853E+01 -0.29273064960E+02  0.30250213287E+02  0.51100000000E-03 0.  1.
         12    1    3    3    0    0 -0.12042816138E+02 -0.86804560813E+01 -0.53586673706E+01  0.15782745461E+02  0.00000000000E+00 0. -1.
</event>
<event>
 7    1  0.5843820E-012  0.5052886E+02  0.7816164E-02  0.1300439E+00
        -11   -1    0    0    0    0  0.00000000000E+00  0.00000000000E+00  0.45593999997E+02  0.45594000000E+02  0.51100000000E-03 0.  1.
         11   -1    0    0    0    0 -0.00000000000E+00 -0.00000000000E+00 -0.45593999997E+02  0.45594000000E+02  0.51100000000E-03 0. -1.
    9900012    2    1    2    0    0  0.35962877617E+02  0.14565020602E+02 -0.12153085710E+02  0.50528857315E+02  0.29999992296E+02 0.  0.
         12    1    1    2    0    0 -0.35962877617E+02 -0.14565020602E+02  0.12153085710E+02  0.40659142685E+02  0.00000000000E+00 0. -1.
         11    1    3    3    0    0 -0.33251809151E+01 -0.80948564832E+00  0.93846817808E+00  0.35486360641E+01  0.51100000000E-03 0. -1.
        -11    1    3    3    0    0  0.58735886502E+01 -0.32136924844E+01 -0.35176851045E+01  0.75631324048E+01  0.51100000000E-03 0.  1.
         12    1    3    3    0    0  0.33414469881E+02  0.18588198734E+02 -0.95738687835E+01  0.39417088846E+02  0.00000000000E+00 0. -1.
</event>
<event>
 7    1  0.5843820E-012  0.5052887E+02  0.7816164E-02  0.1300439E+00
        -11   -1    0    0    0    0  0.00000000000E+00  0.00000000000E+00  0.45593999997E+02  0.45594000000E+02  0.51100000000E-03 0. -1.
         11   -1    0    0    0    0 -0.00000000000E+00 -0.00000000000E+00 -0.45593999997E+02  0.45594000000E+02  0.51100000000E-03 0.  1.
    9900012    2    1    2    0    0 -0.10744120032E+02  0.26255323823E+02  0.29127084484E+02  0.50528865789E+02  0.30000018051E+02 0.  0.
        -12    1    1    2    0    0  0.10744120032E+02 -0.26255323823E+02 -0.29127084484E+02  0.40659134211E+02  0.00000000000E+00 0.  1.
         11    1    3    3    0    0  0.21948751063E+01 -0.22125910234E+01  0.69713855785E+01  0.76363114731E+01  0.51100000000E-03 0. -1.
        -11    1    3    3    0    0 -0.14580879531E+01 -0.24353091746E+01 -0.51232565995E+00  0.28843073862E+01  0.51100000000E-03 0.  1.
         12    1    3    3    0    0 -0.11480907185E+02  0.30903224021E+02  0.22668024565E+02  0.40008246929E+02  0.00000000000E+00 0. -1.
</event>
<event>
 7    1  0.5843820E-012  0.5052878E+02  0.7816164E-02  0.1300439E+00
        -11   -1    0    0    0    0  0.00000000000E+00  0.00000000000E+00  0.45593999997E+02  0.45594000000E+02  0.51100000000E-03 0. -1.
         11   -1    0    0    0    0 -0.00000000000E+00 -0.00000000000E+00 -0.45593999997E+02  0.45594000000E+02  0.51100000000E-03 0.  1.
    9900012    2    1    2    0    0  0.84077315032E+01  0.83466460752E+01 -0.38894936693E+02  0.50528775338E+02  0.29999743117E+02 0.  0.
         12    1    1    2    0    0 -0.84077315032E+01 -0.83466460752E+01  0.38894936693E+02  0.40659224662E+02  0.00000000000E+00 0. -1.
         11    1    3    3    0    0 -0.25231090361E+01  0.53560089506E+00 -0.19855976173E+01  0.32550799815E+01  0.51100000000E-03 0. -1.
        -11    1    3    3    0    0  0.11027133946E+00  0.12554630000E+02 -0.54835096067E+01  0.13700356640E+02  0.51100000000E-03 0.  1.
         12    1    3    3    0    0  0.10820569200E+02 -0.47435848197E+01 -0.31425829469E+02  0.33573338717E+02  0.00000000000E+00 0. -1.
</event>
<event>
 7    1  0.5843820E-012  0.5052893E+02  0.7816164E-02  0.1300439E+00
        -11   -1    0    0    0    0  0.00000000000E+00  0.00000000000E+00  0.45593999997E+02  0.45594000000E+02  0.51100000000E-03 0. -1.
         11   -1    0    0    0    0 -0.00000000000E+00 -0.00000000000E+00 -0.45593999997E+02  0.45594000000E+02  0.51100000000E-03 0.  1.
    9900012    2    1    2    0    0 -0.30024090982E+02  0.17231998344E+02 -0.21325389525E+02  0.50528929123E+02  0.30000210561E+02 0.  0.
         12    1    1    2    0    0  0.30024090982E+02 -0.17231998344E+02  0.21325389525E+02  0.40659070877E+02  0.00000000000E+00 0. -1.
         11    1    3    3    0    0 -0.13839642312E+02 -0.32207172375E+01 -0.51600141244E+00  0.14218824725E+02  0.51100000000E-03 0. -1.
        -11    1    3    3    0    0 -0.20679122356E+01  0.16348782046E+01  0.21778434537E+01  0.34193698437E+01  0.51100000000E-03 0.  1.
        -12    1    3    3    0    0 -0.14116536435E+02  0.18817837376E+02 -0.22987231566E+02  0.32890734554E+02  0.00000000000E+00 0.  1.
</event>
<event>
 7    1  0.5843820E-012  0.5052890E+02  0.7816164E-02  0.1300439E+00
        -11   -1    0    0    0    0  0.00000000000E+00  0.00000000000E+00  0.45593999997E+02  0.45594000000E+02  0.51100000000E-03 0. -1.
         11   -1    0    0    0    0 -0.00000000000E+00 -0.00000000000E+00 -0.45593999997E+02  0.45594000000E+02  0.51100000000E-03 0.  1.
    9900012    2    1    2    0    0  0.28662151026E+02  0.76546400366E+00  0.28828064118E+02  0.50528903633E+02  0.30000133081E+02 0.  0.
        -12    1    1    2    0    0 -0.28662151026E+02 -0.76546400366E+00 -0.28828064118E+02  0.40659096367E+02  0.00000000000E+00 0.  1.
         11    1    3    3    0    0  0.23327911180E+02  0.63153669774E+01  0.21323353354E+02  0.32229810713E+02  0.51100000000E-03 0. -1.
        -11    1    3    3    0    0  0.28251619202E+01  0.22393240906E+01  0.92535184946E+01  0.99309474396E+01  0.51100000000E-03 0.  1.
         12    1    3    3    0    0  0.25090779262E+01 -0.77892270644E+01 -0.17488077299E+01  0.83681454801E+01  0.00000000000E+00 0. -1.
</event>
<event>
 7    1  0.5843820E-012  0.5052886E+02  0.7816164E-02  0.1300439E+00
        -11   -1    0    0    0    0  0.00000000000E+00  0.00000000000E+00  0.45593999997E+02  0.45594000000E+02  0.51100000000E-03 0. -1.
         11   -1    0    0    0    0 -0.00000000000E+00 -0.00000000000E+00 -0.45593999997E+02  0.45594000000E+02  0.51100000000E-03 0.  1.
    9900012    2    1    2    0    0 -0.10341950230E+02  0.29225348752E+02 -0.26307571672E+02  0.50528864845E+02  0.30000015183E+02 0.  0.
         12    1    1    2    0    0  0.10341950230E+02 -0.29225348752E+02  0.26307571672E+02  0.40659135155E+02  0.00000000000E+00 0. -1.
         11    1    3    3    0    0 -0.49668656119E+01  0.89886547669E+01 -0.74029842910E+01  0.12659772715E+02  0.51100000000E-03 0. -1.
        -11    1    3    3    0    0 -0.13761806611E+02  0.85873594761E+01 -0.16814316844E+02  0.23363461113E+02  0.51100000000E-03 0.  1.
         12    1    3    3    0    0  0.83867219925E+01  0.11649334509E+02 -0.20902705369E+01  0.14505631017E+02  0.00000000000E+00 0. -1.
</event>
<event>
 7    1  0.5843820E-012  0.5052888E+02  0.7816164E-02  0.1300439E+00
        -11   -1    0    0    0    0  0.00000000000E+00  0.00000000000E+00  0.45593999997E+02  0.45594000000E+02  0.51100000000E-03 0. -1.
         11   -1    0    0    0    0 -0.00000000000E+00 -0.00000000000E+00 -0.45593999997E+02  0.45594000000E+02  0.51100000000E-03 0.  1.
    9900012    2    1    2    0    0 -0.30462318929E+02 -0.85584795671E+01 -0.25533578133E+02  0.50528879752E+02  0.30000060495E+02 0.  0.
         12    1    1    2    0    0  0.30462318929E+02  0.85584795671E+01  0.25533578133E+02  0.40659120248E+02  0.00000000000E+00 0. -1.
         11    1    3    3    0    0 -0.17967664454E+02  0.47980995660E+01 -0.12207231598E+02  0.22245791264E+02  0.51100000000E-03 0. -1.
        -11    1    3    3    0    0 -0.11823028190E+02 -0.73735669608E+00 -0.37432784411E+01  0.12423358010E+02  0.51100000000E-03 0.  1.
         12    1    3    3    0    0 -0.67162628428E+00 -0.12619222437E+02 -0.95830680936E+01  0.15859730479E+02  0.00000000000E+00 0. -1.
</event>
<event>
 7    1  0.5843820E-012  0.5052887E+02  0.7816164E-02  0.1300439E+00
        -11   -1    0    0    0    0  0.00000000000E+00  0.00000000000E+00  0.45593999997E+02  0.45594000000E+02  0.51100000000E-03 0. -1.
         11   -1    0    0    0    0 -0.00000000000E+00 -0.00000000000E+00 -0.45593999997E+02  0.45594000000E+02  0.51100000000E-03 0.  1.
    9900012    2    1    2    0    0  0.26524637846E+02 -0.61359471433E+01  0.30198647636E+02  0.50528873358E+02  0.30000041059E+02 0.  0.
        -12    1    1    2    0    0 -0.26524637846E+02  0.61359471433E+01 -0.30198647636E+02  0.40659126642E+02  0.00000000000E+00 0.  1.
         11    1    3    3    0    0  0.26522550663E+02 -0.51346038494E+01  0.18075045326E+02  0.32504109189E+02  0.51100000000E-03 0. -1.
        -11    1    3    3    0    0  0.65635308141E+01 -0.64419374856E+00  0.75155217746E+01  0.99988994464E+01  0.51100000000E-03 0.  1.
        -12    1    3    3    0    0 -0.65614436311E+01 -0.35714954540E+00  0.46080805352E+01  0.80258647223E+01  0.00000000000E+00 0.  1.
</event>
<event>
 7    1  0.5843820E-012  0.5052886E+02  0.7816164E-02  0.1300439E+00
        -11   -1    0    0    0    0  0.00000000000E+00  0.00000000000E+00  0.45593999997E+02  0.45594000000E+02  0.51100000000E-03 0. -1.
         11   -1    0    0    0    0 -0.00000000000E+00 -0.00000000000E+00 -0.45593999997E+02  0.45594000000E+02  0.51100000000E-03 0.  1.
    9900012    2    1    2    0    0 -0.36165222605E+02 -0.52025697694E+01 -0.17837481847E+02  0.50528858138E+02  0.29999994797E+02 0.  0.
         12    1    1    2    0    0  0.36165222605E+02  0.52025697694E+01  0.17837481847E+02  0.40659141862E+02  0.00000000000E+00 0. -1.
         11    1    3    3    0    0 -0.12992464941E+02  0.65288965061E+01 -0.54234018172E+01  0.15519146960E+02  0.51100000000E-03 0. -1.
        -11    1    3    3    0    0 -0.43834962606E+01 -0.53549707898E+01 -0.13465925079E+02  0.15140075631E+02  0.51100000000E-03 0.  1.
         12    1    3    3    0    0 -0.18789261404E+02 -0.63764954857E+01  0.10518450492E+01  0.19869635547E+02  0.00000000000E+00 0. -1.
</event>
<event>
 7    1  0.5843820E-012  0.5052884E+02  0.7816164E-02  0.1300439E+00
        -11   -1    0    0    0    0  0.00000000000E+00  0.00000000000E+00  0.45593999997E+02  0.45594000000E+02  0.51100000000E-03 0. -1.
         11   -1    0    0    0    0 -0.00000000000E+00 -0.00000000000E+00 -0.45593999997E+02  0.45594000000E+02  0.51100000000E-03 0.  1.
    9900012    2    1    2    0    0  0.19867229760E+02 -0.22596242090E+02 -0.27347212695E+02  0.50528843380E+02  0.29999949937E+02 0.  0.
         12    1    1    2    0    0 -0.19867229760E+02  0.22596242090E+02  0.27347212695E+02  0.40659156620E+02  0.00000000000E+00 0. -1.
         11    1    3    3    0    0  0.13513401226E+02 -0.89120935435E+00 -0.93840022553E+01  0.16476218177E+02  0.51100000000E-03 0. -1.
        -11    1    3    3    0    0  0.63535412451E+01 -0.15181720955E+01 -0.10820350717E+02  0.12639316547E+02  0.51100000000E-03 0.  1.
         12    1    3    3    0    0  0.28728811787E-03 -0.20186860640E+02 -0.71428597222E+01  0.21413308656E+02  0.00000000000E+00 0. -1.
</event>
<event>
 7    1  0.5843820E-012  0.5052886E+02  0.7816164E-02  0.1300439E+00
        -11   -1    0    0    0    0  0.00000000000E+00  0.00000000000E+00  0.45593999997E+02  0.45594000000E+02  0.51100000000E-03 0. -1.
         11   -1    0    0    0    0 -0.00000000000E+00 -0.00000000000E+00 -0.45593999997E+02  0.45594000000E+02  0.51100000000E-03 0.  1.
    9900012    2    1    2    0    0 -0.14464458577E+02  0.24093998644E+02 -0.29384088666E+02  0.50528855896E+02  0.29999987980E+02 0.  0.
         12    1    1    2    0    0  0.14464458577E+02 -0.24093998644E+02  0.29384088666E+02  0.40659144104E+02  0.00000000000E+00 0. -1.
         11    1    3    3    0    0 -0.24715510193E+01 -0.42692326335E+01 -0.84591924082E+01  0.97924893761E+01  0.51100000000E-03 0. -1.
        -11    1    3    3    0    0 -0.69892380506E+01  0.42496938160E+01 -0.12039293092E+02  0.14555202660E+02  0.51100000000E-03 0.  1.
         12    1    3    3    0    0 -0.50036695069E+01  0.24113537461E+02 -0.88856031664E+01  0.26181163860E+02  0.00000000000E+00 0. -1.
</event>
<event>
 7    1  0.5843820E-012  0.5052885E+02  0.7816164E-02  0.1300439E+00
        -11   -1    0    0    0    0  0.00000000000E+00  0.00000000000E+00  0.45593999997E+02  0.45594000000E+02  0.51100000000E-03 0. -1.
         11   -1    0    0    0    0 -0.00000000000E+00 -0.00000000000E+00 -0.45593999997E+02  0.45594000000E+02  0.51100000000E-03 0.  1.
    9900012    2    1    2    0    0  0.37950629067E+02 -0.13418165559E+02 -0.57331680362E+01  0.50528848148E+02  0.29999964431E+02 0.  0.
         12    1    1    2    0    0 -0.37950629067E+02  0.13418165559E+02  0.57331680362E+01  0.40659151852E+02  0.00000000000E+00 0. -1.
         11    1    3    3    0    0  0.26722815694E+02 -0.79067782649E+01 -0.12041219318E+02  0.30358145268E+02  0.51100000000E-03 0. -1.
        -11    1    3    3    0    0  0.13768035313E+02 -0.97479157073E+00  0.34070875850E+01  0.14216795035E+02  0.51100000000E-03 0.  1.
         12    1    3    3    0    0 -0.25402219398E+01 -0.45365957237E+01  0.29009636971E+01  0.59539078458E+01  0.00000000000E+00 0. -1.
</event>
<event>
 7    1  0.5843820E-012  0.5052888E+02  0.7816164E-02  0.1300439E+00
        -11   -1    0    0    0    0  0.00000000000E+00  0.00000000000E+00  0.45593999997E+02  0.45594000000E+02  0.51100000000E-03 0. -1.
         11   -1    0    0    0    0 -0.00000000000E+00 -0.00000000000E+00 -0.45593999997E+02  0.45594000000E+02  0.51100000000E-03 0.  1.
    9900012    2    1    2    0    0 -0.85914916243E+01  0.40889090552E+01  0.39530134438E+02  0.50528875141E+02  0.30000046479E+02 0.  0.
        -12    1    1    2    0    0  0.85914916243E+01 -0.40889090552E+01 -0.39530134438E+02  0.40659124859E+02  0.00000000000E+00 0.  1.
         11    1    3    3    0    0 -0.83026419329E+01 -0.54178324873E+01  0.19783971627E+02  0.22128992420E+02  0.51100000000E-03 0. -1.
        -11    1    3    3    0    0  0.19405298923E+01 -0.32335653301E+01  0.13537587105E+02  0.14053037604E+02  0.51100000000E-03 0.  1.
         12    1    3    3    0    0 -0.22293795837E+01  0.12740306872E+02  0.62085757065E+01  0.14346845118E+02  0.00000000000E+00 0. -1.
</event>
<event>
 7    1  0.5843820E-012  0.5052886E+02  0.7816164E-02  0.1300439E+00
        -11   -1    0    0    0    0  0.00000000000E+00  0.00000000000E+00  0.45593999997E+02  0.45594000000E+02  0.51100000000E-03 0.  1.
         11   -1    0    0    0    0 -0.00000000000E+00 -0.00000000000E+00 -0.45593999997E+02  0.45594000000E+02  0.51100000000E-03 0. -1.
    9900012    2    1    2    0    0 -0.21706984295E+02 -0.33923075717E+02  0.55854423554E+01  0.50528863270E+02  0.30000010395E+02 0.  0.
        -12    1    1    2    0    0  0.21706984295E+02  0.33923075717E+02 -0.55854423554E+01  0.40659136730E+02  0.00000000000E+00 0.  1.
         11    1    3    3    0    0 -0.53248439024E+01 -0.61415863671E+01  0.44403010290E+01  0.92622523815E+01  0.51100000000E-03 0. -1.
        -11    1    3    3    0    0 -0.20232796010E+02 -0.28815285426E+02  0.51870006881E+01  0.35589207423E+02  0.51100000000E-03 0.  1.
        -12    1    3    3    0    0  0.38506556174E+01  0.10337960759E+01 -0.40418593617E+01  0.56774034655E+01  0.00000000000E+00 0.  1.
</event>
<event>
 7    1  0.5843820E-012  0.5052887E+02  0.7816164E-02  0.1300439E+00
        -11   -1    0    0    0    0  0.00000000000E+00  0.00000000000E+00  0.45593999997E+02  0.45594000000E+02  0.51100000000E-03 0. -1.
         11   -1    0    0    0    0 -0.00000000000E+00 -0.00000000000E+00 -0.45593999997E+02  0.45594000000E+02  0.51100000000E-03 0.  1.
    9900012    2    1    2    0    0  0.18937097907E+02 -0.15759079118E+02  0.32345053607E+02  0.50528871324E+02  0.30000034878E+02 0.  0.
        -12    1    1    2    0    0 -0.18937097907E+02  0.15759079118E+02 -0.32345053607E+02  0.40659128676E+02  0.00000000000E+00 0.  1.
         11    1    3    3    0    0  0.88100436072E+01  0.10800271972E+01  0.25953961621E+02  0.27429754851E+02  0.51100000000E-03 0. -1.
        -11    1    3    3    0    0  0.97945424052E+01 -0.99537291895E+01  0.78974455473E+01  0.16043049340E+02  0.51100000000E-03 0.  1.
        -12    1    3    3    0    0  0.33251189434E+00 -0.68853771262E+01 -0.15063535612E+01  0.70560671327E+01  0.00000000000E+00 0.  1.
</event>
<event>
 7    1  0.5843820E-012  0.5052886E+02  0.7816164E-02  0.1300439E+00
        -11   -1    0    0    0    0  0.00000000000E+00  0.00000000000E+00  0.45593999997E+02  0.45594000000E+02  0.51100000000E-03 0. -1.
         11   -1    0    0    0    0 -0.00000000000E+00 -0.00000000000E+00 -0.45593999997E+02  0.45594000000E+02  0.51100000000E-03 0.  1.
    9900012    2    1    2    0    0  0.11192622549E+02  0.84481504287E+00 -0.39079113743E+02  0.50528860278E+02  0.30000001300E+02 0.  0.
         12    1    1    2    0    0 -0.11192622549E+02 -0.84481504287E+00  0.39079113743E+02  0.40659139722E+02  0.00000000000E+00 0. -1.
         11    1    3    3    0    0  0.42515113505E-01 -0.55314096303E+01 -0.27455476615E+01  0.61754621087E+01  0.51100000000E-03 0. -1.
        -11    1    3    3    0    0  0.30594800313E+01 -0.77889080273E+01 -0.17763108223E+02  0.19635567736E+02  0.51100000000E-03 0.  1.
        -12    1    3    3    0    0  0.80906274044E+01  0.14165132701E+02 -0.18570457859E+02  0.24717830433E+02  0.00000000000E+00 0.  1.
</event>
<event>
 7    1  0.5843820E-012  0.5052886E+02  0.7816164E-02  0.1300439E+00
        -11   -1    0    0    0    0  0.00000000000E+00  0.00000000000E+00  0.45593999997E+02  0.45594000000E+02  0.51100000000E-03 0. -1.
         11   -1    0    0    0    0 -0.00000000000E+00 -0.00000000000E+00 -0.45593999997E+02  0.45594000000E+02  0.51100000000E-03 0.  1.
    9900012    2    1    2    0    0  0.25529777008E+02  0.43412925732E+01  0.31345648445E+02  0.50528855743E+02  0.29999987515E+02 0.  0.
        -12    1    1    2    0    0 -0.25529777008E+02 -0.43412925732E+01 -0.31345648445E+02  0.40659144257E+02  0.00000000000E+00 0.  1.
         11    1    3    3    0    0  0.15962746243E+02  0.61093144311E+01  0.24335375808E+02  0.29737913619E+02  0.51100000000E-03 0. -1.
        -11    1    3    3    0    0  0.24723496221E+01  0.65466650081E+01  0.69469389676E+01  0.98605931192E+01  0.51100000000E-03 0.  1.
        -12    1    3    3    0    0  0.70946811427E+01 -0.83146868660E+01  0.63333669594E-01  0.10930349004E+02  0.00000000000E+00 0.  1.
</event>
<event>
 7    1  0.5843820E-012  0.5052888E+02  0.7816164E-02  0.1300439E+00
        -11   -1    0    0    0    0  0.00000000000E+00  0.00000000000E+00  0.45593999997E+02  0.45594000000E+02  0.51100000000E-03 0. -1.
         11   -1    0    0    0    0 -0.00000000000E+00 -0.00000000000E+00 -0.45593999997E+02  0.45594000000E+02  0.51100000000E-03 0.  1.
    9900012    2    1    2    0    0 -0.26669959329E+02  0.89584840001E+01  0.29353416660E+02  0.50528877582E+02  0.30000053899E+02 0.  0.
        -12    1    1    2    0    0  0.26669959329E+02 -0.89584840001E+01 -0.29353416660E+02  0.40659122418E+02  0.00000000000E+00 0.  1.
         11    1    3    3    0    0 -0.12350052669E+02 -0.54004757862E+01  0.14373187460E+02  0.19704757234E+02  0.51100000000E-03 0. -1.
        -11    1    3    3    0    0 -0.17853134853E+02  0.12314230085E+02  0.15571649701E+02  0.26699268929E+02  0.51100000000E-03 0.  1.
         12    1    3    3    0    0  0.35332281936E+01  0.20447297011E+01 -0.59142050136E+00  0.41248514189E+01  0.00000000000E+00 0. -1.
</event>
<event>
 7    1  0.5843820E-012  0.5052886E+02  0.7816164E-02  0.1300439E+00
        -11   -1    0    0    0    0  0.00000000000E+00  0.00000000000E+00  0.45593999997E+02  0.45594000000E+02  0.51100000000E-03 0. -1.
         11   -1    0    0    0    0 -0.00000000000E+00 -0.00000000000E+00 -0.45593999997E+02  0.45594000000E+02  0.51100000000E-03 0.  1.
    9900012    2    1    2    0    0 -0.31873804444E+02 -0.16139699650E+02 -0.19409690286E+02  0.50528863370E+02  0.30000010699E+02 0.  0.
         12    1    1    2    0    0  0.31873804444E+02  0.16139699650E+02  0.19409690286E+02  0.40659136630E+02  0.00000000000E+00 0. -1.
         11    1    3    3    0    0 -0.14423512074E+02  0.48495402338E+01 -0.22136310422E+01  0.15377122737E+02  0.51100000000E-03 0. -1.
        -11    1    3    3    0    0 -0.13042867061E+02 -0.53458193195E+01 -0.10486697899E+02  0.17568864461E+02  0.51100000000E-03 0.  1.
         12    1    3    3    0    0 -0.44074253088E+01 -0.15643420565E+02 -0.67093613442E+01  0.17582876172E+02  0.00000000000E+00 0. -1.
</event>
<event>
 7    1  0.5843820E-012  0.5052886E+02  0.7816164E-02  0.1300439E+00
        -11   -1    0    0    0    0  0.00000000000E+00  0.00000000000E+00  0.45593999997E+02  0.45594000000E+02  0.51100000000E-03 0. -1.
         11   -1    0    0    0    0 -0.00000000000E+00 -0.00000000000E+00 -0.45593999997E+02  0.45594000000E+02  0.51100000000E-03 0.  1.
    9900012    2    1    2    0    0 -0.34028686922E+02  0.20234341151E+02  0.92620500600E+01  0.50528859985E+02  0.30000000411E+02 0.  0.
        -12    1    1    2    0    0  0.34028686922E+02 -0.20234341151E+02 -0.92620500600E+01  0.40659140015E+02  0.00000000000E+00 0.  1.
         11    1    3    3    0    0  0.32651592040E+00 -0.47123184640E+00  0.75420539653E+01  0.75638118945E+01  0.51100000000E-03 0. -1.
        -11    1    3    3    0    0 -0.10538102657E+02  0.25275286876E+01 -0.54898843752E+01  0.12148203142E+02  0.51100000000E-03 0.  1.
        -12    1    3    3    0    0 -0.23817100186E+02  0.18178044310E+02  0.72098804699E+01  0.30816844948E+02  0.00000000000E+00 0.  1.
</event>
<event>
 7    1  0.5843820E-012  0.5052886E+02  0.7816164E-02  0.1300439E+00
        -11   -1    0    0    0    0  0.00000000000E+00  0.00000000000E+00  0.45593999997E+02  0.45594000000E+02  0.51100000000E-03 0. -1.
         11   -1    0    0    0    0 -0.00000000000E+00 -0.00000000000E+00 -0.45593999997E+02  0.45594000000E+02  0.51100000000E-03 0.  1.
    9900012    2    1    2    0    0  0.23125984520E+01  0.13969691522E+02  0.38113847570E+02  0.50528858723E+02  0.29999996573E+02 0.  0.
        -12    1    1    2    0    0 -0.23125984520E+01 -0.13969691522E+02 -0.38113847570E+02  0.40659141277E+02  0.00000000000E+00 0.  1.
         11    1    3    3    0    0 -0.79562513321E+01  0.14849601970E+01  0.11837329727E+02  0.14339784426E+02  0.51100000000E-03 0. -1.
        -11    1    3    3    0    0 -0.29066485165E+01 -0.32464414630E+01  0.49152059180E+01  0.65686556653E+01  0.51100000000E-03 0.  1.
         12    1    3    3    0    0  0.13175498301E+02  0.15731172788E+02  0.21361311925E+02  0.29620418631E+02  0.00000000000E+00 0. -1.
</event>
<event>
 7    1  0.5843820E-012  0.5052887E+02  0.7816164E-02  0.1300439E+00
        -11   -1    0    0    0    0  0.00000000000E+00  0.00000000000E+00  0.45593999997E+02  0.45594000000E+02  0.51100000000E-03 0. -1.
         11   -1    0    0    0    0 -0.00000000000E+00 -0.00000000000E+00 -0.45593999997E+02  0.45594000000E+02  0.51100000000E-03 0.  1.
    9900012    2    1    2    0    0  0.15133639831E+02 -0.33820930631E+02 -0.16741640918E+02  0.50528868874E+02  0.30000027430E+02 0.  0.
         12    1    1    2    0    0 -0.15133639831E+02  0.33820930631E+02  0.16741640918E+02  0.40659131126E+02  0.00000000000E+00 0. -1.
         11    1    3    3    0    0  0.80016050083E+01 -0.43945326816E+01 -0.14725475772E+01  0.92469452700E+01  0.51100000000E-03 0. -1.
        -11    1    3    3    0    0  0.69295792209E+01  0.54188083143E+00  0.12492851873E+01  0.70621113524E+01  0.51100000000E-03 0.  1.
        -12    1    3    3    0    0  0.20245560138E+00 -0.29968278781E+02 -0.16518378528E+02  0.34219812252E+02  0.00000000000E+00 0.  1.
</event>
<event>
 7    1  0.5843820E-012  0.5052885E+02  0.7816164E-02  0.1300439E+00
        -11   -1    0    0    0    0  0.00000000000E+00  0.00000000000E+00  0.45593999997E+02  0.45594000000E+02  0.51100000000E-03 0. -1.
         11   -1    0    0    0    0 -0.00000000000E+00 -0.00000000000E+00 -0.45593999997E+02  0.45594000000E+02  0.51100000000E-03 0.  1.
    9900012    2    1    2    0    0 -0.16419940398E+02  0.14540955895E+02 -0.34236125122E+02  0.50528854603E+02  0.29999984052E+02 0.  0.
         12    1    1    2    0    0  0.16419940398E+02 -0.14540955895E+02  0.34236125122E+02  0.40659145397E+02  0.00000000000E+00 0. -1.
         11    1    3    3    0    0 -0.75355470453E+00 -0.48136794857E+01 -0.38354625576E+00  0.48873779141E+01  0.51100000000E-03 0. -1.
        -11    1    3    3    0    0 -0.77850884841E+01 -0.18268716880E+01 -0.95053381620E+01  0.12421614899E+02  0.51100000000E-03 0.  1.
         12    1    3    3    0    0 -0.78812972091E+01  0.21181507069E+02 -0.24347240704E+02  0.33219861790E+02  0.00000000000E+00 0. -1.
</event>
<event>
 7    1  0.5843820E-012  0.5052886E+02  0.7816164E-02  0.1300439E+00
        -11   -1    0    0    0    0  0.00000000000E+00  0.00000000000E+00  0.45593999997E+02  0.45594000000E+02  0.51100000000E-03 0. -1.
         11   -1    0    0    0    0 -0.00000000000E+00 -0.00000000000E+00 -0.45593999997E+02  0.45594000000E+02  0.51100000000E-03 0.  1.
    9900012    2    1    2    0    0  0.19823048116E+02  0.53379072652E+01  0.35095853227E+02  0.50528863212E+02  0.30000010220E+02 0.  0.
        -12    1    1    2    0    0 -0.19823048116E+02 -0.53379072652E+01 -0.35095853227E+02  0.40659136788E+02  0.00000000000E+00 0.  1.
         11    1    3    3    0    0 -0.96007534832E+00  0.87094440571E+01  0.14350536346E+02  0.16814102835E+02  0.51100000000E-03 0. -1.
        -11    1    3    3    0    0 -0.20028371572E+00  0.30918859126E+01  0.73960192743E+01  0.80187887758E+01  0.51100000000E-03 0.  1.
        -12    1    3    3    0    0  0.20983407181E+02 -0.64634227045E+01  0.13349297606E+02  0.25695971602E+02  0.00000000000E+00 0.  1.
</event>
<event>
 7    1  0.5843820E-012  0.5052886E+02  0.7816164E-02  0.1300439E+00
        -11   -1    0    0    0    0  0.00000000000E+00  0.00000000000E+00  0.45593999997E+02  0.45594000000E+02  0.51100000000E-03 0. -1.
         11   -1    0    0    0    0 -0.00000000000E+00 -0.00000000000E+00 -0.45593999997E+02  0.45594000000E+02  0.51100000000E-03 0.  1.
    9900012    2    1    2    0    0 -0.21075483920E+02 -0.31318735310E+02  0.15103847320E+02  0.50528863170E+02  0.30000010093E+02 0.  0.
        -12    1    1    2    0    0  0.21075483920E+02  0.31318735310E+02 -0.15103847320E+02  0.40659136830E+02  0.00000000000E+00 0.  1.
         11    1    3    3    0    0 -0.13663645915E+02 -0.15703483369E+02  0.86528664247E+00  0.20833706604E+02  0.51100000000E-03 0.  1.
        -11    1    3    3    0    0 -0.79731355859E+01 -0.19243133514E+02  0.15332986177E+02  0.25864445555E+02  0.51100000000E-03 0. -1.
        -12    1    3    3    0    0  0.56129758133E+00  0.36278815727E+01 -0.10944254997E+01  0.38307110117E+01  0.00000000000E+00 0.  1.
</event>
<event>
 7    1  0.5843820E-012  0.5052890E+02  0.7816164E-02  0.1300439E+00
        -11   -1    0    0    0    0  0.00000000000E+00  0.00000000000E+00  0.45593999997E+02  0.45594000000E+02  0.51100000000E-03 0. -1.
         11   -1    0    0    0    0 -0.00000000000E+00 -0.00000000000E+00 -0.45593999997E+02  0.45594000000E+02  0.51100000000E-03 0.  1.
    9900012    2    1    2    0    0 -0.35142360873E+02 -0.12826350386E+02  0.15926752045E+02  0.50528902339E+02  0.30000129149E+02 0.  0.
        -12    1    1    2    0    0  0.35142360873E+02  0.12826350386E+02 -0.15926752045E+02  0.40659097661E+02  0.00000000000E+00 0.  1.
         11    1    3    3    0    0 -0.26772078459E+01 -0.10197498529E+02  0.19219870428E+01  0.10716830341E+02  0.51100000000E-03 0. -1.
        -11    1    3    3    0    0  0.18412417778E+01  0.39333379685E+00  0.32086653650E+01  0.37202710178E+01  0.51100000000E-03 0.  1.
        -12    1    3    3    0    0 -0.34306394805E+02 -0.30221856541E+01  0.10796099637E+02  0.36091800980E+02  0.00000000000E+00 0.  1.
</event>
<event>
 7    1  0.6362762E-012  0.5052889E+02  0.7816164E-02  0.1300439E+00
        -11   -1    0    0    0    0  0.00000000000E+00  0.00000000000E+00  0.45593999997E+02  0.45594000000E+02  0.51100000000E-03 0. -1.
         11   -1    0    0    0    0 -0.00000000000E+00 -0.00000000000E+00 -0.45593999997E+02  0.45594000000E+02  0.51100000000E-03 0.  1.
    9900012    2    1    2    0    0  0.16187280526E+01 -0.23743747339E+02 -0.32966310550E+02  0.50528887252E+02  0.30000083290E+02 0.  0.
         12    1    1    2    0    0 -0.16187280526E+01  0.23743747339E+02  0.32966310550E+02  0.40659112748E+02  0.00000000000E+00 0. -1.
         11    1    3    3    0    0  0.49062392955E+00  0.37600422816E+01 -0.27341585669E+01  0.46748532736E+01  0.51100000000E-03 0. -1.
        -11    1    3    3    0    0  0.35408721109E+01 -0.56059515184E+00 -0.13677381958E+02  0.14139406625E+02  0.51100000000E-03 0.  1.
        -12    1    3    3    0    0 -0.24127679878E+01 -0.26943194469E+02 -0.16554770025E+02  0.31714627353E+02  0.00000000000E+00 0.  1.
</event>
<event>
 7    1  0.5843820E-012  0.5052886E+02  0.7816164E-02  0.1300439E+00
        -11   -1    0    0    0    0  0.00000000000E+00  0.00000000000E+00  0.45593999997E+02  0.45594000000E+02  0.51100000000E-03 0. -1.
         11   -1    0    0    0    0 -0.00000000000E+00 -0.00000000000E+00 -0.45593999997E+02  0.45594000000E+02  0.51100000000E-03 0.  1.
    9900012    2    1    2    0    0  0.96936413561E+01  0.13524328628E+02  0.37098404409E+02  0.50528858872E+02  0.29999997028E+02 0.  0.
        -12    1    1    2    0    0 -0.96936413561E+01 -0.13524328628E+02 -0.37098404409E+02  0.40659141128E+02  0.00000000000E+00 0.  1.
         11    1    3    3    0    0 -0.10044343827E+01  0.31202932290E+01 -0.12047529963E+01  0.34923556960E+01  0.51100000000E-03 0. -1.
        -11    1    3    3    0    0 -0.26395355567E+01  0.75180262285E+01  0.19451628468E+01  0.82019220363E+01  0.51100000000E-03 0.  1.
         12    1    3    3    0    0  0.13337611296E+02  0.28860091703E+01  0.36357994558E+02  0.38834581140E+02  0.00000000000E+00 0. -1.
</event>
<event>
 7    1  0.7067919E-012  0.5052886E+02  0.7816164E-02  0.1300439E+00
        -11   -1    0    0    0    0  0.00000000000E+00  0.00000000000E+00  0.45593999997E+02  0.45594000000E+02  0.51100000000E-03 0. -1.
         11   -1    0    0    0    0 -0.00000000000E+00 -0.00000000000E+00 -0.45593999997E+02  0.45594000000E+02  0.51100000000E-03 0.  1.
    9900012    2    1    2    0    0 -0.76327149273E+01 -0.22618646848E+02 -0.32913581545E+02  0.50528863604E+02  0.30000011410E+02 0.  0.
         12    1    1    2    0    0  0.76327149273E+01  0.22618646848E+02  0.32913581545E+02  0.40659136396E+02  0.00000000000E+00 0. -1.
         11    1    3    3    0    0 -0.11539213384E+02 -0.23709572748E+01 -0.10733262364E+02  0.15936681121E+02  0.51100000000E-03 0. -1.
        -11    1    3    3    0    0 -0.35790727387E+01 -0.16771568564E+02 -0.99167734116E+01  0.19810039599E+02  0.51100000000E-03 0.  1.
        -12    1    3    3    0    0  0.74855711954E+01 -0.34761210093E+01 -0.12263545769E+02  0.14782142884E+02  0.00000000000E+00 0.  1.
</event>
<event>
 7    1  0.5843820E-012  0.5052884E+02  0.7816164E-02  0.1300439E+00
        -11   -1    0    0    0    0  0.00000000000E+00  0.00000000000E+00  0.45593999997E+02  0.45594000000E+02  0.51100000000E-03 0. -1.
         11   -1    0    0    0    0 -0.00000000000E+00 -0.00000000000E+00 -0.45593999997E+02  0.45594000000E+02  0.51100000000E-03 0.  1.
    9900012    2    1    2    0    0  0.32263888215E+02  0.33774621615E+01  0.24511247043E+02  0.50528844020E+02  0.29999951883E+02 0.  0.
        -12    1    1    2    0    0 -0.32263888215E+02 -0.33774621615E+01 -0.24511247043E+02  0.40659155980E+02  0.00000000000E+00 0.  1.
         11    1    3    3    0    0  0.98699595632E+01  0.41319922424E+01  0.10324706354E+01  0.10749672439E+02  0.51100000000E-03 0. -1.
        -11    1    3    3    0    0  0.30430936173E+00  0.12835266977E+01 -0.41454876217E+01  0.43503003177E+01  0.51100000000E-03 0.  1.
        -12    1    3    3    0    0  0.22089619290E+02 -0.20380567786E+01  0.27624264029E+02  0.35428871263E+02  0.00000000000E+00 0.  1.
</event>
<event>
 7    1  0.5843820E-012  0.5052885E+02  0.7816164E-02  0.1300439E+00
        -11   -1    0    0    0    0  0.00000000000E+00  0.00000000000E+00  0.45593999997E+02  0.45594000000E+02  0.51100000000E-03 0.  1.
         11   -1    0    0    0    0 -0.00000000000E+00 -0.00000000000E+00 -0.45593999997E+02  0.45594000000E+02  0.51100000000E-03 0. -1.
    9900012    2    1    2    0    0 -0.37041427617E+02 -0.16528344540E+02 -0.28129303372E+01  0.50528854532E+02  0.29999983835E+02 0.  0.
         12    1    1    2    0    0  0.37041427617E+02  0.16528344540E+02  0.28129303372E+01  0.40659145468E+02  0.00000000000E+00 0. -1.
         11    1    3    3    0    0 -0.17376924909E+02 -0.13983521492E+02  0.77033589404E+01  0.23597417906E+02  0.51100000000E-03 0. -1.
        -11    1    3    3    0    0 -0.12844047328E+02 -0.78320859448E+01 -0.26918235288E+01  0.15282572957E+02  0.51100000000E-03 0.  1.
         12    1    3    3    0    0 -0.68204553799E+01  0.52872628968E+01 -0.78244657488E+01  0.11648863669E+02  0.00000000000E+00 0. -1.
</event>
<event>
 7    1  0.5843820E-012  0.5052888E+02  0.7816164E-02  0.1300439E+00
        -11   -1    0    0    0    0  0.00000000000E+00  0.00000000000E+00  0.45593999997E+02  0.45594000000E+02  0.51100000000E-03 0. -1.
         11   -1    0    0    0    0 -0.00000000000E+00 -0.00000000000E+00 -0.45593999997E+02  0.45594000000E+02  0.51100000000E-03 0.  1.
    9900012    2    1    2    0    0 -0.12285472321E+01  0.36447620827E+02  0.17978469190E+02  0.50528883597E+02  0.30000072180E+02 0.  0.
        -12    1    1    2    0    0  0.12285472321E+01 -0.36447620827E+02 -0.17978469190E+02  0.40659116403E+02  0.00000000000E+00 0.  1.
         11    1    3    3    0    0 -0.15598104898E+01 -0.63290026935E+00  0.33199823320E+01  0.37223452904E+01  0.51100000000E-03 0. -1.
        -11    1    3    3    0    0 -0.89771066629E+01  0.11967680310E+02  0.13254354868E+02  0.19987289442E+02  0.51100000000E-03 0.  1.
        -12    1    3    3    0    0  0.93083699206E+01  0.25112840787E+02  0.14041319905E+01  0.26819248864E+02  0.00000000000E+00 0.  1.
</event>
<event>
 7    1  0.5843820E-012  0.5052886E+02  0.7816164E-02  0.1300439E+00
        -11   -1    0    0    0    0  0.00000000000E+00  0.00000000000E+00  0.45593999997E+02  0.45594000000E+02  0.51100000000E-03 0. -1.
         11   -1    0    0    0    0 -0.00000000000E+00 -0.00000000000E+00 -0.45593999997E+02  0.45594000000E+02  0.51100000000E-03 0.  1.
    9900012    2    1    2    0    0 -0.11629061041E+00 -0.21332129245E+02  0.34613471980E+02  0.50528859526E+02  0.29999999015E+02 0.  0.
        -12    1    1    2    0    0  0.11629061041E+00  0.21332129245E+02 -0.34613471980E+02  0.40659140474E+02  0.00000000000E+00 0.  1.
         11    1    3    3    0    0 -0.15776012747E+01  0.37822155733E+01  0.13405617878E+02  0.14018008824E+02  0.51100000000E-03 0. -1.
        -11    1    3    3    0    0  0.43355084892E+01 -0.42065883123E+00  0.58343084715E+01  0.72809850511E+01  0.51100000000E-03 0.  1.
        -12    1    3    3    0    0 -0.28741978249E+01 -0.24693685987E+02  0.15373545630E+02  0.29229865651E+02  0.00000000000E+00 0.  1.
</event>
<event>
 7    1  0.5843820E-012  0.5052885E+02  0.7816164E-02  0.1300439E+00
        -11   -1    0    0    0    0  0.00000000000E+00  0.00000000000E+00  0.45593999997E+02  0.45594000000E+02  0.51100000000E-03 0. -1.
         11   -1    0    0    0    0 -0.00000000000E+00 -0.00000000000E+00 -0.45593999997E+02  0.45594000000E+02  0.51100000000E-03 0.  1.
    9900012    2    1    2    0    0  0.17793875849E+02  0.31041954962E+01  0.36426749901E+02  0.50528853972E+02  0.29999982132E+02 0.  0.
        -12    1    1    2    0    0 -0.17793875849E+02 -0.31041954962E+01 -0.36426749901E+02  0.40659146028E+02  0.00000000000E+00 0.  1.
         11    1    3    3    0    0  0.16006986018E+02 -0.54980340398E+01  0.75189047440E+01  0.18519878738E+02  0.51100000000E-03 0. -1.
        -11    1    3    3    0    0  0.45341120775E+01  0.10980649020E+01  0.51776058762E+01  0.69693272079E+01  0.51100000000E-03 0.  1.
         12    1    3    3    0    0 -0.27472222460E+01  0.75041646340E+01  0.23730239281E+02  0.25039648025E+02  0.00000000000E+00 0. -1.
</event>
<event>
 7    1  0.5843820E-012  0.5052884E+02  0.7816164E-02  0.1300439E+00
        -11   -1    0    0    0    0  0.00000000000E+00  0.00000000000E+00  0.45593999997E+02  0.45594000000E+02  0.51100000000E-03 0. -1.
         11   -1    0    0    0    0 -0.00000000000E+00 -0.00000000000E+00 -0.45593999997E+02  0.45594000000E+02  0.51100000000E-03 0.  1.
    9900012    2    1    2    0    0 -0.29820057257E+02 -0.23700986274E+02 -0.14219515558E+02  0.50528841279E+02  0.29999943551E+02 0.  0.
         12    1    1    2    0    0  0.29820057257E+02  0.23700986274E+02  0.14219515558E+02  0.40659158721E+02  0.00000000000E+00 0. -1.
         11    1    3    3    0    0 -0.16819573751E+02  0.25190075449E-01 -0.52424658923E+01  0.17617665696E+02  0.51100000000E-03 0. -1.
        -11    1    3    3    0    0 -0.15127784135E+01  0.14934239568E+01  0.21726359825E+01  0.30395988249E+01  0.51100000000E-03 0.  1.
         12    1    3    3    0    0 -0.11487705093E+02 -0.25219600307E+02 -0.11149685649E+02  0.29871576758E+02  0.00000000000E+00 0. -1.
</event>
<event>
 7    1  0.5843820E-012  0.5052886E+02  0.7816164E-02  0.1300439E+00
        -11   -1    0    0    0    0  0.00000000000E+00  0.00000000000E+00  0.45593999997E+02  0.45594000000E+02  0.51100000000E-03 0. -1.
         11   -1    0    0    0    0 -0.00000000000E+00 -0.00000000000E+00 -0.45593999997E+02  0.45594000000E+02  0.51100000000E-03 0.  1.
    9900012    2    1    2    0    0  0.17493381390E+02  0.24155149658E+02  0.27634681403E+02  0.50528864941E+02  0.30000015476E+02 0.  0.
        -12    1    1    2    0    0 -0.17493381390E+02 -0.24155149658E+02 -0.27634681403E+02  0.40659135059E+02  0.00000000000E+00 0.  1.
         11    1    3    3    0    0  0.40235167270E+01  0.43083634693E+01  0.84977188951E+01  0.10342239086E+02  0.51100000000E-03 0. -1.
        -11    1    3    3    0    0  0.92787054372E+00 -0.22714798723E+01  0.14041595299E+02  0.14254366466E+02  0.51100000000E-03 0.  1.
        -12    1    3    3    0    0  0.12541994119E+02  0.22118266061E+02  0.50953672095E+01  0.25932259389E+02  0.00000000000E+00 0.  1.
</event>
<event>
 7    1  0.5843820E-012  0.5052886E+02  0.7816164E-02  0.1300439E+00
        -11   -1    0    0    0    0  0.00000000000E+00  0.00000000000E+00  0.45593999997E+02  0.45594000000E+02  0.51100000000E-03 0. -1.
         11   -1    0    0    0    0 -0.00000000000E+00 -0.00000000000E+00 -0.45593999997E+02  0.45594000000E+02  0.51100000000E-03 0.  1.
    9900012    2    1    2    0    0 -0.26264043755E+02 -0.48773480206E+01 -0.30652521810E+02  0.50528860666E+02  0.30000002479E+02 0.  0.
         12    1    1    2    0    0  0.26264043755E+02  0.48773480206E+01  0.30652521810E+02  0.40659139334E+02  0.00000000000E+00 0. -1.
         11    1    3    3    0    0 -0.30739436331E+01 -0.98970178529E+01 -0.12920715906E+01  0.10443636392E+02  0.51100000000E-03 0. -1.
        -11    1    3    3    0    0 -0.25759665007E+01 -0.40102922491E+01 -0.57178040218E+01  0.74438787220E+01  0.51100000000E-03 0.  1.
        -12    1    3    3    0    0 -0.20614133621E+02  0.90299620813E+01 -0.23642646198E+02  0.32641345551E+02  0.00000000000E+00 0.  1.
</event>
<event>
 7    1  0.5843820E-012  0.5052886E+02  0.7816164E-02  0.1300439E+00
        -11   -1    0    0    0    0  0.00000000000E+00  0.00000000000E+00  0.45593999997E+02  0.45594000000E+02  0.51100000000E-03 0. -1.
         11   -1    0    0    0    0 -0.00000000000E+00 -0.00000000000E+00 -0.45593999997E+02  0.45594000000E+02  0.51100000000E-03 0.  1.
    9900012    2    1    2    0    0  0.19822961985E+01  0.27865162126E+02  0.29542662826E+02  0.50528859756E+02  0.29999999713E+02 0.  0.
        -12    1    1    2    0    0 -0.19822961985E+01 -0.27865162126E+02 -0.29542662826E+02  0.40659140244E+02  0.00000000000E+00 0.  1.
         11    1    3    3    0    0  0.16163600741E+01  0.80890259620E+01  0.71568240263E+01  0.10920855796E+02  0.51100000000E-03 0. -1.
        -11    1    3    3    0    0  0.12202148090E+02  0.16256837322E+02  0.13972779155E+02  0.24666084718E+02  0.51100000000E-03 0.  1.
         12    1    3    3    0    0 -0.11836211966E+02  0.35192988417E+01  0.84130596454E+01  0.14941919242E+02  0.00000000000E+00 0. -1.
</event>
<event>
 7    1  0.5843820E-012  0.5052886E+02  0.7816164E-02  0.1300439E+00
        -11   -1    0    0    0    0  0.00000000000E+00  0.00000000000E+00  0.45593999997E+02  0.45594000000E+02  0.51100000000E-03 0.  1.
         11   -1    0    0    0    0 -0.00000000000E+00 -0.00000000000E+00 -0.45593999997E+02  0.45594000000E+02  0.51100000000E-03 0. -1.
    9900012    2    1    2    0    0  0.70735721659E+01 -0.40009779660E+02 -0.15323296255E+01  0.50528856800E+02  0.29999990730E+02 0.  0.
         12    1    1    2    0    0 -0.70735721659E+01  0.40009779660E+02  0.15323296255E+01  0.40659143200E+02  0.00000000000E+00 0. -1.
         11    1    3    3    0    0 -0.23481647973E+01 -0.57852120117E+01  0.48206884898E+01  0.78880665383E+01  0.51100000000E-03 0. -1.
        -11    1    3    3    0    0 -0.54623009602E+00 -0.14551382480E+02 -0.13090078221E+02  0.19580379146E+02  0.51100000000E-03 0.  1.
         12    1    3    3    0    0  0.99679670592E+01 -0.19673185169E+02  0.67370601058E+01  0.23060411116E+02  0.00000000000E+00 0. -1.
</event>
<event>
 7    1  0.5843820E-012  0.5052886E+02  0.7816164E-02  0.1300439E+00
        -11   -1    0    0    0    0  0.00000000000E+00  0.00000000000E+00  0.45593999997E+02  0.45594000000E+02  0.51100000000E-03 0. -1.
         11   -1    0    0    0    0 -0.00000000000E+00 -0.00000000000E+00 -0.45593999997E+02  0.45594000000E+02  0.51100000000E-03 0.  1.
    9900012    2    1    2    0    0  0.11937618080E+02  0.28030671452E+02 -0.26924718955E+02  0.50528858860E+02  0.29999996989E+02 0.  0.
         12    1    1    2    0    0 -0.11937618080E+02 -0.28030671452E+02  0.26924718955E+02  0.40659141140E+02  0.00000000000E+00 0. -1.
         11    1    3    3    0    0 -0.18511738399E+01  0.17770198396E+02 -0.29158522615E+01  0.18102734332E+02  0.51100000000E-03 0. -1.
        -11    1    3    3    0    0 -0.20105798445E+01  0.45676285411E+01 -0.50762853032E+01  0.71185907693E+01  0.51100000000E-03 0.  1.
        -12    1    3    3    0    0  0.15799371765E+02  0.56928445147E+01 -0.18932581390E+02  0.25307533758E+02  0.00000000000E+00 0.  1.
</event>
<event>
 7    1  0.5843820E-012  0.5052885E+02  0.7816164E-02  0.1300439E+00
        -11   -1    0    0    0    0  0.00000000000E+00  0.00000000000E+00  0.45593999997E+02  0.45594000000E+02  0.51100000000E-03 0. -1.
         11   -1    0    0    0    0 -0.00000000000E+00 -0.00000000000E+00 -0.45593999997E+02  0.45594000000E+02  0.51100000000E-03 0.  1.
    9900012    2    1    2    0    0 -0.23396416565E+01  0.63780319923E+01 -0.40087572220E+02  0.50528847751E+02  0.29999963223E+02 0.  0.
         12    1    1    2    0    0  0.23396416565E+01 -0.63780319923E+01  0.40087572220E+02  0.40659152249E+02  0.00000000000E+00 0. -1.
         11    1    3    3    0    0  0.24710346057E+01  0.68430896069E+01 -0.36299375668E+01  0.81308261814E+01  0.51100000000E-03 0. -1.
        -11    1    3    3    0    0 -0.73844678551E+00  0.92301024748E+01 -0.86611603699E+01  0.12678950846E+02  0.51100000000E-03 0.  1.
         12    1    3    3    0    0 -0.40722294767E+01 -0.96951600894E+01 -0.27796474283E+02  0.29719070723E+02  0.00000000000E+00 0. -1.
</event>
<event>
 7    1  0.5843820E-012  0.5052886E+02  0.7816164E-02  0.1300439E+00
        -11   -1    0    0    0    0  0.00000000000E+00  0.00000000000E+00  0.45593999997E+02  0.45594000000E+02  0.51100000000E-03 0. -1.
         11   -1    0    0    0    0 -0.00000000000E+00 -0.00000000000E+00 -0.45593999997E+02  0.45594000000E+02  0.51100000000E-03 0.  1.
    9900012    2    1    2    0    0 -0.34549400195E+02  0.11894879194E+02 -0.17833014730E+02  0.50528860569E+02  0.30000002186E+02 0.  0.
         12    1    1    2    0    0  0.34549400195E+02 -0.11894879194E+02  0.17833014730E+02  0.40659139431E+02  0.00000000000E+00 0. -1.
         11    1    3    3    0    0 -0.10630032273E+02  0.11319021699E+02 -0.16500819173E+02  0.22658218641E+02  0.51100000000E-03 0. -1.
        -11    1    3    3    0    0 -0.16330606174E+02 -0.15082647699E+01 -0.73420472476E+01  0.17968561954E+02  0.51100000000E-03 0.  1.
        -12    1    3    3    0    0 -0.75887617481E+01  0.20841222651E+01  0.60098516906E+01  0.99020799748E+01  0.00000000000E+00 0.  1.
</event>
<event>
 7    1  0.5843820E-012  0.5052885E+02  0.7816164E-02  0.1300439E+00
        -11   -1    0    0    0    0  0.00000000000E+00  0.00000000000E+00  0.45593999997E+02  0.45594000000E+02  0.51100000000E-03 0. -1.
         11   -1    0    0    0    0 -0.00000000000E+00 -0.00000000000E+00 -0.45593999997E+02  0.45594000000E+02  0.51100000000E-03 0.  1.
    9900012    2    1    2    0    0 -0.17797118067E+02  0.56875108352E+01 -0.36112063136E+02  0.50528852260E+02  0.29999976931E+02 0.  0.
         12    1    1    2    0    0  0.17797118067E+02 -0.56875108352E+01  0.36112063136E+02  0.40659147740E+02  0.00000000000E+00 0. -1.
         11    1    3    3    0    0 -0.47294848065E+01 -0.41582870041E+00  0.24492398226E+01  0.53422575764E+01  0.51100000000E-03 0. -1.
        -11    1    3    3    0    0 -0.10921724193E+02 -0.46252232743E+01 -0.25673992954E+02  0.28281277626E+02  0.51100000000E-03 0.  1.
        -12    1    3    3    0    0 -0.21459090675E+01  0.10728562810E+02 -0.12887310004E+02  0.16905317058E+02  0.00000000000E+00 0.  1.
</event>
<event>
 7    1  0.5843820E-012  0.5052886E+02  0.7816164E-02  0.1300439E+00
        -11   -1    0    0    0    0  0.00000000000E+00  0.00000000000E+00  0.45593999997E+02  0.45594000000E+02  0.51100000000E-03 0.  1.
         11   -1    0    0    0    0 -0.00000000000E+00 -0.00000000000E+00 -0.45593999997E+02  0.45594000000E+02  0.51100000000E-03 0. -1.
    9900012    2    1    2    0    0 -0.34571270525E+02  0.20244642006E+02 -0.69388540356E+01  0.50528856244E+02  0.29999989039E+02 0.  0.
        -12    1    1    2    0    0  0.34571270525E+02 -0.20244642006E+02  0.69388540356E+01  0.40659143756E+02  0.00000000000E+00 0.  1.
         11    1    3    3    0    0 -0.39552390100E+01  0.14036773006E+01 -0.64414158675E+01  0.76880468410E+01  0.51100000000E-03 0. -1.
        -11    1    3    3    0    0 -0.14485883591E+02  0.15394103964E+02 -0.10446169767E+02  0.23578416472E+02  0.51100000000E-03 0.  1.
        -12    1    3    3    0    0 -0.16130147924E+02  0.34468607412E+01  0.99487315985E+01  0.19262392931E+02  0.00000000000E+00 0.  1.
</event>
