<event>
 7    1  0.2973028E-011  0.5052886E+02  0.7816164E-02  0.1300439E+00
        -11   -1    0    0    0    0  0.00000000000E+00  0.00000000000E+00  0.45593999997E+02  0.45594000000E+02  0.51100000000E-03 0. -1.
         11   -1    0    0    0    0 -0.00000000000E+00 -0.00000000000E+00 -0.45593999997E+02  0.45594000000E+02  0.51100000000E-03 0.  1.
    9900012    2    1    2    0    0  0.18321999428E+02  0.36295453400E+02  0.33190385899E+00  0.50528858830E+02  0.29999996898E+02 0.  0.
         12    1    1    2    0    0 -0.18321999428E+02 -0.36295453400E+02 -0.33190385899E+00  0.40659141170E+02  0.00000000000E+00 0. -1.
         11    1    3    3    0    0  0.17289874340E+02  0.17545681113E+02 -0.76952690571E+01  0.25807127824E+02  0.51100000000E-03 0. -1.
        -11    1    3    3    0    0  0.22871701234E+01  0.84577953227E+01  0.10878992247E+02  0.13968461671E+02  0.51100000000E-03 0.  1.
        -12    1    3    3    0    0 -0.12550450355E+01  0.10291976964E+02 -0.28518193308E+01  0.10753269334E+02  0.00000000000E+00 0.  1.
</event>
<event>
 7    1  0.2973028E-011  0.5052885E+02  0.7816164E-02  0.1300439E+00
        -11   -1    0    0    0    0  0.00000000000E+00  0.00000000000E+00  0.45593999997E+02  0.45594000000E+02  0.51100000000E-03 0. -1.
         11   -1    0    0    0    0 -0.00000000000E+00 -0.00000000000E+00 -0.45593999997E+02  0.45594000000E+02  0.51100000000E-03 0.  1.
    9900012    2    1    2    0    0  0.13390799847E+02  0.25453011254E+02  0.28740160583E+02  0.50528854254E+02  0.29999982991E+02 0.  0.
         12    1    1    2    0    0 -0.13390799847E+02 -0.25453011254E+02 -0.28740160583E+02  0.40659145746E+02  0.00000000000E+00 0. -1.
         11    1    3    3    0    0 -0.13325578200E+01 -0.25411892458E+01  0.68940579178E+01  0.74673548169E+01  0.51100000000E-03 0. -1.
        -11    1    3    3    0    0  0.18235936968E+02  0.28159486738E+02  0.19140824166E+02  0.38624826737E+02  0.51100000000E-03 0.  1.
        -12    1    3    3    0    0 -0.35125793017E+01 -0.16528623775E+00  0.27052784991E+01  0.44366727002E+01  0.00000000000E+00 0.  1.
</event>
<event>
 7    1  0.2973028E-011  0.5052887E+02  0.7816164E-02  0.1300439E+00
        -11   -1    0    0    0    0  0.00000000000E+00  0.00000000000E+00  0.45593999997E+02  0.45594000000E+02  0.51100000000E-03 0.  1.
         11   -1    0    0    0    0 -0.00000000000E+00 -0.00000000000E+00 -0.45593999997E+02  0.45594000000E+02  0.51100000000E-03 0. -1.
    9900012    2    1    2    0    0  0.22928375164E+02  0.44240716235E+01  0.33284857547E+02  0.50528873849E+02  0.30000042552E+02 0.  0.
         12    1    1    2    0    0 -0.22928375164E+02 -0.44240716235E+01 -0.33284857547E+02  0.40659126151E+02  0.00000000000E+00 0. -1.
         11    1    3    3    0    0  0.11739814307E+02  0.98182118133E+01  0.86717545391E+01  0.17590334000E+02  0.51100000000E-03 0. -1.
        -11    1    3    3    0    0  0.15653404116E+02 -0.69948370880E+01  0.19411831299E+02  0.25899343640E+02  0.51100000000E-03 0.  1.
         12    1    3    3    0    0 -0.44648432593E+01  0.16006968982E+01  0.52012717088E+01  0.70391962097E+01  0.00000000000E+00 0. -1.
</event>
<event>
 7    1  0.2973028E-011  0.5052886E+02  0.7816164E-02  0.1300439E+00
        -11   -1    0    0    0    0  0.00000000000E+00  0.00000000000E+00  0.45593999997E+02  0.45594000000E+02  0.51100000000E-03 0. -1.
         11   -1    0    0    0    0 -0.00000000000E+00 -0.00000000000E+00 -0.45593999997E+02  0.45594000000E+02  0.51100000000E-03 0.  1.
    9900012    2    1    2    0    0 -0.38562879226E+02 -0.84032250524E+01 -0.97701474955E+01  0.50528860467E+02  0.30000001875E+02 0.  0.
         12    1    1    2    0    0  0.38562879226E+02  0.84032250524E+01  0.97701474955E+01  0.40659139533E+02  0.00000000000E+00 0. -1.
         11    1    3    3    0    0 -0.14478661000E+02  0.35460856429E+01  0.92790907323E+01  0.17558697925E+02  0.51100000000E-03 0. -1.
        -11    1    3    3    0    0 -0.11293375061E+02 -0.61608584242E+01 -0.87613282940E+01  0.15564619190E+02  0.51100000000E-03 0.  1.
         12    1    3    3    0    0 -0.12790843165E+02 -0.57884522711E+01 -0.10287909934E+02  0.17405543352E+02  0.00000000000E+00 0. -1.
</event>
<event>
 7    1  0.2973028E-011  0.5052886E+02  0.7816164E-02  0.1300439E+00
        -11   -1    0    0    0    0  0.00000000000E+00  0.00000000000E+00  0.45593999997E+02  0.45594000000E+02  0.51100000000E-03 0.  1.
         11   -1    0    0    0    0 -0.00000000000E+00 -0.00000000000E+00 -0.45593999997E+02  0.45594000000E+02  0.51100000000E-03 0. -1.
    9900012    2    1    2    0    0 -0.20874745711E+02  0.29999366177E+02  0.17817098302E+02  0.50528856238E+02  0.29999989022E+02 0.  0.
         12    1    1    2    0    0  0.20874745711E+02 -0.29999366177E+02 -0.17817098302E+02  0.40659143762E+02  0.00000000000E+00 0. -1.
         11    1    3    3    0    0 -0.66178729371E+01  0.21654445704E+02  0.57647266706E+01  0.23365430336E+02  0.51100000000E-03 0. -1.
        -11    1    3    3    0    0 -0.18182385479E+02  0.90070414616E+01  0.92812564513E+01  0.22312948240E+02  0.51100000000E-03 0.  1.
        -12    1    3    3    0    0  0.39255127050E+01 -0.66212098856E+00  0.27711151802E+01  0.48504776613E+01  0.00000000000E+00 0.  1.
</event>
<event>
 7    1  0.2973028E-011  0.5052887E+02  0.7816164E-02  0.1300439E+00
        -11   -1    0    0    0    0  0.00000000000E+00  0.00000000000E+00  0.45593999997E+02  0.45594000000E+02  0.51100000000E-03 0.  1.
         11   -1    0    0    0    0 -0.00000000000E+00 -0.00000000000E+00 -0.45593999997E+02  0.45594000000E+02  0.51100000000E-03 0. -1.
    9900012    2    1    2    0    0  0.17237248182E+02  0.14415378050E+02  0.33885678942E+02  0.50528867120E+02  0.30000022098E+02 0.  0.
         12    1    1    2    0    0 -0.17237248182E+02 -0.14415378050E+02 -0.33885678942E+02  0.40659132880E+02  0.00000000000E+00 0. -1.
         11    1    3    3    0    0  0.18264041003E+02  0.11882834050E+02  0.27119159612E+02  0.34788299141E+02  0.51100000000E-03 0.  1.
        -11    1    3    3    0    0 -0.61828834235E+01  0.91883855671E+00 -0.94807312892E+00  0.63222744832E+01  0.51100000000E-03 0. -1.
         12    1    3    3    0    0  0.51560906024E+01  0.16137054425E+01  0.77145924589E+01  0.94182934953E+01  0.00000000000E+00 0. -1.
</event>
<event>
 7    1  0.2973028E-011  0.5052888E+02  0.7816164E-02  0.1300439E+00
        -11   -1    0    0    0    0  0.00000000000E+00  0.00000000000E+00  0.45593999997E+02  0.45594000000E+02  0.51100000000E-03 0.  1.
         11   -1    0    0    0    0 -0.00000000000E+00 -0.00000000000E+00 -0.45593999997E+02  0.45594000000E+02  0.51100000000E-03 0. -1.
    9900012    2    1    2    0    0  0.73814787682E+01  0.36627698553E+02  0.16034019587E+02  0.50528876618E+02  0.30000050967E+02 0.  0.
         12    1    1    2    0    0 -0.73814787682E+01 -0.36627698553E+02 -0.16034019587E+02  0.40659123382E+02  0.00000000000E+00 0. -1.
         11    1    3    3    0    0 -0.45684361804E+01  0.11504660526E+01  0.89590920769E+01  0.10122228627E+02  0.51100000000E-03 0. -1.
        -11    1    3    3    0    0  0.11819429704E+02  0.36019206404E+02  0.49749225270E+01  0.38233911688E+02  0.51100000000E-03 0.  1.
        -12    1    3    3    0    0  0.13048524497E+00 -0.54197390398E+00  0.21000049835E+01  0.21727363031E+01  0.00000000000E+00 0.  1.
</event>
<event>
 7    1  0.2973028E-011  0.5052886E+02  0.7816164E-02  0.1300439E+00
        -11   -1    0    0    0    0  0.00000000000E+00  0.00000000000E+00  0.45593999997E+02  0.45594000000E+02  0.51100000000E-03 0.  1.
         11   -1    0    0    0    0 -0.00000000000E+00 -0.00000000000E+00 -0.45593999997E+02  0.45594000000E+02  0.51100000000E-03 0. -1.
    9900012    2    1    2    0    0  0.12716185514E+02  0.27863506446E+02  0.26741150646E+02  0.50528861995E+02  0.30000006519E+02 0.  0.
         12    1    1    2    0    0 -0.12716185514E+02 -0.27863506446E+02 -0.26741150646E+02  0.40659138005E+02  0.00000000000E+00 0. -1.
         11    1    3    3    0    0  0.15374796059E+02  0.35378633659E+01  0.18333032902E+02  0.24186792402E+02  0.51100000000E-03 0. -1.
        -11    1    3    3    0    0 -0.17740809114E+01  0.23915296485E+02  0.82069595193E+01  0.25346458409E+02  0.51100000000E-03 0.  1.
         12    1    3    3    0    0 -0.88452963264E+00  0.41034659481E+00  0.20115822450E+00  0.99561118424E+00  0.00000000000E+00 0. -1.
</event>
<event>
 7    1  0.2973028E-011  0.5052886E+02  0.7816164E-02  0.1300439E+00
        -11   -1    0    0    0    0  0.00000000000E+00  0.00000000000E+00  0.45593999997E+02  0.45594000000E+02  0.51100000000E-03 0.  1.
         11   -1    0    0    0    0 -0.00000000000E+00 -0.00000000000E+00 -0.45593999997E+02  0.45594000000E+02  0.51100000000E-03 0. -1.
    9900012    2    1    2    0    0  0.35846113210E+02 -0.82320452760E+01  0.17333640727E+02  0.50528862005E+02  0.30000006549E+02 0.  0.
         12    1    1    2    0    0 -0.35846113210E+02  0.82320452760E+01 -0.17333640727E+02  0.40659137995E+02  0.00000000000E+00 0. -1.
         11    1    3    3    0    0  0.25235784876E+02  0.63111690549E+01  0.76743777215E+01  0.27121426342E+02  0.51100000000E-03 0. -1.
        -11    1    3    3    0    0  0.11732703413E+02 -0.13218091649E+02  0.11333058052E+02  0.20995534794E+02  0.51100000000E-03 0.  1.
         12    1    3    3    0    0 -0.11223750794E+01 -0.13251226817E+01 -0.16737950466E+01  0.24119008683E+01  0.00000000000E+00 0. -1.
</event>
<event>
 7    1  0.2973028E-011  0.5052886E+02  0.7816164E-02  0.1300439E+00
        -11   -1    0    0    0    0  0.00000000000E+00  0.00000000000E+00  0.45593999997E+02  0.45594000000E+02  0.51100000000E-03 0.  1.
         11   -1    0    0    0    0 -0.00000000000E+00 -0.00000000000E+00 -0.45593999997E+02  0.45594000000E+02  0.51100000000E-03 0. -1.
    9900012    2    1    2    0    0  0.35385459780E+02  0.17277183820E+02  0.10125915547E+02  0.50528855761E+02  0.29999987570E+02 0.  0.
         12    1    1    2    0    0 -0.35385459780E+02 -0.17277183820E+02 -0.10125915547E+02  0.40659144239E+02  0.00000000000E+00 0. -1.
         11    1    3    3    0    0  0.17332634170E+02  0.10259206017E+02  0.16113413728E+02  0.25793673984E+02  0.51100000000E-03 0.  1.
        -11    1    3    3    0    0 -0.33079885034E+00  0.33338465881E+01 -0.49243252368E+01  0.59559164073E+01  0.51100000000E-03 0. -1.
         12    1    3    3    0    0  0.18383624460E+02  0.36841312155E+01 -0.10631729437E+01  0.18779265369E+02  0.00000000000E+00 0. -1.
</event>
<event>
 7    1  0.2973028E-011  0.5052882E+02  0.7816164E-02  0.1300439E+00
        -11   -1    0    0    0    0  0.00000000000E+00  0.00000000000E+00  0.45593999997E+02  0.45594000000E+02  0.51100000000E-03 0.  1.
         11   -1    0    0    0    0 -0.00000000000E+00 -0.00000000000E+00 -0.45593999997E+02  0.45594000000E+02  0.51100000000E-03 0. -1.
    9900012    2    1    2    0    0 -0.14096007849E+02  0.42884101502E+01  0.37895657383E+02  0.50528822102E+02  0.29999885260E+02 0.  0.
         12    1    1    2    0    0  0.14096007849E+02 -0.42884101502E+01 -0.37895657383E+02  0.40659177898E+02  0.00000000000E+00 0. -1.
         11    1    3    3    0    0  0.39088574978E+01  0.30843943090E-01 -0.26577427543E+01  0.47269139083E+01  0.51100000000E-03 0. -1.
        -11    1    3    3    0    0 -0.12411511111E+02 -0.17370020314E+01  0.19195922988E+02  0.22924795392E+02  0.51100000000E-03 0.  1.
         12    1    3    3    0    0 -0.55933542362E+01  0.59945682385E+01  0.21357477149E+02  0.22877112802E+02  0.00000000000E+00 0. -1.
</event>
<event>
 7    1  0.2973028E-011  0.5052886E+02  0.7816164E-02  0.1300439E+00
        -11   -1    0    0    0    0  0.00000000000E+00  0.00000000000E+00  0.45593999997E+02  0.45594000000E+02  0.51100000000E-03 0.  1.
         11   -1    0    0    0    0 -0.00000000000E+00 -0.00000000000E+00 -0.45593999997E+02  0.45594000000E+02  0.51100000000E-03 0. -1.
    9900012    2    1    2    0    0 -0.54505026836E+01  0.23068405141E+02  0.33034923349E+02  0.50528862578E+02  0.30000008291E+02 0.  0.
         12    1    1    2    0    0  0.54505026836E+01 -0.23068405141E+02 -0.33034923349E+02  0.40659137422E+02  0.00000000000E+00 0. -1.
         11    1    3    3    0    0  0.46639457395E+01  0.25099963278E+02  0.20552010583E+02  0.32774161861E+02  0.51100000000E-03 0. -1.
        -11    1    3    3    0    0 -0.59485795850E+01 -0.34093730953E+01  0.11287947297E+02  0.13207088189E+02  0.51100000000E-03 0.  1.
         12    1    3    3    0    0 -0.41658688382E+01  0.13778149583E+01  0.11949654694E+01  0.45476125285E+01  0.00000000000E+00 0. -1.
</event>
<event>
 7    1  0.2973028E-011  0.5052886E+02  0.7816164E-02  0.1300439E+00
        -11   -1    0    0    0    0  0.00000000000E+00  0.00000000000E+00  0.45593999997E+02  0.45594000000E+02  0.51100000000E-03 0.  1.
         11   -1    0    0    0    0 -0.00000000000E+00 -0.00000000000E+00 -0.45593999997E+02  0.45594000000E+02  0.51100000000E-03 0. -1.
    9900012    2    1    2    0    0 -0.25955908159E+01 -0.40240235774E+02 -0.52107622688E+01  0.50528859450E+02  0.29999998785E+02 0.  0.
         12    1    1    2    0    0  0.25955908159E+01  0.40240235774E+02  0.52107622688E+01  0.40659140550E+02  0.00000000000E+00 0. -1.
         11    1    3    3    0    0 -0.10426104065E+02 -0.28486534114E+02 -0.95418507921E+01  0.31799892902E+02  0.51100000000E-03 0. -1.
        -11    1    3    3    0    0  0.10438235502E+02 -0.65263974297E+01  0.36929092775E+01  0.12852556282E+02  0.51100000000E-03 0.  1.
        -12    1    3    3    0    0 -0.26077222527E+01 -0.52273042305E+01  0.63817924572E+00  0.58764102660E+01  0.00000000000E+00 0.  1.
</event>
<event>
 7    1  0.2973028E-011  0.5052887E+02  0.7816164E-02  0.1300439E+00
        -11   -1    0    0    0    0  0.00000000000E+00  0.00000000000E+00  0.45593999997E+02  0.45594000000E+02  0.51100000000E-03 0.  1.
         11   -1    0    0    0    0 -0.00000000000E+00 -0.00000000000E+00 -0.45593999997E+02  0.45594000000E+02  0.51100000000E-03 0. -1.
    9900012    2    1    2    0    0  0.35686006161E+01  0.14980087837E+02  0.37630131551E+02  0.50528871351E+02  0.30000034959E+02 0.  0.
         12    1    1    2    0    0 -0.35686006161E+01 -0.14980087837E+02 -0.37630131551E+02  0.40659128649E+02  0.00000000000E+00 0. -1.
         11    1    3    3    0    0 -0.47882701864E+01 -0.16827017332E+01 -0.22456039878E+01  0.55499327953E+01  0.51100000000E-03 0. -1.
        -11    1    3    3    0    0  0.73489329075E+01  0.13791084219E+02  0.38664972036E+02  0.41703487643E+02  0.51100000000E-03 0.  1.
         12    1    3    3    0    0  0.10079378950E+01  0.28717053509E+01  0.12107635026E+01  0.32754509128E+01  0.00000000000E+00 0. -1.
</event>
<event>
 7    1  0.2973028E-011  0.5052886E+02  0.7816164E-02  0.1300439E+00
        -11   -1    0    0    0    0  0.00000000000E+00  0.00000000000E+00  0.45593999997E+02  0.45594000000E+02  0.51100000000E-03 0.  1.
         11   -1    0    0    0    0 -0.00000000000E+00 -0.00000000000E+00 -0.45593999997E+02  0.45594000000E+02  0.51100000000E-03 0. -1.
    9900012    2    1    2    0    0  0.30821456349E+02 -0.26512706929E+02  0.52893104621E+00  0.50528861197E+02  0.30000004094E+02 0.  0.
         12    1    1    2    0    0 -0.30821456349E+02  0.26512706929E+02 -0.52893104621E+00  0.40659138803E+02  0.00000000000E+00 0. -1.
         11    1    3    3    0    0  0.15256785322E+02 -0.35631850035E+01 -0.79326949447E+01  0.17561134219E+02  0.51100000000E-03 0. -1.
        -11    1    3    3    0    0 -0.23186453373E+01 -0.71155823047E+01  0.45651111507E+01  0.87662915657E+01  0.51100000000E-03 0.  1.
        -12    1    3    3    0    0  0.17883316365E+02 -0.15833939620E+02  0.38965148402E+01  0.24201435412E+02  0.00000000000E+00 0.  1.
</event>
<event>
 7    1  0.2973028E-011  0.5052886E+02  0.7816164E-02  0.1300439E+00
        -11   -1    0    0    0    0  0.00000000000E+00  0.00000000000E+00  0.45593999997E+02  0.45594000000E+02  0.51100000000E-03 0. -1.
         11   -1    0    0    0    0 -0.00000000000E+00 -0.00000000000E+00 -0.45593999997E+02  0.45594000000E+02  0.51100000000E-03 0.  1.
    9900012    2    1    2    0    0  0.39512015700E+02  0.76629590640E+01 -0.57658461856E+01  0.50528864391E+02  0.30000013802E+02 0.  0.
         12    1    1    2    0    0 -0.39512015700E+02 -0.76629590640E+01  0.57658461856E+01  0.40659135609E+02  0.00000000000E+00 0. -1.
         11    1    3    3    0    0  0.20347482287E+02 -0.91535049067E+01  0.18358882701E+01  0.22386986700E+02  0.51100000000E-03 0. -1.
        -11    1    3    3    0    0  0.10445025524E+02  0.44969560653E+01 -0.62808004710E+01  0.12991136473E+02  0.51100000000E-03 0.  1.
         12    1    3    3    0    0  0.87195078888E+01  0.12319507905E+02 -0.13209339846E+01  0.15150741218E+02  0.00000000000E+00 0. -1.
</event>
<event>
 7    1  0.2973028E-011  0.5052888E+02  0.7816164E-02  0.1300439E+00
        -11   -1    0    0    0    0  0.00000000000E+00  0.00000000000E+00  0.45593999997E+02  0.45594000000E+02  0.51100000000E-03 0.  1.
         11   -1    0    0    0    0 -0.00000000000E+00 -0.00000000000E+00 -0.45593999997E+02  0.45594000000E+02  0.51100000000E-03 0. -1.
    9900012    2    1    2    0    0 -0.33432966262E+02 -0.78660146344E+01  0.21760673730E+02  0.50528876295E+02  0.30000049985E+02 0.  0.
         12    1    1    2    0    0  0.33432966262E+02  0.78660146344E+01 -0.21760673730E+02  0.40659123705E+02  0.00000000000E+00 0. -1.
         11    1    3    3    0    0 -0.14477242802E+02 -0.84826023294E+01  0.47520877305E+01  0.17439249969E+02  0.51100000000E-03 0. -1.
        -11    1    3    3    0    0 -0.87085437329E+01 -0.20158121643E+01  0.20157922318E+02  0.22050942498E+02  0.51100000000E-03 0.  1.
        -12    1    3    3    0    0 -0.10247179728E+02  0.26323998592E+01 -0.31493363189E+01  0.11038683827E+02  0.00000000000E+00 0.  1.
</event>
<event>
 7    1  0.2973028E-011  0.5052887E+02  0.7816164E-02  0.1300439E+00
        -11   -1    0    0    0    0  0.00000000000E+00  0.00000000000E+00  0.45593999997E+02  0.45594000000E+02  0.51100000000E-03 0.  1.
         11   -1    0    0    0    0 -0.00000000000E+00 -0.00000000000E+00 -0.45593999997E+02  0.45594000000E+02  0.51100000000E-03 0. -1.
    9900012    2    1    2    0    0 -0.20923226990E+01 -0.39399491335E+02  0.98217831237E+01  0.50528866272E+02  0.30000019521E+02 0.  0.
         12    1    1    2    0    0  0.20923226990E+01  0.39399491335E+02 -0.98217831237E+01  0.40659133728E+02  0.00000000000E+00 0. -1.
         11    1    3    3    0    0  0.89834930152E+00 -0.10047929202E+02 -0.94284027113E+01  0.13808066145E+02  0.51100000000E-03 0. -1.
        -11    1    3    3    0    0 -0.55471024883E+01 -0.27407430852E+02  0.16343050228E+02  0.32388777423E+02  0.51100000000E-03 0.  1.
        -12    1    3    3    0    0  0.25564304878E+01 -0.19441312815E+01  0.29071356065E+01  0.43320227046E+01  0.00000000000E+00 0.  1.
</event>
<event>
 7    1  0.2973028E-011  0.5052886E+02  0.7816164E-02  0.1300439E+00
        -11   -1    0    0    0    0  0.00000000000E+00  0.00000000000E+00  0.45593999997E+02  0.45594000000E+02  0.51100000000E-03 0.  1.
         11   -1    0    0    0    0 -0.00000000000E+00 -0.00000000000E+00 -0.45593999997E+02  0.45594000000E+02  0.51100000000E-03 0. -1.
    9900012    2    1    2    0    0  0.79155637279E+01  0.36739173296E+02  0.15515894625E+02  0.50528856014E+02  0.29999988341E+02 0.  0.
         12    1    1    2    0    0 -0.79155637279E+01 -0.36739173296E+02 -0.15515894625E+02  0.40659143986E+02  0.00000000000E+00 0. -1.
         11    1    3    3    0    0 -0.76580260902E+01  0.24830235115E+02  0.85028827183E+01  0.27340171072E+02  0.51100000000E-03 0. -1.
        -11    1    3    3    0    0  0.55972585117E+01  0.53735213808E+01  0.80952912508E+01  0.11213285673E+02  0.51100000000E-03 0.  1.
         12    1    3    3    0    0  0.99763313064E+01  0.65354168005E+01 -0.10822793441E+01  0.11975399270E+02  0.00000000000E+00 0. -1.
</event>
<event>
 7    1  0.2973028E-011  0.5052886E+02  0.7816164E-02  0.1300439E+00
        -11   -1    0    0    0    0  0.00000000000E+00  0.00000000000E+00  0.45593999997E+02  0.45594000000E+02  0.51100000000E-03 0.  1.
         11   -1    0    0    0    0 -0.00000000000E+00 -0.00000000000E+00 -0.45593999997E+02  0.45594000000E+02  0.51100000000E-03 0. -1.
    9900012    2    1    2    0    0 -0.18751635401E+02  0.32649755738E+02  0.15347159630E+02  0.50528859716E+02  0.29999999593E+02 0.  0.
         12    1    1    2    0    0  0.18751635401E+02 -0.32649755738E+02 -0.15347159630E+02  0.40659140284E+02  0.00000000000E+00 0. -1.
         11    1    3    3    0    0 -0.10251037442E+02  0.10621744021E+02 -0.54620264594E+01  0.15739725156E+02  0.51100000000E-03 0. -1.
        -11    1    3    3    0    0 -0.12276490185E+02  0.20020911752E+02  0.16383613224E+02  0.28635151495E+02  0.51100000000E-03 0.  1.
         12    1    3    3    0    0  0.37758922262E+01  0.20070999656E+01  0.44255728655E+01  0.61539830649E+01  0.00000000000E+00 0. -1.
</event>
<event>
 7    1  0.2973028E-011  0.5052888E+02  0.7816164E-02  0.1300439E+00
        -11   -1    0    0    0    0  0.00000000000E+00  0.00000000000E+00  0.45593999997E+02  0.45594000000E+02  0.51100000000E-03 0. -1.
         11   -1    0    0    0    0 -0.00000000000E+00 -0.00000000000E+00 -0.45593999997E+02  0.45594000000E+02  0.51100000000E-03 0.  1.
    9900012    2    1    2    0    0 -0.19480325912E+02  0.31983462589E+02 -0.15834747025E+02  0.50528878143E+02  0.30000055603E+02 0.  0.
         12    1    1    2    0    0  0.19480325912E+02 -0.31983462589E+02  0.15834747025E+02  0.40659121857E+02  0.00000000000E+00 0. -1.
         11    1    3    3    0    0 -0.31456457254E+01  0.95626076584E+01  0.78935354480E+01  0.12792437390E+02  0.51100000000E-03 0. -1.
        -11    1    3    3    0    0 -0.51405128926E+01  0.12325403065E+01 -0.54947723760E+01  0.76247329220E+01  0.51100000000E-03 0.  1.
         12    1    3    3    0    0 -0.11194167294E+02  0.21188314624E+02 -0.18233510097E+02  0.30111707831E+02  0.00000000000E+00 0. -1.
</event>
<event>
 7    1  0.2973028E-011  0.5052887E+02  0.7816164E-02  0.1300439E+00
        -11   -1    0    0    0    0  0.00000000000E+00  0.00000000000E+00  0.45593999997E+02  0.45594000000E+02  0.51100000000E-03 0.  1.
         11   -1    0    0    0    0 -0.00000000000E+00 -0.00000000000E+00 -0.45593999997E+02  0.45594000000E+02  0.51100000000E-03 0. -1.
    9900012    2    1    2    0    0  0.26691993607E+02 -0.21998394731E+02 -0.21372250875E+02  0.50528868174E+02  0.30000025301E+02 0.  0.
         12    1    1    2    0    0 -0.26691993607E+02  0.21998394731E+02  0.21372250875E+02  0.40659131826E+02  0.00000000000E+00 0. -1.
         11    1    3    3    0    0 -0.18239125225E+01 -0.10492864916E+02 -0.13849736291E+01  0.10739880039E+02  0.51100000000E-03 0. -1.
        -11    1    3    3    0    0  0.65628398615E+01 -0.65530059413E+01 -0.13480113060E+02  0.16362340978E+02  0.51100000000E-03 0.  1.
         12    1    3    3    0    0  0.21953066268E+02 -0.49525238732E+01 -0.65071641857E+01  0.23426647157E+02  0.00000000000E+00 0. -1.
</event>
<event>
 7    1  0.2973028E-011  0.5052886E+02  0.7816164E-02  0.1300439E+00
        -11   -1    0    0    0    0  0.00000000000E+00  0.00000000000E+00  0.45593999997E+02  0.45594000000E+02  0.51100000000E-03 0.  1.
         11   -1    0    0    0    0 -0.00000000000E+00 -0.00000000000E+00 -0.45593999997E+02  0.45594000000E+02  0.51100000000E-03 0. -1.
    9900012    2    1    2    0    0 -0.18978139024E+02  0.26347627681E+02  0.24470358932E+02  0.50528859435E+02  0.29999998739E+02 0.  0.
         12    1    1    2    0    0  0.18978139024E+02 -0.26347627681E+02 -0.24470358932E+02  0.40659140565E+02  0.00000000000E+00 0. -1.
         11    1    3    3    0    0 -0.11190358202E+02  0.56194649883E+01 -0.39186104117E+01  0.13120899788E+02  0.51100000000E-03 0. -1.
        -11    1    3    3    0    0 -0.75863076927E+01  0.11935161352E+02  0.10983049501E+02  0.17906074878E+02  0.51100000000E-03 0.  1.
         12    1    3    3    0    0 -0.20147312952E+00  0.87930013400E+01  0.17405919843E+02  0.19501884769E+02  0.00000000000E+00 0. -1.
</event>
<event>
 7    1  0.2973028E-011  0.5052888E+02  0.7816164E-02  0.1300439E+00
        -11   -1    0    0    0    0  0.00000000000E+00  0.00000000000E+00  0.45593999997E+02  0.45594000000E+02  0.51100000000E-03 0. -1.
         11   -1    0    0    0    0 -0.00000000000E+00 -0.00000000000E+00 -0.45593999997E+02  0.45594000000E+02  0.51100000000E-03 0.  1.
    9900012    2    1    2    0    0  0.12280935438E+02 -0.15023642047E+02 -0.35730001700E+02  0.50528877813E+02  0.30000054599E+02 0.  0.
         12    1    1    2    0    0 -0.12280935438E+02  0.15023642047E+02  0.35730001700E+02  0.40659122187E+02  0.00000000000E+00 0. -1.
         11    1    3    3    0    0  0.44586460893E+01 -0.54811329133E+00  0.47122073863E+01  0.65103649546E+01  0.51100000000E-03 0. -1.
        -11    1    3    3    0    0  0.81046634807E+01 -0.99547202006E+01 -0.29119012795E+02  0.31822930896E+02  0.51100000000E-03 0.  1.
         12    1    3    3    0    0 -0.28237413209E+00 -0.45208085548E+01 -0.11323196291E+02  0.12195581962E+02  0.00000000000E+00 0. -1.
</event>
<event>
 7    1  0.2973028E-011  0.5052887E+02  0.7816164E-02  0.1300439E+00
        -11   -1    0    0    0    0  0.00000000000E+00  0.00000000000E+00  0.45593999997E+02  0.45594000000E+02  0.51100000000E-03 0. -1.
         11   -1    0    0    0    0 -0.00000000000E+00 -0.00000000000E+00 -0.45593999997E+02  0.45594000000E+02  0.51100000000E-03 0.  1.
    9900012    2    1    2    0    0  0.42258176754E+01  0.26749520251E+02 -0.30327715758E+02  0.50528871729E+02  0.30000036108E+02 0.  0.
         12    1    1    2    0    0 -0.42258176754E+01 -0.26749520251E+02  0.30327715758E+02  0.40659128271E+02  0.00000000000E+00 0. -1.
         11    1    3    3    0    0  0.12547773087E+02  0.14568678873E+02 -0.25170816983E+02  0.31674327797E+02  0.51100000000E-03 0. -1.
        -11    1    3    3    0    0 -0.48236838937E+01 -0.60489987365E+00 -0.10092403343E+01  0.49651179721E+01  0.51100000000E-03 0.  1.
         12    1    3    3    0    0 -0.34982715176E+01  0.12785741251E+02 -0.41476584408E+01  0.13889425960E+02  0.00000000000E+00 0. -1.
</event>
<event>
 7    1  0.2973028E-011  0.5052885E+02  0.7816164E-02  0.1300439E+00
        -11   -1    0    0    0    0  0.00000000000E+00  0.00000000000E+00  0.45593999997E+02  0.45594000000E+02  0.51100000000E-03 0. -1.
         11   -1    0    0    0    0 -0.00000000000E+00 -0.00000000000E+00 -0.45593999997E+02  0.45594000000E+02  0.51100000000E-03 0.  1.
    9900012    2    1    2    0    0  0.38496049933E+02  0.20757958740E+00 -0.13083472765E+02  0.50528853313E+02  0.29999980130E+02 0.  0.
         12    1    1    2    0    0 -0.38496049933E+02 -0.20757958740E+00  0.13083472765E+02  0.40659146687E+02  0.00000000000E+00 0. -1.
         11    1    3    3    0    0 -0.23125585523E+01 -0.58518040496E+00  0.35750634707E+00  0.24120891803E+01  0.51100000000E-03 0. -1.
        -11    1    3    3    0    0  0.34258106980E+02  0.90571648455E+01 -0.12301948495E+02  0.37509839588E+02  0.51100000000E-03 0.  1.
         12    1    3    3    0    0  0.65505015048E+01 -0.82644048532E+01 -0.11390306176E+01  0.10606924544E+02  0.00000000000E+00 0. -1.
</event>
<event>
 7    1  0.2973028E-011  0.5052889E+02  0.7816164E-02  0.1300439E+00
        -11   -1    0    0    0    0  0.00000000000E+00  0.00000000000E+00  0.45593999997E+02  0.45594000000E+02  0.51100000000E-03 0. -1.
         11   -1    0    0    0    0 -0.00000000000E+00 -0.00000000000E+00 -0.45593999997E+02  0.45594000000E+02  0.51100000000E-03 0.  1.
    9900012    2    1    2    0    0 -0.23558694593E+02  0.15922059986E+02 -0.29062676852E+02  0.50528889447E+02  0.30000089964E+02 0.  0.
         12    1    1    2    0    0  0.23558694593E+02 -0.15922059986E+02  0.29062676852E+02  0.40659110553E+02  0.00000000000E+00 0. -1.
         11    1    3    3    0    0  0.25678297324E+01  0.13006488402E+02 -0.95876759434E+01  0.16361113053E+02  0.51100000000E-03 0. -1.
        -11    1    3    3    0    0 -0.26119899128E+02  0.44707979607E+01 -0.18673496794E+02  0.32418153058E+02  0.51100000000E-03 0.  1.
         12    1    3    3    0    0 -0.66251973280E-02 -0.15552263765E+01 -0.80150411408E+00  0.17496233367E+01  0.00000000000E+00 0. -1.
</event>
<event>
 7    1  0.2973028E-011  0.5052885E+02  0.7816164E-02  0.1300439E+00
        -11   -1    0    0    0    0  0.00000000000E+00  0.00000000000E+00  0.45593999997E+02  0.45594000000E+02  0.51100000000E-03 0.  1.
         11   -1    0    0    0    0 -0.00000000000E+00 -0.00000000000E+00 -0.45593999997E+02  0.45594000000E+02  0.51100000000E-03 0. -1.
    9900012    2    1    2    0    0  0.15381796639E+02 -0.13699542349E+02  0.35055515465E+02  0.50528852285E+02  0.29999977005E+02 0.  0.
         12    1    1    2    0    0 -0.15381796639E+02  0.13699542349E+02 -0.35055515465E+02  0.40659147715E+02  0.00000000000E+00 0. -1.
         11    1    3    3    0    0 -0.30756873942E+01 -0.54752245529E+01  0.18023730177E+02  0.19086455580E+02  0.51100000000E-03 0. -1.
        -11    1    3    3    0    0  0.14196361702E+02 -0.99129072256E+01  0.19628816575E+02  0.26174278512E+02  0.51100000000E-03 0.  1.
         12    1    3    3    0    0  0.42611223306E+01  0.16885894294E+01 -0.25970312874E+01  0.52681181920E+01  0.00000000000E+00 0. -1.
</event>
<event>
 7    1  0.2973028E-011  0.5052875E+02  0.7816164E-02  0.1300439E+00
        -11   -1    0    0    0    0  0.00000000000E+00  0.00000000000E+00  0.45593999997E+02  0.45594000000E+02  0.51100000000E-03 0.  1.
         11   -1    0    0    0    0 -0.00000000000E+00 -0.00000000000E+00 -0.45593999997E+02  0.45594000000E+02  0.51100000000E-03 0. -1.
    9900012    2    1    2    0    0  0.51410787640E+01 -0.16568608130E+02  0.36772619356E+02  0.50528745205E+02  0.29999651522E+02 0.  0.
         12    1    1    2    0    0 -0.51410787640E+01  0.16568608130E+02 -0.36772619356E+02  0.40659254795E+02  0.00000000000E+00 0. -1.
         11    1    3    3    0    0  0.20545415901E+01 -0.86334184166E+00 -0.41095396850E+01  0.46749135783E+01  0.51100000000E-03 0. -1.
        -11    1    3    3    0    0  0.43492864814E+01 -0.27251077306E+01  0.23883555896E+02  0.24428809785E+02  0.51100000000E-03 0.  1.
         12    1    3    3    0    0 -0.12627493075E+01 -0.12980158558E+02  0.16998603145E+02  0.21425021841E+02  0.00000000000E+00 0. -1.
</event>
<event>
 7    1  0.2973028E-011  0.5052888E+02  0.7816164E-02  0.1300439E+00
        -11   -1    0    0    0    0  0.00000000000E+00  0.00000000000E+00  0.45593999997E+02  0.45594000000E+02  0.51100000000E-03 0. -1.
         11   -1    0    0    0    0 -0.00000000000E+00 -0.00000000000E+00 -0.45593999997E+02  0.45594000000E+02  0.51100000000E-03 0.  1.
    9900012    2    1    2    0    0  0.24867574276E+02 -0.31407136811E+02  0.69541308504E+01  0.50528875207E+02  0.30000046679E+02 0.  0.
         12    1    1    2    0    0 -0.24867574276E+02  0.31407136811E+02 -0.69541308504E+01  0.40659124793E+02  0.00000000000E+00 0. -1.
         11    1    3    3    0    0 -0.40826287857E+01 -0.14031646917E+02 -0.26778205739E-01  0.14613544756E+02  0.51100000000E-03 0. -1.
        -11    1    3    3    0    0  0.26872942928E+02 -0.18637363834E+02  0.71610683355E+01  0.33478161423E+02  0.51100000000E-03 0.  1.
         12    1    3    3    0    0  0.20772601346E+01  0.12618739399E+01 -0.18015927932E+00  0.24371690284E+01  0.00000000000E+00 0. -1.
</event>
<event>
 7    1  0.2973028E-011  0.5052885E+02  0.7816164E-02  0.1300439E+00
        -11   -1    0    0    0    0  0.00000000000E+00  0.00000000000E+00  0.45593999997E+02  0.45594000000E+02  0.51100000000E-03 0.  1.
         11   -1    0    0    0    0 -0.00000000000E+00 -0.00000000000E+00 -0.45593999997E+02  0.45594000000E+02  0.51100000000E-03 0. -1.
    9900012    2    1    2    0    0  0.20571009721E+02  0.56651177380E+01  0.34610781192E+02  0.50528853740E+02  0.29999981427E+02 0.  0.
         12    1    1    2    0    0 -0.20571009721E+02 -0.56651177380E+01 -0.34610781192E+02  0.40659146260E+02  0.00000000000E+00 0. -1.
         11    1    3    3    0    0  0.34037984592E+01  0.56574934958E+01 -0.39699136174E+01  0.77041087088E+01  0.51100000000E-03 0. -1.
        -11    1    3    3    0    0  0.99771969714E+01  0.20091383074E+01  0.28636935755E+02  0.30391696002E+02  0.51100000000E-03 0.  1.
         12    1    3    3    0    0  0.71900142902E+01 -0.20015140652E+01  0.99437590537E+01  0.12433049029E+02  0.00000000000E+00 0. -1.
</event>
<event>
 7    1  0.2973028E-011  0.5052885E+02  0.7816164E-02  0.1300439E+00
        -11   -1    0    0    0    0  0.00000000000E+00  0.00000000000E+00  0.45593999997E+02  0.45594000000E+02  0.51100000000E-03 0. -1.
         11   -1    0    0    0    0 -0.00000000000E+00 -0.00000000000E+00 -0.45593999997E+02  0.45594000000E+02  0.51100000000E-03 0.  1.
    9900012    2    1    2    0    0  0.32146975343E+02 -0.68579146466E+01 -0.23931309865E+02  0.50528848399E+02  0.29999965195E+02 0.  0.
         12    1    1    2    0    0 -0.32146975343E+02  0.68579146466E+01  0.23931309865E+02  0.40659151601E+02  0.00000000000E+00 0. -1.
         11    1    3    3    0    0  0.93123218674E+01 -0.13245017275E+02 -0.18362455386E+01  0.16294834124E+02  0.51100000000E-03 0. -1.
        -11    1    3    3    0    0  0.18909488182E+02  0.56611137204E+01 -0.11345025345E+02  0.22766786164E+02  0.51100000000E-03 0.  1.
         12    1    3    3    0    0  0.39251652934E+01  0.72598890810E+00 -0.10750038981E+02  0.11467228112E+02  0.00000000000E+00 0. -1.
</event>
<event>
 7    1  0.2973028E-011  0.5052886E+02  0.7816164E-02  0.1300439E+00
        -11   -1    0    0    0    0  0.00000000000E+00  0.00000000000E+00  0.45593999997E+02  0.45594000000E+02  0.51100000000E-03 0.  1.
         11   -1    0    0    0    0 -0.00000000000E+00 -0.00000000000E+00 -0.45593999997E+02  0.45594000000E+02  0.51100000000E-03 0. -1.
    9900012    2    1    2    0    0  0.14681214763E+01  0.40551652168E+02  0.25639620013E+01  0.50528858650E+02  0.29999996352E+02 0.  0.
         12    1    1    2    0    0 -0.14681214763E+01 -0.40551652168E+02 -0.25639620013E+01  0.40659141350E+02  0.00000000000E+00 0. -1.
         11    1    3    3    0    0 -0.11131133810E+02  0.77612329128E+01 -0.24141969879E+01  0.13782859775E+02  0.51100000000E-03 0. -1.
        -11    1    3    3    0    0  0.67515161911E+01  0.74810463260E+01  0.37117374869E+01  0.10738995318E+02  0.51100000000E-03 0.  1.
         12    1    3    3    0    0  0.58477390950E+01  0.25309372929E+02  0.12664215023E+01  0.26007003557E+02  0.00000000000E+00 0. -1.
</event>
<event>
 7    1  0.2973028E-011  0.5052886E+02  0.7816164E-02  0.1300439E+00
        -11   -1    0    0    0    0  0.00000000000E+00  0.00000000000E+00  0.45593999997E+02  0.45594000000E+02  0.51100000000E-03 0.  1.
         11   -1    0    0    0    0 -0.00000000000E+00 -0.00000000000E+00 -0.45593999997E+02  0.45594000000E+02  0.51100000000E-03 0. -1.
    9900012    2    1    2    0    0 -0.38829160670E+02 -0.10344201631E+02  0.62015599479E+01  0.50528861156E+02  0.30000003971E+02 0.  0.
         12    1    1    2    0    0  0.38829160670E+02  0.10344201631E+02 -0.62015599479E+01  0.40659138844E+02  0.00000000000E+00 0. -1.
         11    1    3    3    0    0 -0.32644497513E+02 -0.10135908933E+02 -0.51048225447E+01  0.34560947343E+02  0.51100000000E-03 0. -1.
        -11    1    3    3    0    0 -0.20610428382E+01  0.41591300566E+01  0.76135781466E+01  0.89169968523E+01  0.51100000000E-03 0.  1.
         12    1    3    3    0    0 -0.41236203189E+01 -0.43674227545E+01  0.36928043460E+01  0.70509169608E+01  0.00000000000E+00 0. -1.
</event>
<event>
 7    1  0.2973028E-011  0.5052888E+02  0.7816164E-02  0.1300439E+00
        -11   -1    0    0    0    0  0.00000000000E+00  0.00000000000E+00  0.45593999997E+02  0.45594000000E+02  0.51100000000E-03 0.  1.
         11   -1    0    0    0    0 -0.00000000000E+00 -0.00000000000E+00 -0.45593999997E+02  0.45594000000E+02  0.51100000000E-03 0. -1.
    9900012    2    1    2    0    0  0.82667842869E+01 -0.35944776736E+02  0.17111323197E+02  0.50528879515E+02  0.30000059775E+02 0.  0.
         12    1    1    2    0    0 -0.82667842869E+01  0.35944776736E+02 -0.17111323197E+02  0.40659120485E+02  0.00000000000E+00 0. -1.
         11    1    3    3    0    0  0.22790301847E+01 -0.13563225211E+01 -0.68932482402E+01  0.73858283846E+01  0.51100000000E-03 0. -1.
        -11    1    3    3    0    0  0.71626653007E+01 -0.25640433593E+02  0.15871404350E+02  0.30994145986E+02  0.51100000000E-03 0.  1.
        -12    1    3    3    0    0 -0.11749111985E+01 -0.89480206217E+01  0.81331670863E+01  0.12148905145E+02  0.00000000000E+00 0.  1.
</event>
<event>
 7    1  0.2973028E-011  0.5052887E+02  0.7816164E-02  0.1300439E+00
        -11   -1    0    0    0    0  0.00000000000E+00  0.00000000000E+00  0.45593999997E+02  0.45594000000E+02  0.51100000000E-03 0.  1.
         11   -1    0    0    0    0 -0.00000000000E+00 -0.00000000000E+00 -0.45593999997E+02  0.45594000000E+02  0.51100000000E-03 0. -1.
    9900012    2    1    2    0    0 -0.76115609294E+01  0.85540378174E+01  0.39013556791E+02  0.50528867739E+02  0.30000023979E+02 0.  0.
         12    1    1    2    0    0  0.76115609294E+01 -0.85540378174E+01 -0.39013556791E+02  0.40659132261E+02  0.00000000000E+00 0. -1.
         11    1    3    3    0    0  0.27780757021E+01 -0.17474342093E+00  0.55321637895E+01  0.61929860588E+01  0.51100000000E-03 0.  1.
        -11    1    3    3    0    0 -0.14218661423E+02 -0.28542513858E+01  0.26684534229E+02  0.30370733461E+02  0.51100000000E-03 0. -1.
        -12    1    3    3    0    0  0.38290247917E+01  0.11583032624E+02  0.67968587717E+01  0.13965148219E+02  0.00000000000E+00 0.  1.
</event>
<event>
 7    1  0.2973028E-011  0.5052884E+02  0.7816164E-02  0.1300439E+00
        -11   -1    0    0    0    0  0.00000000000E+00  0.00000000000E+00  0.45593999997E+02  0.45594000000E+02  0.51100000000E-03 0. -1.
         11   -1    0    0    0    0 -0.00000000000E+00 -0.00000000000E+00 -0.45593999997E+02  0.45594000000E+02  0.51100000000E-03 0.  1.
    9900012    2    1    2    0    0 -0.72165886330E+01  0.39656909598E+02 -0.53308206323E+01  0.50528840159E+02  0.29999940146E+02 0.  0.
         12    1    1    2    0    0  0.72165886330E+01 -0.39656909598E+02  0.53308206323E+01  0.40659159841E+02  0.00000000000E+00 0. -1.
         11    1    3    3    0    0  0.35016848923E+01  0.72030463618E+01 -0.95434100773E+01  0.12458826194E+02  0.51100000000E-03 0. -1.
        -11    1    3    3    0    0  0.28940310539E+01  0.37953515658E+01 -0.28601023705E+01  0.55641976133E+01  0.51100000000E-03 0.  1.
         12    1    3    3    0    0 -0.13612304579E+02  0.28658511671E+02  0.70726918155E+01  0.32505816351E+02  0.00000000000E+00 0. -1.
</event>
<event>
 7    1  0.2973028E-011  0.5052886E+02  0.7816164E-02  0.1300439E+00
        -11   -1    0    0    0    0  0.00000000000E+00  0.00000000000E+00  0.45593999997E+02  0.45594000000E+02  0.51100000000E-03 0. -1.
         11   -1    0    0    0    0 -0.00000000000E+00 -0.00000000000E+00 -0.45593999997E+02  0.45594000000E+02  0.51100000000E-03 0.  1.
    9900012    2    1    2    0    0  0.39811651052E+01 -0.63399492778E+01 -0.39963997703E+02  0.50528859025E+02  0.29999997492E+02 0.  0.
         12    1    1    2    0    0 -0.39811651052E+01  0.63399492778E+01  0.39963997703E+02  0.40659140975E+02  0.00000000000E+00 0. -1.
         11    1    3    3    0    0 -0.28409843246E+01 -0.13976539591E+01 -0.49741410573E+00  0.32050038339E+01  0.51100000000E-03 0. -1.
        -11    1    3    3    0    0  0.58444386063E+01 -0.14537195406E+02 -0.29805005270E+02  0.33672330664E+02  0.51100000000E-03 0.  1.
        -12    1    3    3    0    0  0.97771082348E+00  0.95949000876E+01 -0.96615783269E+01  0.13651524527E+02  0.00000000000E+00 0.  1.
</event>
<event>
 7    1  0.2973028E-011  0.5052886E+02  0.7816164E-02  0.1300439E+00
        -11   -1    0    0    0    0  0.00000000000E+00  0.00000000000E+00  0.45593999997E+02  0.45594000000E+02  0.51100000000E-03 0. -1.
         11   -1    0    0    0    0 -0.00000000000E+00 -0.00000000000E+00 -0.45593999997E+02  0.45594000000E+02  0.51100000000E-03 0.  1.
    9900012    2    1    2    0    0  0.37819628460E+02 -0.84531146819E+01 -0.12303906570E+02  0.50528861279E+02  0.30000004343E+02 0.  0.
         12    1    1    2    0    0 -0.37819628460E+02  0.84531146819E+01  0.12303906570E+02  0.40659138721E+02  0.00000000000E+00 0. -1.
         11    1    3    3    0    0  0.35575536004E+02 -0.13563496701E+02 -0.10309211042E+02  0.39444480441E+02  0.51100000000E-03 0. -1.
        -11    1    3    3    0    0  0.50915209490E+01  0.22628312998E+01  0.14806898030E+01  0.57651048229E+01  0.51100000000E-03 0.  1.
         12    1    3    3    0    0 -0.28474284930E+01  0.28475507191E+01 -0.34753853307E+01  0.53192760144E+01  0.00000000000E+00 0. -1.
</event>
<event>
 7    1  0.2973028E-011  0.5052886E+02  0.7816164E-02  0.1300439E+00
        -11   -1    0    0    0    0  0.00000000000E+00  0.00000000000E+00  0.45593999997E+02  0.45594000000E+02  0.51100000000E-03 0.  1.
         11   -1    0    0    0    0 -0.00000000000E+00 -0.00000000000E+00 -0.45593999997E+02  0.45594000000E+02  0.51100000000E-03 0. -1.
    9900012    2    1    2    0    0  0.11007484097E+02  0.13347400020E+02  0.36794671176E+02  0.50528860556E+02  0.30000002145E+02 0.  0.
         12    1    1    2    0    0 -0.11007484097E+02 -0.13347400020E+02 -0.36794671176E+02  0.40659139444E+02  0.00000000000E+00 0. -1.
         11    1    3    3    0    0  0.11096314761E+02 -0.70700353032E+01  0.97912870025E+01  0.16400698214E+02  0.51100000000E-03 0. -1.
        -11    1    3    3    0    0 -0.75497838043E+00  0.14459363134E+02  0.21907270008E+02  0.26259696382E+02  0.51100000000E-03 0.  1.
         12    1    3    3    0    0  0.66614771611E+00  0.59580721885E+01  0.50961141652E+01  0.78684659603E+01  0.00000000000E+00 0. -1.
</event>
<event>
 7    1  0.2973028E-011  0.5052887E+02  0.7816164E-02  0.1300439E+00
        -11   -1    0    0    0    0  0.00000000000E+00  0.00000000000E+00  0.45593999997E+02  0.45594000000E+02  0.51100000000E-03 0.  1.
         11   -1    0    0    0    0 -0.00000000000E+00 -0.00000000000E+00 -0.45593999997E+02  0.45594000000E+02  0.51100000000E-03 0. -1.
    9900012    2    1    2    0    0 -0.17289866446E+02 -0.35775917146E+02  0.86202964930E+01  0.50528865221E+02  0.30000016326E+02 0.  0.
         12    1    1    2    0    0  0.17289866446E+02  0.35775917146E+02 -0.86202964930E+01  0.40659134779E+02  0.00000000000E+00 0. -1.
         11    1    3    3    0    0 -0.91664544226E+01 -0.17827332263E+02 -0.46908012573E+01  0.20587405835E+02  0.51100000000E-03 0. -1.
        -11    1    3    3    0    0 -0.13361191896E+02 -0.14607664958E+02  0.13074433599E+02  0.23724378571E+02  0.51100000000E-03 0.  1.
        -12    1    3    3    0    0  0.52377798729E+01 -0.33409199250E+01  0.23666415124E+00  0.62170808152E+01  0.00000000000E+00 0.  1.
</event>
<event>
 7    1  0.2973028E-011  0.5052886E+02  0.7816164E-02  0.1300439E+00
        -11   -1    0    0    0    0  0.00000000000E+00  0.00000000000E+00  0.45593999997E+02  0.45594000000E+02  0.51100000000E-03 0. -1.
         11   -1    0    0    0    0 -0.00000000000E+00 -0.00000000000E+00 -0.45593999997E+02  0.45594000000E+02  0.51100000000E-03 0.  1.
    9900012    2    1    2    0    0 -0.78530231983E+01 -0.32529459289E+02  0.23093941324E+02  0.50528858090E+02  0.29999994649E+02 0.  0.
         12    1    1    2    0    0  0.78530231983E+01  0.32529459289E+02 -0.23093941324E+02  0.40659141910E+02  0.00000000000E+00 0. -1.
         11    1    3    3    0    0  0.34865317974E+01  0.20199153157E+01  0.82979416393E+01  0.92245215359E+01  0.51100000000E-03 0. -1.
        -11    1    3    3    0    0 -0.49148629552E+01 -0.28727022510E+02  0.78182988070E+01  0.30174881883E+02  0.51100000000E-03 0.  1.
         12    1    3    3    0    0 -0.64246920405E+01 -0.58223520954E+01  0.69777008777E+01  0.11129454671E+02  0.00000000000E+00 0. -1.
</event>
<event>
 7    1  0.2973028E-011  0.5052886E+02  0.7816164E-02  0.1300439E+00
        -11   -1    0    0    0    0  0.00000000000E+00  0.00000000000E+00  0.45593999997E+02  0.45594000000E+02  0.51100000000E-03 0.  1.
         11   -1    0    0    0    0 -0.00000000000E+00 -0.00000000000E+00 -0.45593999997E+02  0.45594000000E+02  0.51100000000E-03 0. -1.
    9900012    2    1    2    0    0  0.79453896301E+00  0.64590300350E+01  0.40134965671E+02  0.50528857970E+02  0.29999994287E+02 0.  0.
         12    1    1    2    0    0 -0.79453896301E+00 -0.64590300350E+01 -0.40134965671E+02  0.40659142030E+02  0.00000000000E+00 0. -1.
         11    1    3    3    0    0 -0.23310008423E+01 -0.73422543638E+01  0.56711919495E+01  0.95658079878E+01  0.51100000000E-03 0. -1.
        -11    1    3    3    0    0 -0.53214408179E+00  0.59597398716E+01  0.31114808385E+02  0.31684901417E+02  0.51100000000E-03 0.  1.
         12    1    3    3    0    0  0.36576838871E+01  0.78415445272E+01  0.33489653362E+01  0.92781485660E+01  0.00000000000E+00 0. -1.
</event>
<event>
 7    1  0.2973028E-011  0.5052885E+02  0.7816164E-02  0.1300439E+00
        -11   -1    0    0    0    0  0.00000000000E+00  0.00000000000E+00  0.45593999997E+02  0.45594000000E+02  0.51100000000E-03 0.  1.
         11   -1    0    0    0    0 -0.00000000000E+00 -0.00000000000E+00 -0.45593999997E+02  0.45594000000E+02  0.51100000000E-03 0. -1.
    9900012    2    1    2    0    0  0.11324633422E+02 -0.25300630464E+02  0.29745540229E+02  0.50528851121E+02  0.29999973468E+02 0.  0.
         12    1    1    2    0    0 -0.11324633422E+02  0.25300630464E+02 -0.29745540229E+02  0.40659148879E+02  0.00000000000E+00 0. -1.
         11    1    3    3    0    0  0.56039152441E+01 -0.25975457294E+01 -0.16217514968E+01  0.63860150374E+01  0.51100000000E-03 0. -1.
        -11    1    3    3    0    0  0.81132356985E+01 -0.24600738454E+02  0.31846826212E+02  0.41051690172E+02  0.51100000000E-03 0.  1.
        -12    1    3    3    0    0 -0.23925175206E+01  0.18976537192E+01 -0.47953448568E+00  0.30911459117E+01  0.00000000000E+00 0.  1.
</event>
<event>
 7    1  0.2973028E-011  0.5052886E+02  0.7816164E-02  0.1300439E+00
        -11   -1    0    0    0    0  0.00000000000E+00  0.00000000000E+00  0.45593999997E+02  0.45594000000E+02  0.51100000000E-03 0.  1.
         11   -1    0    0    0    0 -0.00000000000E+00 -0.00000000000E+00 -0.45593999997E+02  0.45594000000E+02  0.51100000000E-03 0. -1.
    9900012    2    1    2    0    0 -0.14107595062E+02  0.34888027137E+02 -0.15393730668E+02  0.50528860563E+02  0.30000002166E+02 0.  0.
         12    1    1    2    0    0  0.14107595062E+02 -0.34888027137E+02  0.15393730668E+02  0.40659139437E+02  0.00000000000E+00 0. -1.
         11    1    3    3    0    0 -0.15624047359E+02  0.29148208138E+02 -0.18924018725E+02  0.38103115076E+02  0.51100000000E-03 0. -1.
        -11    1    3    3    0    0  0.12961369108E+01  0.85322143879E+01  0.41202513992E+01  0.95632172989E+01  0.51100000000E-03 0.  1.
         12    1    3    3    0    0  0.22031538684E+00 -0.27923953894E+01 -0.58996334233E+00  0.28625281877E+01  0.00000000000E+00 0. -1.
</event>
<event>
 7    1  0.2973028E-011  0.5052885E+02  0.7816164E-02  0.1300439E+00
        -11   -1    0    0    0    0  0.00000000000E+00  0.00000000000E+00  0.45593999997E+02  0.45594000000E+02  0.51100000000E-03 0. -1.
         11   -1    0    0    0    0 -0.00000000000E+00 -0.00000000000E+00 -0.45593999997E+02  0.45594000000E+02  0.51100000000E-03 0.  1.
    9900012    2    1    2    0    0 -0.39564296492E+02 -0.85819925257E+01 -0.37659143746E+01  0.50528852644E+02  0.29999978098E+02 0.  0.
         12    1    1    2    0    0  0.39564296492E+02  0.85819925257E+01  0.37659143746E+01  0.40659147356E+02  0.00000000000E+00 0. -1.
         11    1    3    3    0    0 -0.16436953133E+02 -0.17973721940E+02 -0.16451102890E+01  0.24411769636E+02  0.51100000000E-03 0. -1.
        -11    1    3    3    0    0 -0.55227655842E+01  0.48773119031E+01 -0.29192902227E+01  0.79253622481E+01  0.51100000000E-03 0.  1.
         12    1    3    3    0    0 -0.17604577775E+02  0.45144175107E+01  0.79848613711E+00  0.18191720760E+02  0.00000000000E+00 0. -1.
</event>
<event>
 7    1  0.2973028E-011  0.5052888E+02  0.7816164E-02  0.1300439E+00
        -11   -1    0    0    0    0  0.00000000000E+00  0.00000000000E+00  0.45593999997E+02  0.45594000000E+02  0.51100000000E-03 0.  1.
         11   -1    0    0    0    0 -0.00000000000E+00 -0.00000000000E+00 -0.45593999997E+02  0.45594000000E+02  0.51100000000E-03 0. -1.
    9900012    2    1    2    0    0 -0.16511318113E+02  0.66331021932E+01  0.36558757478E+02  0.50528875331E+02  0.30000047056E+02 0.  0.
         12    1    1    2    0    0  0.16511318113E+02 -0.66331021932E+01 -0.36558757478E+02  0.40659124669E+02  0.00000000000E+00 0. -1.
         11    1    3    3    0    0  0.50067211777E+01  0.37431907345E+01  0.18466958679E+01  0.65183602015E+01  0.51100000000E-03 0.  1.
        -11    1    3    3    0    0 -0.16981694019E+02 -0.43612063585E+01  0.17402941564E+02  0.24703449719E+02  0.51100000000E-03 0. -1.
        -12    1    3    3    0    0 -0.45363452720E+01  0.72511178171E+01  0.17309120045E+02  0.19307065411E+02  0.00000000000E+00 0.  1.
</event>
<event>
 7    1  0.2973028E-011  0.5052887E+02  0.7816164E-02  0.1300439E+00
        -11   -1    0    0    0    0  0.00000000000E+00  0.00000000000E+00  0.45593999997E+02  0.45594000000E+02  0.51100000000E-03 0.  1.
         11   -1    0    0    0    0 -0.00000000000E+00 -0.00000000000E+00 -0.45593999997E+02  0.45594000000E+02  0.51100000000E-03 0. -1.
    9900012    2    1    2    0    0  0.37969967532E+02  0.67528227950E+01 -0.12878119839E+02  0.50528867931E+02  0.30000024562E+02 0.  0.
         12    1    1    2    0    0 -0.37969967532E+02 -0.67528227950E+01  0.12878119839E+02  0.40659132069E+02  0.00000000000E+00 0. -1.
         11    1    3    3    0    0  0.28335545699E+02 -0.81434390085E+01 -0.48298888835E+01  0.29875518001E+02  0.51100000000E-03 0. -1.
        -11    1    3    3    0    0  0.87690377827E+01  0.78813882324E+01 -0.63186516987E+01  0.13376758339E+02  0.51100000000E-03 0.  1.
         12    1    3    3    0    0  0.86538405005E+00  0.70148735711E+01 -0.17295792567E+01  0.72765915907E+01  0.00000000000E+00 0. -1.
</event>
<event>
 7    1  0.2973028E-011  0.5052896E+02  0.7816164E-02  0.1300438E+00
        -11   -1    0    0    0    0  0.00000000000E+00  0.00000000000E+00  0.45593999997E+02  0.45594000000E+02  0.51100000000E-03 0.  1.
         11   -1    0    0    0    0 -0.00000000000E+00 -0.00000000000E+00 -0.45593999997E+02  0.45594000000E+02  0.51100000000E-03 0. -1.
    9900012    2    1    2    0    0  0.36342782800E+02 -0.14516794333E+02  0.11028270771E+02  0.50528955058E+02  0.30000289394E+02 0.  0.
         12    1    1    2    0    0 -0.36342782800E+02  0.14516794333E+02 -0.11028270771E+02  0.40659044942E+02  0.00000000000E+00 0. -1.
         11    1    3    3    0    0  0.19635544596E+02 -0.60707852487E+01  0.90803667781E+00  0.20572641444E+02  0.51100000000E-03 0. -1.
        -11    1    3    3    0    0  0.98019999388E+01 -0.83834183183E+01  0.16233419528E+02  0.20733663818E+02  0.51100000000E-03 0.  1.
        -12    1    3    3    0    0  0.69052382650E+01 -0.62590766468E-01 -0.61131854348E+01  0.92226497961E+01  0.00000000000E+00 0.  1.
</event>
<event>
 7    1  0.2973028E-011  0.5052886E+02  0.7816164E-02  0.1300439E+00
        -11   -1    0    0    0    0  0.00000000000E+00  0.00000000000E+00  0.45593999997E+02  0.45594000000E+02  0.51100000000E-03 0. -1.
         11   -1    0    0    0    0 -0.00000000000E+00 -0.00000000000E+00 -0.45593999997E+02  0.45594000000E+02  0.51100000000E-03 0.  1.
    9900012    2    1    2    0    0  0.26373880733E+02 -0.10793368110E+02 -0.29001504916E+02  0.50528859976E+02  0.30000000384E+02 0.  0.
         12    1    1    2    0    0 -0.26373880733E+02  0.10793368110E+02  0.29001504916E+02  0.40659140024E+02  0.00000000000E+00 0. -1.
         11    1    3    3    0    0  0.63026866403E+01 -0.10660542680E+02 -0.15128054543E+02  0.19550679365E+02  0.51100000000E-03 0. -1.
        -11    1    3    3    0    0  0.17812416003E+02  0.20486015102E+01 -0.12536988582E+01  0.17973611020E+02  0.51100000000E-03 0.  1.
        -12    1    3    3    0    0  0.22587780893E+01 -0.21814269407E+01 -0.12619751515E+02  0.13004569591E+02  0.00000000000E+00 0.  1.
</event>
<event>
 7    1  0.2973028E-011  0.5052885E+02  0.7816164E-02  0.1300439E+00
        -11   -1    0    0    0    0  0.00000000000E+00  0.00000000000E+00  0.45593999997E+02  0.45594000000E+02  0.51100000000E-03 0.  1.
         11   -1    0    0    0    0 -0.00000000000E+00 -0.00000000000E+00 -0.45593999997E+02  0.45594000000E+02  0.51100000000E-03 0. -1.
    9900012    2    1    2    0    0  0.22851834830E+02  0.94005449474E+00  0.33616613603E+02  0.50528846447E+02  0.29999959259E+02 0.  0.
         12    1    1    2    0    0 -0.22851834830E+02 -0.94005449474E+00 -0.33616613603E+02  0.40659153553E+02  0.00000000000E+00 0. -1.
         11    1    3    3    0    0  0.26133169439E+02  0.18696438893E+01  0.29487440123E+02  0.39445497062E+02  0.51100000000E-03 0. -1.
        -11    1    3    3    0    0  0.14796577184E+01 -0.37383238504E+01  0.38216934814E+01  0.55470526860E+01  0.51100000000E-03 0.  1.
         12    1    3    3    0    0 -0.47609923275E+01  0.28087344559E+01  0.30747999889E+00  0.55362966987E+01  0.00000000000E+00 0. -1.
</event>
<event>
 7    1  0.2973028E-011  0.5052888E+02  0.7816164E-02  0.1300439E+00
        -11   -1    0    0    0    0  0.00000000000E+00  0.00000000000E+00  0.45593999997E+02  0.45594000000E+02  0.51100000000E-03 0. -1.
         11   -1    0    0    0    0 -0.00000000000E+00 -0.00000000000E+00 -0.45593999997E+02  0.45594000000E+02  0.51100000000E-03 0.  1.
    9900012    2    1    2    0    0  0.24358111735E+02 -0.32444626094E+02  0.26819722842E+01  0.50528876239E+02  0.30000049815E+02 0.  0.
         12    1    1    2    0    0 -0.24358111735E+02  0.32444626094E+02 -0.26819722842E+01  0.40659123761E+02  0.00000000000E+00 0. -1.
         11    1    3    3    0    0  0.86273863158E+01 -0.37628937813E+01 -0.11159205230E+01  0.94782088564E+01  0.51100000000E-03 0. -1.
        -11    1    3    3    0    0  0.13163003268E+02 -0.16454634412E+02  0.13678420257E+02  0.25122078530E+02  0.51100000000E-03 0.  1.
        -12    1    3    3    0    0  0.25677221511E+01 -0.12227097901E+02 -0.98805274501E+01  0.15928588852E+02  0.00000000000E+00 0.  1.
</event>
<event>
 7    1  0.2973028E-011  0.5052886E+02  0.7816164E-02  0.1300439E+00
        -11   -1    0    0    0    0  0.00000000000E+00  0.00000000000E+00  0.45593999997E+02  0.45594000000E+02  0.51100000000E-03 0. -1.
         11   -1    0    0    0    0 -0.00000000000E+00 -0.00000000000E+00 -0.45593999997E+02  0.45594000000E+02  0.51100000000E-03 0.  1.
    9900012    2    1    2    0    0  0.12356356757E+02 -0.38721888523E+02 -0.10493460488E+01  0.50528864124E+02  0.30000012991E+02 0.  0.
         12    1    1    2    0    0 -0.12356356757E+02  0.38721888523E+02  0.10493460488E+01  0.40659135876E+02  0.00000000000E+00 0. -1.
         11    1    3    3    0    0  0.12304582716E+02 -0.79395896058E+01 -0.15031582283E+00  0.14644535978E+02  0.51100000000E-03 0. -1.
        -11    1    3    3    0    0 -0.59051815532E+00 -0.31870172943E+02  0.27778631901E+01  0.31996455417E+02  0.51100000000E-03 0.  1.
        -12    1    3    3    0    0  0.64229219633E+00  0.10878740258E+01 -0.36768934161E+01  0.38878727287E+01  0.00000000000E+00 0.  1.
</event>
<event>
 7    1  0.2973028E-011  0.5052886E+02  0.7816164E-02  0.1300439E+00
        -11   -1    0    0    0    0  0.00000000000E+00  0.00000000000E+00  0.45593999997E+02  0.45594000000E+02  0.51100000000E-03 0.  1.
         11   -1    0    0    0    0 -0.00000000000E+00 -0.00000000000E+00 -0.45593999997E+02  0.45594000000E+02  0.51100000000E-03 0. -1.
    9900012    2    1    2    0    0 -0.25847430532E+02  0.34966389900E+01  0.31190536132E+02  0.50528859656E+02  0.29999999410E+02 0.  0.
         12    1    1    2    0    0  0.25847430532E+02 -0.34966389900E+01 -0.31190536132E+02  0.40659140344E+02  0.00000000000E+00 0. -1.
         11    1    3    3    0    0 -0.10936396174E+02 -0.12594314846E+02  0.12426371219E+02  0.20799909366E+02  0.51100000000E-03 0. -1.
        -11    1    3    3    0    0 -0.65014323645E+01  0.22810981795E+01  0.55709287496E+01  0.88604333465E+01  0.51100000000E-03 0.  1.
         12    1    3    3    0    0 -0.84096019937E+01  0.13809855657E+02  0.13193236163E+02  0.20868516943E+02  0.00000000000E+00 0. -1.
</event>
<event>
 7    1  0.2973028E-011  0.5052886E+02  0.7816164E-02  0.1300439E+00
        -11   -1    0    0    0    0  0.00000000000E+00  0.00000000000E+00  0.45593999997E+02  0.45594000000E+02  0.51100000000E-03 0. -1.
         11   -1    0    0    0    0 -0.00000000000E+00 -0.00000000000E+00 -0.45593999997E+02  0.45594000000E+02  0.51100000000E-03 0.  1.
    9900012    2    1    2    0    0 -0.88748074699E+01 -0.37370268656E+02  0.13336656827E+02  0.50528860777E+02  0.30000002816E+02 0.  0.
         12    1    1    2    0    0  0.88748074699E+01  0.37370268656E+02 -0.13336656827E+02  0.40659139223E+02  0.00000000000E+00 0. -1.
         11    1    3    3    0    0 -0.12544011396E+02 -0.32744494104E+02  0.57156548222E+01  0.35527775421E+02  0.51100000000E-03 0. -1.
        -11    1    3    3    0    0  0.45454965123E+01 -0.79943172557E+01  0.67656829483E+01  0.11416878424E+02  0.51100000000E-03 0.  1.
         12    1    3    3    0    0 -0.87629258597E+00  0.33685427036E+01  0.85531905648E+00  0.35842069318E+01  0.00000000000E+00 0. -1.
</event>
<event>
 7    1  0.2973028E-011  0.5052886E+02  0.7816164E-02  0.1300439E+00
        -11   -1    0    0    0    0  0.00000000000E+00  0.00000000000E+00  0.45593999997E+02  0.45594000000E+02  0.51100000000E-03 0.  1.
         11   -1    0    0    0    0 -0.00000000000E+00 -0.00000000000E+00 -0.45593999997E+02  0.45594000000E+02  0.51100000000E-03 0. -1.
    9900012    2    1    2    0    0  0.32817337512E+02  0.14890880141E+01  0.23957685822E+02  0.50528859153E+02  0.29999997881E+02 0.  0.
         12    1    1    2    0    0 -0.32817337512E+02 -0.14890880141E+01 -0.23957685822E+02  0.40659140847E+02  0.00000000000E+00 0. -1.
         11    1    3    3    0    0 -0.32343082135E+01  0.57878027634E+01  0.42162950063E+01  0.78572612461E+01  0.51100000000E-03 0. -1.
        -11    1    3    3    0    0  0.76219567240E+01  0.11615560710E+00  0.93923163695E+01  0.12096417795E+02  0.51100000000E-03 0.  1.
         12    1    3    3    0    0  0.28429689001E+02 -0.44148703564E+01  0.10349074446E+02  0.30575180112E+02  0.00000000000E+00 0. -1.
</event>
<event>
 7    1  0.2973028E-011  0.5052886E+02  0.7816164E-02  0.1300439E+00
        -11   -1    0    0    0    0  0.00000000000E+00  0.00000000000E+00  0.45593999997E+02  0.45594000000E+02  0.51100000000E-03 0.  1.
         11   -1    0    0    0    0 -0.00000000000E+00 -0.00000000000E+00 -0.45593999997E+02  0.45594000000E+02  0.51100000000E-03 0. -1.
    9900012    2    1    2    0    0  0.69700595260E+01 -0.27778007867E+02  0.28861155267E+02  0.50528859156E+02  0.29999997889E+02 0.  0.
         12    1    1    2    0    0 -0.69700595260E+01  0.27778007867E+02 -0.28861155267E+02  0.40659140844E+02  0.00000000000E+00 0. -1.
         11    1    3    3    0    0  0.11381023416E+02 -0.12398670443E+02  0.32796440473E+01  0.17146742784E+02  0.51100000000E-03 0. -1.
        -11    1    3    3    0    0 -0.43721819750E+01  0.14524672569E+01  0.51394837326E+01  0.69021684748E+01  0.51100000000E-03 0.  1.
         12    1    3    3    0    0 -0.38781915154E-01 -0.16831804682E+02  0.20442027487E+02  0.26479947897E+02  0.00000000000E+00 0. -1.
</event>
<event>
 7    1  0.2973028E-011  0.5052887E+02  0.7816164E-02  0.1300439E+00
        -11   -1    0    0    0    0  0.00000000000E+00  0.00000000000E+00  0.45593999997E+02  0.45594000000E+02  0.51100000000E-03 0.  1.
         11   -1    0    0    0    0 -0.00000000000E+00 -0.00000000000E+00 -0.45593999997E+02  0.45594000000E+02  0.51100000000E-03 0. -1.
    9900012    2    1    2    0    0  0.27614023557E+02  0.23265282268E+02  0.18691099598E+02  0.50528869903E+02  0.30000030559E+02 0.  0.
         12    1    1    2    0    0 -0.27614023557E+02 -0.23265282268E+02 -0.18691099598E+02  0.40659130097E+02  0.00000000000E+00 0. -1.
         11    1    3    3    0    0  0.54844954498E+01  0.10743042387E+02  0.21148179961E+02  0.24346214614E+02  0.51100000000E-03 0. -1.
        -11    1    3    3    0    0  0.20696315121E+02  0.10906759404E+02 -0.37088414531E+01  0.23686501757E+02  0.51100000000E-03 0.  1.
        -12    1    3    3    0    0  0.14332129860E+01  0.16154804769E+01  0.12517610901E+01  0.24961535331E+01  0.00000000000E+00 0.  1.
</event>
<event>
 7    1  0.2973028E-011  0.5052885E+02  0.7816164E-02  0.1300439E+00
        -11   -1    0    0    0    0  0.00000000000E+00  0.00000000000E+00  0.45593999997E+02  0.45594000000E+02  0.51100000000E-03 0.  1.
         11   -1    0    0    0    0 -0.00000000000E+00 -0.00000000000E+00 -0.45593999997E+02  0.45594000000E+02  0.51100000000E-03 0. -1.
    9900012    2    1    2    0    0  0.44361286412E+00  0.10711313467E+02  0.39220367662E+02  0.50528852590E+02  0.29999977934E+02 0.  0.
         12    1    1    2    0    0 -0.44361286412E+00 -0.10711313467E+02 -0.39220367662E+02  0.40659147410E+02  0.00000000000E+00 0. -1.
         11    1    3    3    0    0  0.12700972192E+02  0.63388696451E+01  0.25043836395E+02  0.28786971092E+02  0.51100000000E-03 0. -1.
        -11    1    3    3    0    0 -0.91113814100E+01  0.66082706177E+01  0.13881211305E+02  0.17871053111E+02  0.51100000000E-03 0.  1.
         12    1    3    3    0    0 -0.31459779181E+01 -0.22358267956E+01  0.29531996148E+00  0.38708283869E+01  0.00000000000E+00 0. -1.
</event>
<event>
 7    1  0.2973028E-011  0.5052886E+02  0.7816164E-02  0.1300439E+00
        -11   -1    0    0    0    0  0.00000000000E+00  0.00000000000E+00  0.45593999997E+02  0.45594000000E+02  0.51100000000E-03 0.  1.
         11   -1    0    0    0    0 -0.00000000000E+00 -0.00000000000E+00 -0.45593999997E+02  0.45594000000E+02  0.51100000000E-03 0. -1.
    9900012    2    1    2    0    0  0.85035069926E+00 -0.37188003586E+02  0.16416290639E+02  0.50528864429E+02  0.30000013918E+02 0.  0.
         12    1    1    2    0    0 -0.85035069926E+00  0.37188003586E+02 -0.16416290639E+02  0.40659135571E+02  0.00000000000E+00 0. -1.
         11    1    3    3    0    0  0.22454974271E+01 -0.26086469063E+02  0.11927796757E+01  0.26210090624E+02  0.51100000000E-03 0. -1.
        -11    1    3    3    0    0 -0.79953421329E+01 -0.49775234425E+01  0.48863104935E+01  0.10610243444E+02  0.51100000000E-03 0.  1.
         12    1    3    3    0    0  0.66001954051E+01 -0.61240110805E+01  0.10337200470E+02  0.13708530361E+02  0.00000000000E+00 0. -1.
</event>
<event>
 7    1  0.2973028E-011  0.5052884E+02  0.7816164E-02  0.1300439E+00
        -11   -1    0    0    0    0  0.00000000000E+00  0.00000000000E+00  0.45593999997E+02  0.45594000000E+02  0.51100000000E-03 0.  1.
         11   -1    0    0    0    0 -0.00000000000E+00 -0.00000000000E+00 -0.45593999997E+02  0.45594000000E+02  0.51100000000E-03 0. -1.
    9900012    2    1    2    0    0 -0.45232398394E+01  0.72959447430E+00  0.40400185430E+02  0.50528843718E+02  0.29999950966E+02 0.  0.
         12    1    1    2    0    0  0.45232398394E+01 -0.72959447430E+00 -0.40400185430E+02  0.40659156282E+02  0.00000000000E+00 0. -1.
         11    1    3    3    0    0 -0.12793690140E+02 -0.25541179959E+01  0.24741773681E+02  0.27970652321E+02  0.51100000000E-03 0. -1.
        -11    1    3    3    0    0  0.82974561347E+01  0.53003255016E+01  0.17334692488E+02  0.19935716507E+02  0.51100000000E-03 0.  1.
         12    1    3    3    0    0 -0.27005833873E-01 -0.20166130314E+01 -0.16762807387E+01  0.26224748899E+01  0.00000000000E+00 0. -1.
</event>
<event>
 7    1  0.2973028E-011  0.5052886E+02  0.7816164E-02  0.1300439E+00
        -11   -1    0    0    0    0  0.00000000000E+00  0.00000000000E+00  0.45593999997E+02  0.45594000000E+02  0.51100000000E-03 0. -1.
         11   -1    0    0    0    0 -0.00000000000E+00 -0.00000000000E+00 -0.45593999997E+02  0.45594000000E+02  0.51100000000E-03 0.  1.
    9900012    2    1    2    0    0  0.26222158948E+02  0.30345369471E+02 -0.66874965823E+01  0.50528859837E+02  0.29999999961E+02 0.  0.
         12    1    1    2    0    0 -0.26222158948E+02 -0.30345369471E+02  0.66874965823E+01  0.40659140163E+02  0.00000000000E+00 0. -1.
         11    1    3    3    0    0 -0.28150734045E+01 -0.19759738389E+01  0.56092520359E+00  0.34847881183E+01  0.51100000000E-03 0. -1.
        -11    1    3    3    0    0  0.14840345155E+02  0.16815317881E+02  0.46249938469E+01  0.22899373967E+02  0.51100000000E-03 0.  1.
         12    1    3    3    0    0  0.14196887198E+02  0.15506025429E+02 -0.11873415633E+02  0.24144697751E+02  0.00000000000E+00 0. -1.
</event>
<event>
 7    1  0.2973028E-011  0.5052883E+02  0.7816164E-02  0.1300439E+00
        -11   -1    0    0    0    0  0.00000000000E+00  0.00000000000E+00  0.45593999997E+02  0.45594000000E+02  0.51100000000E-03 0.  1.
         11   -1    0    0    0    0 -0.00000000000E+00 -0.00000000000E+00 -0.45593999997E+02  0.45594000000E+02  0.51100000000E-03 0. -1.
    9900012    2    1    2    0    0 -0.36053888877E+02 -0.15966239404E+02  0.99178819493E+01  0.50528830232E+02  0.29999909974E+02 0.  0.
         12    1    1    2    0    0  0.36053888877E+02  0.15966239404E+02 -0.99178819493E+01  0.40659169768E+02  0.00000000000E+00 0. -1.
         11    1    3    3    0    0 -0.30703393808E+02  0.48755091166E+00  0.14980263586E+01  0.30743782793E+02  0.51100000000E-03 0. -1.
        -11    1    3    3    0    0 -0.10577347250E+01 -0.99520935772E+01  0.36672975382E+01  0.10658894915E+02  0.51100000000E-03 0.  1.
         12    1    3    3    0    0 -0.42927603443E+01 -0.65016967383E+01  0.47525580525E+01  0.91261525241E+01  0.00000000000E+00 0. -1.
</event>
<event>
 7    1  0.2973028E-011  0.5052888E+02  0.7816164E-02  0.1300439E+00
        -11   -1    0    0    0    0  0.00000000000E+00  0.00000000000E+00  0.45593999997E+02  0.45594000000E+02  0.51100000000E-03 0.  1.
         11   -1    0    0    0    0 -0.00000000000E+00 -0.00000000000E+00 -0.45593999997E+02  0.45594000000E+02  0.51100000000E-03 0. -1.
    9900012    2    1    2    0    0 -0.17351267360E+02 -0.55892128816E+01  0.36343614729E+02  0.50528879114E+02  0.30000058555E+02 0.  0.
         12    1    1    2    0    0  0.17351267360E+02  0.55892128816E+01 -0.36343614729E+02  0.40659120886E+02  0.00000000000E+00 0. -1.
         11    1    3    3    0    0 -0.75805424221E+01 -0.80587572156E+01  0.16546971492E+02  0.19905035973E+02  0.51100000000E-03 0. -1.
        -11    1    3    3    0    0 -0.64984214482E+01  0.11799073677E+02  0.11025960418E+02  0.17407453127E+02  0.51100000000E-03 0.  1.
        -12    1    3    3    0    0 -0.32723034895E+01 -0.93295293432E+01  0.87706828184E+01  0.13216390014E+02  0.00000000000E+00 0.  1.
</event>
<event>
 7    1  0.2973028E-011  0.5052886E+02  0.7816164E-02  0.1300439E+00
        -11   -1    0    0    0    0  0.00000000000E+00  0.00000000000E+00  0.45593999997E+02  0.45594000000E+02  0.51100000000E-03 0.  1.
         11   -1    0    0    0    0 -0.00000000000E+00 -0.00000000000E+00 -0.45593999997E+02  0.45594000000E+02  0.51100000000E-03 0. -1.
    9900012    2    1    2    0    0  0.35893549839E+01 -0.39111652432E+02  0.10514806705E+02  0.50528856069E+02  0.29999988507E+02 0.  0.
         12    1    1    2    0    0 -0.35893549839E+01  0.39111652432E+02 -0.10514806705E+02  0.40659143931E+02  0.00000000000E+00 0. -1.
         11    1    3    3    0    0  0.63826873500E+01 -0.10212367874E+02  0.73313772213E+01  0.14098944912E+02  0.51100000000E-03 0. -1.
        -11    1    3    3    0    0 -0.17018567053E+01  0.37742655006E-01 -0.58526781767E+01  0.60952098286E+01  0.51100000000E-03 0.  1.
        -12    1    3    3    0    0 -0.10914756608E+01 -0.28937027213E+02  0.90361076601E+01  0.30334701329E+02  0.00000000000E+00 0.  1.
</event>
<event>
 7    1  0.2973028E-011  0.5052886E+02  0.7816164E-02  0.1300439E+00
        -11   -1    0    0    0    0  0.00000000000E+00  0.00000000000E+00  0.45593999997E+02  0.45594000000E+02  0.51100000000E-03 0.  1.
         11   -1    0    0    0    0 -0.00000000000E+00 -0.00000000000E+00 -0.45593999997E+02  0.45594000000E+02  0.51100000000E-03 0. -1.
    9900012    2    1    2    0    0 -0.39602908181E+01  0.40406484363E+02  0.21903913387E+01  0.50528859623E+02  0.29999999311E+02 0.  0.
         12    1    1    2    0    0  0.39602908181E+01 -0.40406484363E+02 -0.21903913387E+01  0.40659140377E+02  0.00000000000E+00 0. -1.
         11    1    3    3    0    0 -0.23224502772E+01  0.18542355163E+00 -0.71740902663E+01  0.75429257317E+01  0.51100000000E-03 0. -1.
        -11    1    3    3    0    0  0.35785980704E+01  0.31471185684E+02  0.58486467974E+01  0.32209448336E+02  0.51100000000E-03 0.  1.
         12    1    3    3    0    0 -0.52164386113E+01  0.87498751280E+01  0.35158348076E+01  0.10776485556E+02  0.00000000000E+00 0. -1.
</event>
<event>
 7    1  0.2973028E-011  0.5052886E+02  0.7816164E-02  0.1300439E+00
        -11   -1    0    0    0    0  0.00000000000E+00  0.00000000000E+00  0.45593999997E+02  0.45594000000E+02  0.51100000000E-03 0.  1.
         11   -1    0    0    0    0 -0.00000000000E+00 -0.00000000000E+00 -0.45593999997E+02  0.45594000000E+02  0.51100000000E-03 0. -1.
    9900012    2    1    2    0    0 -0.13272400921E+02 -0.16594180131E+02  0.34664711897E+02  0.50528859683E+02  0.29999999493E+02 0.  0.
         12    1    1    2    0    0  0.13272400921E+02  0.16594180131E+02 -0.34664711897E+02  0.40659140317E+02  0.00000000000E+00 0. -1.
         11    1    3    3    0    0 -0.51569664422E+00 -0.10506528127E+02  0.58005962981E+01  0.12012493246E+02  0.51100000000E-03 0. -1.
        -11    1    3    3    0    0 -0.16938743665E+02 -0.30435249212E+01  0.12273770308E+02  0.21138342383E+02  0.51100000000E-03 0.  1.
        -12    1    3    3    0    0  0.41820393880E+01 -0.30441270819E+01  0.16590345291E+02  0.17378024053E+02  0.00000000000E+00 0.  1.
</event>
<event>
 7    1  0.2973028E-011  0.5052887E+02  0.7816164E-02  0.1300439E+00
        -11   -1    0    0    0    0  0.00000000000E+00  0.00000000000E+00  0.45593999997E+02  0.45594000000E+02  0.51100000000E-03 0.  1.
         11   -1    0    0    0    0 -0.00000000000E+00 -0.00000000000E+00 -0.45593999997E+02  0.45594000000E+02  0.51100000000E-03 0. -1.
    9900012    2    1    2    0    0  0.18340143785E+01 -0.37379552534E+02  0.15892472645E+02  0.50528865195E+02  0.30000016246E+02 0.  0.
         12    1    1    2    0    0 -0.18340143785E+01  0.37379552534E+02 -0.15892472645E+02  0.40659134805E+02  0.00000000000E+00 0. -1.
         11    1    3    3    0    0 -0.66746989064E+01 -0.11109807930E+01  0.33796886683E+01  0.75636088985E+01  0.51100000000E-03 0. -1.
        -11    1    3    3    0    0  0.11510686674E+02 -0.29299611138E+02  0.42803806015E+01  0.31769242656E+02  0.51100000000E-03 0.  1.
         12    1    3    3    0    0 -0.30019733893E+01 -0.69689606025E+01  0.82324033751E+01  0.11196013641E+02  0.00000000000E+00 0. -1.
</event>
<event>
 7    1  0.2973028E-011  0.5052889E+02  0.7816164E-02  0.1300439E+00
        -11   -1    0    0    0    0  0.00000000000E+00  0.00000000000E+00  0.45593999997E+02  0.45594000000E+02  0.51100000000E-03 0.  1.
         11   -1    0    0    0    0 -0.00000000000E+00 -0.00000000000E+00 -0.45593999997E+02  0.45594000000E+02  0.51100000000E-03 0. -1.
    9900012    2    1    2    0    0 -0.19713043386E+02 -0.64420638426E+01  0.34972260358E+02  0.50528889574E+02  0.30000090349E+02 0.  0.
         12    1    1    2    0    0  0.19713043386E+02  0.64420638426E+01 -0.34972260358E+02  0.40659110426E+02  0.00000000000E+00 0. -1.
         11    1    3    3    0    0 -0.71890755756E+01  0.87755838053E+01  0.10500108640E+02  0.15457876971E+02  0.51100000000E-03 0.  1.
        -11    1    3    3    0    0 -0.70976021571E+01 -0.81768889027E+01  0.21431886009E+01  0.11037695690E+02  0.51100000000E-03 0. -1.
         12    1    3    3    0    0 -0.54263656529E+01 -0.70407587452E+01  0.22328963118E+02  0.24033316913E+02  0.00000000000E+00 0. -1.
</event>
<event>
 7    1  0.2973028E-011  0.5052886E+02  0.7816164E-02  0.1300439E+00
        -11   -1    0    0    0    0  0.00000000000E+00  0.00000000000E+00  0.45593999997E+02  0.45594000000E+02  0.51100000000E-03 0.  1.
         11   -1    0    0    0    0 -0.00000000000E+00 -0.00000000000E+00 -0.45593999997E+02  0.45594000000E+02  0.51100000000E-03 0. -1.
    9900012    2    1    2    0    0 -0.40106211765E+02 -0.66593764514E+01 -0.55709720384E+00  0.50528857435E+02  0.29999992658E+02 0.  0.
         12    1    1    2    0    0  0.40106211765E+02  0.66593764514E+01  0.55709720384E+00  0.40659142565E+02  0.00000000000E+00 0. -1.
         11    1    3    3    0    0 -0.13757258957E+02  0.91573963928E+01  0.68323917796E+00  0.16540462470E+02  0.51100000000E-03 0.  1.
        -11    1    3    3    0    0 -0.21134475768E+02 -0.16494104299E+02 -0.53216617295E+01  0.27332062242E+02  0.51100000000E-03 0. -1.
         12    1    3    3    0    0 -0.52144770405E+01  0.67733145490E+00  0.40813253478E+01  0.66563327216E+01  0.00000000000E+00 0. -1.
</event>
<event>
 7    1  0.2973028E-011  0.5052886E+02  0.7816164E-02  0.1300439E+00
        -11   -1    0    0    0    0  0.00000000000E+00  0.00000000000E+00  0.45593999997E+02  0.45594000000E+02  0.51100000000E-03 0.  1.
         11   -1    0    0    0    0 -0.00000000000E+00 -0.00000000000E+00 -0.45593999997E+02  0.45594000000E+02  0.51100000000E-03 0. -1.
    9900012    2    1    2    0    0 -0.41319667280E+01  0.14601583770E+02  0.37721167293E+02  0.50528857613E+02  0.29999993202E+02 0.  0.
         12    1    1    2    0    0  0.41319667280E+01 -0.14601583770E+02 -0.37721167293E+02  0.40659142387E+02  0.00000000000E+00 0. -1.
         11    1    3    3    0    0 -0.57230933790E+01 -0.47993986512E+01  0.12631724795E+02  0.14674757129E+02  0.51100000000E-03 0. -1.
        -11    1    3    3    0    0  0.65618707793E+01  0.64834651552E+01  0.18175524385E+02  0.20382422709E+02  0.51100000000E-03 0.  1.
        -12    1    3    3    0    0 -0.49707441283E+01  0.12917517266E+02  0.69139181125E+01  0.15471677775E+02  0.00000000000E+00 0.  1.
</event>
<event>
 7    1  0.2973028E-011  0.5052887E+02  0.7816164E-02  0.1300439E+00
        -11   -1    0    0    0    0  0.00000000000E+00  0.00000000000E+00  0.45593999997E+02  0.45594000000E+02  0.51100000000E-03 0.  1.
         11   -1    0    0    0    0 -0.00000000000E+00 -0.00000000000E+00 -0.45593999997E+02  0.45594000000E+02  0.51100000000E-03 0. -1.
    9900012    2    1    2    0    0  0.11520577877E+02 -0.38899349090E+02  0.26984995459E+01  0.50528868503E+02  0.30000026303E+02 0.  0.
         12    1    1    2    0    0 -0.11520577877E+02  0.38899349090E+02 -0.26984995459E+01  0.40659131497E+02  0.00000000000E+00 0. -1.
         11    1    3    3    0    0 -0.34912921406E+01  0.49261252274E+00  0.31042488443E+01  0.46976748565E+01  0.51100000000E-03 0. -1.
        -11    1    3    3    0    0  0.14068620753E+02 -0.26422613636E+02  0.71705906621E+01  0.30781455001E+02  0.51100000000E-03 0.  1.
        -12    1    3    3    0    0  0.94324926449E+00 -0.12969347977E+02 -0.75763399605E+01  0.15049738646E+02  0.00000000000E+00 0.  1.
</event>
<event>
 7    1  0.2973028E-011  0.5052887E+02  0.7816164E-02  0.1300439E+00
        -11   -1    0    0    0    0  0.00000000000E+00  0.00000000000E+00  0.45593999997E+02  0.45594000000E+02  0.51100000000E-03 0.  1.
         11   -1    0    0    0    0 -0.00000000000E+00 -0.00000000000E+00 -0.45593999997E+02  0.45594000000E+02  0.51100000000E-03 0. -1.
    9900012    2    1    2    0    0  0.38213743145E+02 -0.25740858074E+01  0.13647305980E+02  0.50528867651E+02  0.30000023712E+02 0.  0.
         12    1    1    2    0    0 -0.38213743145E+02  0.25740858074E+01 -0.13647305980E+02  0.40659132349E+02  0.00000000000E+00 0. -1.
         11    1    3    3    0    0  0.41382828579E+02 -0.18678630352E-01  0.16602942941E+02  0.44589197847E+02  0.51100000000E-03 0. -1.
        -11    1    3    3    0    0 -0.17093618588E+01 -0.24177171091E+01 -0.39257693607E+00  0.29868697487E+01  0.51100000000E-03 0.  1.
         12    1    3    3    0    0 -0.14597235758E+01 -0.13769006795E+00 -0.25630600248E+01  0.29528000548E+01  0.00000000000E+00 0. -1.
</event>
<event>
 7    1  0.2973028E-011  0.5052884E+02  0.7816164E-02  0.1300439E+00
        -11   -1    0    0    0    0  0.00000000000E+00  0.00000000000E+00  0.45593999997E+02  0.45594000000E+02  0.51100000000E-03 0.  1.
         11   -1    0    0    0    0 -0.00000000000E+00 -0.00000000000E+00 -0.45593999997E+02  0.45594000000E+02  0.51100000000E-03 0. -1.
    9900012    2    1    2    0    0  0.30076979000E+02 -0.22518398688E+02  0.15539114395E+02  0.50528843326E+02  0.29999949775E+02 0.  0.
         12    1    1    2    0    0 -0.30076979000E+02  0.22518398688E+02 -0.15539114395E+02  0.40659156674E+02  0.00000000000E+00 0. -1.
         11    1    3    3    0    0  0.13651635447E+02  0.27977018775E+00 -0.26488430957E+01  0.13909054308E+02  0.51100000000E-03 0. -1.
        -11    1    3    3    0    0  0.15659977500E+02 -0.22989443857E+02  0.11853922075E+02  0.30236813539E+02  0.51100000000E-03 0.  1.
         12    1    3    3    0    0  0.76536605233E+00  0.19127498191E+00  0.63340354164E+01  0.63829754792E+01  0.00000000000E+00 0. -1.
</event>
<event>
 7    1  0.2973028E-011  0.5052885E+02  0.7816164E-02  0.1300439E+00
        -11   -1    0    0    0    0  0.00000000000E+00  0.00000000000E+00  0.45593999997E+02  0.45594000000E+02  0.51100000000E-03 0.  1.
         11   -1    0    0    0    0 -0.00000000000E+00 -0.00000000000E+00 -0.45593999997E+02  0.45594000000E+02  0.51100000000E-03 0. -1.
    9900012    2    1    2    0    0  0.69381811453E+01 -0.99549059433E+01  0.38806284115E+02  0.50528853468E+02  0.29999980601E+02 0.  0.
         12    1    1    2    0    0 -0.69381811453E+01  0.99549059433E+01 -0.38806284115E+02  0.40659146532E+02  0.00000000000E+00 0. -1.
         11    1    3    3    0    0 -0.18043984615E+01 -0.16352739412E+01 -0.36413761856E+01  0.43805930485E+01  0.51100000000E-03 0. -1.
        -11    1    3    3    0    0  0.90397910449E+01 -0.22868088305E+01  0.36496698535E+02  0.37669036635E+02  0.51100000000E-03 0.  1.
        -12    1    3    3    0    0 -0.29721143800E+00 -0.60328231717E+01  0.59509617651E+01  0.84792237846E+01  0.00000000000E+00 0.  1.
</event>
<event>
 7    1  0.2973028E-011  0.5052887E+02  0.7816164E-02  0.1300439E+00
        -11   -1    0    0    0    0  0.00000000000E+00  0.00000000000E+00  0.45593999997E+02  0.45594000000E+02  0.51100000000E-03 0.  1.
         11   -1    0    0    0    0 -0.00000000000E+00 -0.00000000000E+00 -0.45593999997E+02  0.45594000000E+02  0.51100000000E-03 0. -1.
    9900012    2    1    2    0    0 -0.18545336263E+02  0.47963713336E+01  0.35864051978E+02  0.50528869422E+02  0.30000029095E+02 0.  0.
         12    1    1    2    0    0  0.18545336263E+02 -0.47963713336E+01 -0.35864051978E+02  0.40659130578E+02  0.00000000000E+00 0. -1.
         11    1    3    3    0    0 -0.50659536308E+01 -0.36880098755E+01  0.71906348060E+01  0.95378473570E+01  0.51100000000E-03 0. -1.
        -11    1    3    3    0    0  0.36041792538E+01  0.11394262896E+02  0.12305721582E+02  0.17153720266E+02  0.51100000000E-03 0.  1.
        -12    1    3    3    0    0 -0.17083561886E+02 -0.29098816872E+01  0.16367695590E+02  0.23837301799E+02  0.00000000000E+00 0.  1.
</event>
<event>
 7    1  0.2973028E-011  0.5052886E+02  0.7816164E-02  0.1300439E+00
        -11   -1    0    0    0    0  0.00000000000E+00  0.00000000000E+00  0.45593999997E+02  0.45594000000E+02  0.51100000000E-03 0. -1.
         11   -1    0    0    0    0 -0.00000000000E+00 -0.00000000000E+00 -0.45593999997E+02  0.45594000000E+02  0.51100000000E-03 0.  1.
    9900012    2    1    2    0    0  0.24145017676E+02  0.14557136585E+02 -0.29296310267E+02  0.50528857124E+02  0.29999991715E+02 0.  0.
         12    1    1    2    0    0 -0.24145017676E+02 -0.14557136585E+02  0.29296310267E+02  0.40659142876E+02  0.00000000000E+00 0. -1.
         11    1    3    3    0    0 -0.57016894242E+01  0.45028196923E+01 -0.89478355870E+01  0.11525988436E+02  0.51100000000E-03 0. -1.
        -11    1    3    3    0    0  0.21245344954E+02  0.77415777267E+01 -0.84482197888E+01  0.24138540258E+02  0.51100000000E-03 0.  1.
         12    1    3    3    0    0  0.86013621460E+01  0.23127391658E+01 -0.11900254891E+02  0.14864328431E+02  0.00000000000E+00 0. -1.
</event>
<event>
 7    1  0.2973028E-011  0.5052887E+02  0.7816164E-02  0.1300439E+00
        -11   -1    0    0    0    0  0.00000000000E+00  0.00000000000E+00  0.45593999997E+02  0.45594000000E+02  0.51100000000E-03 0.  1.
         11   -1    0    0    0    0 -0.00000000000E+00 -0.00000000000E+00 -0.45593999997E+02  0.45594000000E+02  0.51100000000E-03 0. -1.
    9900012    2    1    2    0    0 -0.29148694596E+02 -0.56985663466E+00  0.28340677488E+02  0.50528866540E+02  0.30000020335E+02 0.  0.
         12    1    1    2    0    0  0.29148694596E+02  0.56985663466E+00 -0.28340677488E+02  0.40659133460E+02  0.00000000000E+00 0. -1.
         11    1    3    3    0    0  0.47654873626E+00 -0.71431269958E+00 -0.24193815822E+01  0.25672453783E+01  0.51100000000E-03 0. -1.
        -11    1    3    3    0    0 -0.13841097779E+02 -0.81648453723E+01  0.24005666176E+02  0.28887933406E+02  0.51100000000E-03 0.  1.
        -12    1    3    3    0    0 -0.15784145553E+02  0.83093014373E+01  0.67543928947E+01  0.19073687756E+02  0.00000000000E+00 0.  1.
</event>
<event>
 7    1  0.2973028E-011  0.5052886E+02  0.7816164E-02  0.1300439E+00
        -11   -1    0    0    0    0  0.00000000000E+00  0.00000000000E+00  0.45593999997E+02  0.45594000000E+02  0.51100000000E-03 0. -1.
         11   -1    0    0    0    0 -0.00000000000E+00 -0.00000000000E+00 -0.45593999997E+02  0.45594000000E+02  0.51100000000E-03 0.  1.
    9900012    2    1    2    0    0 -0.16844250126E+02 -0.54602678091E+01 -0.36600855343E+02  0.50528857133E+02  0.29999991741E+02 0.  0.
         12    1    1    2    0    0  0.16844250126E+02  0.54602678091E+01  0.36600855343E+02  0.40659142867E+02  0.00000000000E+00 0. -1.
         11    1    3    3    0    0 -0.15214870545E+02 -0.74527758351E+01 -0.64034511775E+01  0.18111883960E+02  0.51100000000E-03 0. -1.
        -11    1    3    3    0    0  0.25863205873E+01 -0.16180151701E+01 -0.23595164804E+02  0.23791570558E+02  0.51100000000E-03 0.  1.
         12    1    3    3    0    0 -0.42157001680E+01  0.36105231961E+01 -0.66022393621E+01  0.86254026139E+01  0.00000000000E+00 0. -1.
</event>
<event>
 7    1  0.2973028E-011  0.5052887E+02  0.7816164E-02  0.1300439E+00
        -11   -1    0    0    0    0  0.00000000000E+00  0.00000000000E+00  0.45593999997E+02  0.45594000000E+02  0.51100000000E-03 0.  1.
         11   -1    0    0    0    0 -0.00000000000E+00 -0.00000000000E+00 -0.45593999997E+02  0.45594000000E+02  0.51100000000E-03 0. -1.
    9900012    2    1    2    0    0 -0.29107150075E+02  0.26466058171E+02  0.10270674882E+02  0.50528865932E+02  0.30000018487E+02 0.  0.
         12    1    1    2    0    0  0.29107150075E+02 -0.26466058171E+02 -0.10270674882E+02  0.40659134068E+02  0.00000000000E+00 0. -1.
         11    1    3    3    0    0 -0.11338569068E+01  0.71107149457E+00 -0.65976009836E+01  0.67319828546E+01  0.51100000000E-03 0. -1.
        -11    1    3    3    0    0 -0.23170815412E+02  0.13752194332E+02  0.79558096354E+01  0.28094562517E+02  0.51100000000E-03 0.  1.
         12    1    3    3    0    0 -0.48024777562E+01  0.12002792345E+02  0.89124662303E+01  0.15702320561E+02  0.00000000000E+00 0. -1.
</event>
<event>
 7    1  0.2973028E-011  0.5052886E+02  0.7816164E-02  0.1300439E+00
        -11   -1    0    0    0    0  0.00000000000E+00  0.00000000000E+00  0.45593999997E+02  0.45594000000E+02  0.51100000000E-03 0.  1.
         11   -1    0    0    0    0 -0.00000000000E+00 -0.00000000000E+00 -0.45593999997E+02  0.45594000000E+02  0.51100000000E-03 0. -1.
    9900012    2    1    2    0    0  0.27634858176E+02 -0.11807531224E+02  0.27387272447E+02  0.50528857460E+02  0.29999992737E+02 0.  0.
         12    1    1    2    0    0 -0.27634858176E+02  0.11807531224E+02 -0.27387272447E+02  0.40659142540E+02  0.00000000000E+00 0. -1.
         11    1    3    3    0    0  0.28396786577E+02 -0.15528693841E+02  0.20716138259E+02  0.38427544872E+02  0.51100000000E-03 0. -1.
        -11    1    3    3    0    0  0.32292956328E+01  0.32004715044E+01  0.66749305827E+01  0.80762656395E+01  0.51100000000E-03 0.  1.
         12    1    3    3    0    0 -0.39912240341E+01  0.52069111273E+00 -0.37963949312E-02  0.40250469485E+01  0.00000000000E+00 0. -1.
</event>
<event>
 7    1  0.2973028E-011  0.5052886E+02  0.7816164E-02  0.1300439E+00
        -11   -1    0    0    0    0  0.00000000000E+00  0.00000000000E+00  0.45593999997E+02  0.45594000000E+02  0.51100000000E-03 0. -1.
         11   -1    0    0    0    0 -0.00000000000E+00 -0.00000000000E+00 -0.45593999997E+02  0.45594000000E+02  0.51100000000E-03 0.  1.
    9900012    2    1    2    0    0  0.28284001466E+02  0.15157347217E+02 -0.24968695328E+02  0.50528860068E+02  0.30000000663E+02 0.  0.
         12    1    1    2    0    0 -0.28284001466E+02 -0.15157347217E+02  0.24968695328E+02  0.40659139932E+02  0.00000000000E+00 0. -1.
         11    1    3    3    0    0 -0.22646151058E+01  0.55399666514E+01 -0.13859159079E+02  0.15096224783E+02  0.51100000000E-03 0. -1.
        -11    1    3    3    0    0  0.19724417012E+01  0.38035418831E+01 -0.27700835758E+01  0.51020408073E+01  0.51100000000E-03 0.  1.
         12    1    3    3    0    0  0.28576174871E+02  0.58138386827E+01 -0.83394526741E+01  0.30330594478E+02  0.00000000000E+00 0. -1.
</event>
<event>
 7    1  0.2973028E-011  0.5052886E+02  0.7816164E-02  0.1300439E+00
        -11   -1    0    0    0    0  0.00000000000E+00  0.00000000000E+00  0.45593999997E+02  0.45594000000E+02  0.51100000000E-03 0.  1.
         11   -1    0    0    0    0 -0.00000000000E+00 -0.00000000000E+00 -0.45593999997E+02  0.45594000000E+02  0.51100000000E-03 0. -1.
    9900012    2    1    2    0    0  0.33295800304E+02  0.14858769279E+02 -0.17993682882E+02  0.50528856305E+02  0.29999989224E+02 0.  0.
         12    1    1    2    0    0 -0.33295800304E+02 -0.14858769279E+02  0.17993682882E+02  0.40659143695E+02  0.00000000000E+00 0. -1.
         11    1    3    3    0    0 -0.26528717714E+01  0.81605021312E+01 -0.47548726803E+01  0.98102160086E+01  0.51100000000E-03 0. -1.
        -11    1    3    3    0    0  0.32296402844E+02  0.89550774200E+01 -0.14064978278E+02  0.36346590796E+02  0.51100000000E-03 0.  1.
        -12    1    3    3    0    0  0.36522692317E+01 -0.22568102721E+01  0.82616807599E+00  0.43720495004E+01  0.00000000000E+00 0.  1.
</event>
<event>
 7    1  0.2973028E-011  0.5052886E+02  0.7816164E-02  0.1300439E+00
        -11   -1    0    0    0    0  0.00000000000E+00  0.00000000000E+00  0.45593999997E+02  0.45594000000E+02  0.51100000000E-03 0. -1.
         11   -1    0    0    0    0 -0.00000000000E+00 -0.00000000000E+00 -0.45593999997E+02  0.45594000000E+02  0.51100000000E-03 0.  1.
    9900012    2    1    2    0    0  0.10014672618E+02  0.36578817717E+02  0.14658187644E+02  0.50528855417E+02  0.29999986525E+02 0.  0.
         12    1    1    2    0    0 -0.10014672618E+02 -0.36578817717E+02 -0.14658187644E+02  0.40659144583E+02  0.00000000000E+00 0. -1.
         11    1    3    3    0    0  0.10930450748E+02  0.89524050640E+01 -0.50457169083E+01  0.15002652078E+02  0.51100000000E-03 0.  1.
        -11    1    3    3    0    0 -0.47057143694E+00  0.18510763220E+02  0.18746525035E+02  0.26349610882E+02  0.51100000000E-03 0. -1.
         12    1    3    3    0    0 -0.44520669312E+00  0.91156494334E+01  0.95737951729E+00  0.91765924575E+01  0.00000000000E+00 0. -1.
</event>
<event>
 7    1  0.2973028E-011  0.5052886E+02  0.7816164E-02  0.1300439E+00
        -11   -1    0    0    0    0  0.00000000000E+00  0.00000000000E+00  0.45593999997E+02  0.45594000000E+02  0.51100000000E-03 0.  1.
         11   -1    0    0    0    0 -0.00000000000E+00 -0.00000000000E+00 -0.45593999997E+02  0.45594000000E+02  0.51100000000E-03 0. -1.
    9900012    2    1    2    0    0  0.10704508718E+02 -0.32835056622E+02  0.21457825286E+02  0.50528859376E+02  0.29999998560E+02 0.  0.
         12    1    1    2    0    0 -0.10704508718E+02  0.32835056622E+02 -0.21457825286E+02  0.40659140624E+02  0.00000000000E+00 0. -1.
         11    1    3    3    0    0 -0.68076180137E+01 -0.11366317578E+01  0.86762839131E+00  0.69561752465E+01  0.51100000000E-03 0. -1.
        -11    1    3    3    0    0  0.92440858279E+01 -0.21032982659E+02  0.60979884397E+01  0.23770253377E+02  0.51100000000E-03 0.  1.
         12    1    3    3    0    0  0.82680409041E+01 -0.10665442205E+02  0.14492208455E+02  0.19802430753E+02  0.00000000000E+00 0. -1.
</event>
<event>
 7    1  0.2973028E-011  0.5052886E+02  0.7816164E-02  0.1300439E+00
        -11   -1    0    0    0    0  0.00000000000E+00  0.00000000000E+00  0.45593999997E+02  0.45594000000E+02  0.51100000000E-03 0. -1.
         11   -1    0    0    0    0 -0.00000000000E+00 -0.00000000000E+00 -0.45593999997E+02  0.45594000000E+02  0.51100000000E-03 0.  1.
    9900012    2    1    2    0    0 -0.56727060422E+01  0.22686367284E+02 -0.33261315824E+02  0.50528856074E+02  0.29999988524E+02 0.  0.
         12    1    1    2    0    0  0.56727060422E+01 -0.22686367284E+02  0.33261315824E+02  0.40659143926E+02  0.00000000000E+00 0. -1.
         11    1    3    3    0    0 -0.72347884811E+01  0.88905999655E+01 -0.44338543033E+01  0.12289995783E+02  0.51100000000E-03 0. -1.
        -11    1    3    3    0    0  0.19378639474E+01  0.44952016379E+01 -0.28508008409E+02  0.28925225983E+02  0.51100000000E-03 0.  1.
        -12    1    3    3    0    0 -0.37578150857E+00  0.93005656810E+01 -0.31945311154E+00  0.93136343078E+01  0.00000000000E+00 0.  1.
</event>
<event>
 7    1  0.2973028E-011  0.5052886E+02  0.7816164E-02  0.1300439E+00
        -11   -1    0    0    0    0  0.00000000000E+00  0.00000000000E+00  0.45593999997E+02  0.45594000000E+02  0.51100000000E-03 0. -1.
         11   -1    0    0    0    0 -0.00000000000E+00 -0.00000000000E+00 -0.45593999997E+02  0.45594000000E+02  0.51100000000E-03 0.  1.
    9900012    2    1    2    0    0  0.17762739085E+02  0.35090526609E+02 -0.10310463120E+02  0.50528860716E+02  0.30000002634E+02 0.  0.
         12    1    1    2    0    0 -0.17762739085E+02 -0.35090526609E+02  0.10310463120E+02  0.40659139284E+02  0.00000000000E+00 0. -1.
         11    1    3    3    0    0  0.25276441616E+01  0.23647029904E+01 -0.88424630802E+01  0.94957863722E+01  0.51100000000E-03 0. -1.
        -11    1    3    3    0    0  0.15055762603E+02  0.35290306334E+02 -0.79610509363E+00  0.38375975457E+02  0.51100000000E-03 0.  1.
        -12    1    3    3    0    0  0.17933232031E+00 -0.25644827150E+01 -0.67189494579E+00  0.26570988869E+01  0.00000000000E+00 0.  1.
</event>
<event>
 7    1  0.2973028E-011  0.5052885E+02  0.7816164E-02  0.1300439E+00
        -11   -1    0    0    0    0  0.00000000000E+00  0.00000000000E+00  0.45593999997E+02  0.45594000000E+02  0.51100000000E-03 0.  1.
         11   -1    0    0    0    0 -0.00000000000E+00 -0.00000000000E+00 -0.45593999997E+02  0.45594000000E+02  0.51100000000E-03 0. -1.
    9900012    2    1    2    0    0 -0.98439013384E+01 -0.27728429991E+02  0.28060617834E+02  0.50528849781E+02  0.29999969393E+02 0.  0.
         12    1    1    2    0    0  0.98439013384E+01  0.27728429991E+02 -0.28060617834E+02  0.40659150219E+02  0.00000000000E+00 0. -1.
         11    1    3    3    0    0  0.52713549411E+01 -0.74011530467E+01  0.32759020940E+01  0.96589742792E+01  0.51100000000E-03 0. -1.
        -11    1    3    3    0    0 -0.12338085774E+02 -0.10788464736E+02  0.26129619213E+02  0.30844388994E+02  0.51100000000E-03 0.  1.
        -12    1    3    3    0    0 -0.27771705054E+01 -0.95388122084E+01 -0.13449034728E+01  0.10025486508E+02  0.00000000000E+00 0.  1.
</event>
<event>
 7    1  0.2973028E-011  0.5052886E+02  0.7816164E-02  0.1300439E+00
        -11   -1    0    0    0    0  0.00000000000E+00  0.00000000000E+00  0.45593999997E+02  0.45594000000E+02  0.51100000000E-03 0.  1.
         11   -1    0    0    0    0 -0.00000000000E+00 -0.00000000000E+00 -0.45593999997E+02  0.45594000000E+02  0.51100000000E-03 0. -1.
    9900012    2    1    2    0    0 -0.32646650244E+02 -0.21055260299E+02 -0.12001578359E+02  0.50528860295E+02  0.30000001354E+02 0.  0.
         12    1    1    2    0    0  0.32646650244E+02  0.21055260299E+02  0.12001578359E+02  0.40659139705E+02  0.00000000000E+00 0. -1.
         11    1    3    3    0    0 -0.15920955279E+01 -0.15403662923E+02 -0.86080412074E+01  0.17717391831E+02  0.51100000000E-03 0. -1.
        -11    1    3    3    0    0 -0.10307156828E+02 -0.57680723469E+01 -0.15402434032E+00  0.11812360654E+02  0.51100000000E-03 0.  1.
         12    1    3    3    0    0 -0.20747397888E+02  0.11647497069E+00 -0.32395128113E+01  0.20999107809E+02  0.00000000000E+00 0. -1.
</event>
<event>
 7    1  0.2973028E-011  0.5052886E+02  0.7816164E-02  0.1300439E+00
        -11   -1    0    0    0    0  0.00000000000E+00  0.00000000000E+00  0.45593999997E+02  0.45594000000E+02  0.51100000000E-03 0.  1.
         11   -1    0    0    0    0 -0.00000000000E+00 -0.00000000000E+00 -0.45593999997E+02  0.45594000000E+02  0.51100000000E-03 0. -1.
    9900012    2    1    2    0    0 -0.13807975649E+02 -0.70378348529E+01  0.37589548402E+02  0.50528862527E+02  0.30000008138E+02 0.  0.
         12    1    1    2    0    0  0.13807975649E+02  0.70378348529E+01 -0.37589548402E+02  0.40659137473E+02  0.00000000000E+00 0. -1.
         11    1    3    3    0    0 -0.31260255961E+01  0.18053870479E+01 -0.70055722248E+00  0.36772597275E+01  0.51100000000E-03 0. -1.
        -11    1    3    3    0    0  0.73221876997E+00 -0.15717079613E+01 -0.29642352896E+01  0.34341085242E+01  0.51100000000E-03 0.  1.
        -12    1    3    3    0    0 -0.11414168823E+02 -0.72715139395E+01  0.41254340914E+02  0.43417494276E+02  0.00000000000E+00 0.  1.
</event>
<event>
 7    1  0.2973028E-011  0.5052880E+02  0.7816164E-02  0.1300439E+00
        -11   -1    0    0    0    0  0.00000000000E+00  0.00000000000E+00  0.45593999997E+02  0.45594000000E+02  0.51100000000E-03 0. -1.
         11   -1    0    0    0    0 -0.00000000000E+00 -0.00000000000E+00 -0.45593999997E+02  0.45594000000E+02  0.51100000000E-03 0.  1.
    9900012    2    1    2    0    0 -0.36743355871E+02  0.15309885472E+02 -0.82887962584E+01  0.50528795172E+02  0.29999803403E+02 0.  0.
         12    1    1    2    0    0  0.36743355871E+02 -0.15309885472E+02  0.82887962584E+01  0.40659204828E+02  0.00000000000E+00 0. -1.
         11    1    3    3    0    0 -0.49078919230E+01  0.19195986159E+01  0.40370741628E+01  0.66385412578E+01  0.51100000000E-03 0. -1.
        -11    1    3    3    0    0 -0.34363006408E+02  0.10889320848E+02 -0.15391375775E+02  0.39195509519E+02  0.51100000000E-03 0.  1.
        -12    1    3    3    0    0  0.25275424598E+01  0.25009660089E+01  0.30655053538E+01  0.46947443954E+01  0.00000000000E+00 0.  1.
</event>
<event>
 7    1  0.2973028E-011  0.5052886E+02  0.7816164E-02  0.1300439E+00
        -11   -1    0    0    0    0  0.00000000000E+00  0.00000000000E+00  0.45593999997E+02  0.45594000000E+02  0.51100000000E-03 0. -1.
         11   -1    0    0    0    0 -0.00000000000E+00 -0.00000000000E+00 -0.45593999997E+02  0.45594000000E+02  0.51100000000E-03 0.  1.
    9900012    2    1    2    0    0 -0.25295819148E+02 -0.24557610502E+02  0.20253656180E+02  0.50528864636E+02  0.30000014546E+02 0.  0.
         12    1    1    2    0    0  0.25295819148E+02  0.24557610502E+02 -0.20253656180E+02  0.40659135364E+02  0.00000000000E+00 0. -1.
         11    1    3    3    0    0 -0.18816479555E+01  0.50944629747E+01 -0.54132646423E+00  0.54577638857E+01  0.51100000000E-03 0.  1.
        -11    1    3    3    0    0 -0.11477447646E+02 -0.24292513977E+02  0.13093116595E+02  0.29887919670E+02  0.51100000000E-03 0. -1.
        -12    1    3    3    0    0 -0.11936723547E+02 -0.53595595001E+01  0.77018660493E+01  0.15183181080E+02  0.00000000000E+00 0.  1.
</event>
<event>
 7    1  0.2973028E-011  0.5052888E+02  0.7816164E-02  0.1300439E+00
        -11   -1    0    0    0    0  0.00000000000E+00  0.00000000000E+00  0.45593999997E+02  0.45594000000E+02  0.51100000000E-03 0.  1.
         11   -1    0    0    0    0 -0.00000000000E+00 -0.00000000000E+00 -0.45593999997E+02  0.45594000000E+02  0.51100000000E-03 0. -1.
    9900012    2    1    2    0    0  0.19393954448E+02  0.14411934544E+02  0.32700687071E+02  0.50528877268E+02  0.30000052943E+02 0.  0.
         12    1    1    2    0    0 -0.19393954448E+02 -0.14411934544E+02 -0.32700687071E+02  0.40659122732E+02  0.00000000000E+00 0. -1.
         11    1    3    3    0    0  0.15025692934E+02  0.20427251398E+02  0.11119449905E+02  0.27689099196E+02  0.51100000000E-03 0. -1.
        -11    1    3    3    0    0  0.22716417968E+01 -0.29977329123E+01  0.12114204224E+02  0.12684664099E+02  0.51100000000E-03 0.  1.
         12    1    3    3    0    0  0.20966197172E+01 -0.30175839418E+01  0.94670329418E+01  0.10155113973E+02  0.00000000000E+00 0. -1.
</event>
<event>
 7    1  0.2973028E-011  0.5052886E+02  0.7816164E-02  0.1300439E+00
        -11   -1    0    0    0    0  0.00000000000E+00  0.00000000000E+00  0.45593999997E+02  0.45594000000E+02  0.51100000000E-03 0.  1.
         11   -1    0    0    0    0 -0.00000000000E+00 -0.00000000000E+00 -0.45593999997E+02  0.45594000000E+02  0.51100000000E-03 0. -1.
    9900012    2    1    2    0    0  0.31656308514E+02  0.15478179115E+02  0.20284713239E+02  0.50528862176E+02  0.30000007069E+02 0.  0.
         12    1    1    2    0    0 -0.31656308514E+02 -0.15478179115E+02 -0.20284713239E+02  0.40659137824E+02  0.00000000000E+00 0. -1.
         11    1    3    3    0    0  0.20335507660E+02 -0.40370766729E+00  0.91763601411E+01  0.22313705146E+02  0.51100000000E-03 0. -1.
        -11    1    3    3    0    0  0.39294661950E+01  0.98675360348E+01 -0.31385642408E+01  0.11075177548E+02  0.51100000000E-03 0.  1.
        -12    1    3    3    0    0  0.73913346590E+01  0.60143507472E+01  0.14246917339E+02  0.17139979481E+02  0.00000000000E+00 0.  1.
</event>
<event>
 7    1  0.2973028E-011  0.5052886E+02  0.7816164E-02  0.1300439E+00
        -11   -1    0    0    0    0  0.00000000000E+00  0.00000000000E+00  0.45593999997E+02  0.45594000000E+02  0.51100000000E-03 0. -1.
         11   -1    0    0    0    0 -0.00000000000E+00 -0.00000000000E+00 -0.45593999997E+02  0.45594000000E+02  0.51100000000E-03 0.  1.
    9900012    2    1    2    0    0 -0.31289288725E+02 -0.16559555893E+02 -0.19998178710E+02  0.50528860412E+02  0.30000001709E+02 0.  0.
         12    1    1    2    0    0  0.31289288725E+02  0.16559555893E+02  0.19998178710E+02  0.40659139588E+02  0.00000000000E+00 0. -1.
         11    1    3    3    0    0 -0.12441781355E+01  0.72043202452E+01 -0.21692006581E+01  0.76259846043E+01  0.51100000000E-03 0. -1.
        -11    1    3    3    0    0 -0.10435440581E+02 -0.11995269063E+02 -0.97347870832E+01  0.18642719218E+02  0.51100000000E-03 0.  1.
         12    1    3    3    0    0 -0.19609670009E+02 -0.11768607075E+02 -0.80941909692E+01  0.24260156590E+02  0.00000000000E+00 0. -1.
</event>
<event>
 7    1  0.2973028E-011  0.5052887E+02  0.7816164E-02  0.1300439E+00
        -11   -1    0    0    0    0  0.00000000000E+00  0.00000000000E+00  0.45593999997E+02  0.45594000000E+02  0.51100000000E-03 0. -1.
         11   -1    0    0    0    0 -0.00000000000E+00 -0.00000000000E+00 -0.45593999997E+02  0.45594000000E+02  0.51100000000E-03 0.  1.
    9900012    2    1    2    0    0 -0.27149994849E+02 -0.28819556207E+02 -0.92452962797E+01  0.50528873798E+02  0.30000042396E+02 0.  0.
         12    1    1    2    0    0  0.27149994849E+02  0.28819556207E+02  0.92452962797E+01  0.40659126202E+02  0.00000000000E+00 0. -1.
         11    1    3    3    0    0 -0.13970498079E+01  0.62630020645E+00 -0.37552111548E+01  0.40553188768E+01  0.51100000000E-03 0. -1.
        -11    1    3    3    0    0 -0.19548677989E+02 -0.33459893162E+02 -0.48989216468E+01  0.39060398041E+02  0.51100000000E-03 0.  1.
        -12    1    3    3    0    0 -0.62042670518E+01  0.40140367491E+01 -0.59116347809E+00  0.74131568802E+01  0.00000000000E+00 0.  1.
</event>
<event>
 7    1  0.2973028E-011  0.5052885E+02  0.7816164E-02  0.1300439E+00
        -11   -1    0    0    0    0  0.00000000000E+00  0.00000000000E+00  0.45593999997E+02  0.45594000000E+02  0.51100000000E-03 0.  1.
         11   -1    0    0    0    0 -0.00000000000E+00 -0.00000000000E+00 -0.45593999997E+02  0.45594000000E+02  0.51100000000E-03 0. -1.
    9900012    2    1    2    0    0  0.15889269239E+02 -0.34217943279E+02  0.15160146394E+02  0.50528849027E+02  0.29999967103E+02 0.  0.
         12    1    1    2    0    0 -0.15889269239E+02  0.34217943279E+02 -0.15160146394E+02  0.40659150973E+02  0.00000000000E+00 0. -1.
         11    1    3    3    0    0  0.49339396839E+01 -0.19395673454E+01 -0.63726351322E+01  0.82895211611E+01  0.51100000000E-03 0. -1.
        -11    1    3    3    0    0  0.12864545169E+02 -0.26593991840E+02  0.14231768531E+02  0.32791464746E+02  0.51100000000E-03 0.  1.
         12    1    3    3    0    0 -0.19092156143E+01 -0.56843840930E+01  0.73010129952E+01  0.94478631201E+01  0.00000000000E+00 0. -1.
</event>
<event>
 7    1  0.2973028E-011  0.5052886E+02  0.7816164E-02  0.1300439E+00
        -11   -1    0    0    0    0  0.00000000000E+00  0.00000000000E+00  0.45593999997E+02  0.45594000000E+02  0.51100000000E-03 0. -1.
         11   -1    0    0    0    0 -0.00000000000E+00 -0.00000000000E+00 -0.45593999997E+02  0.45594000000E+02  0.51100000000E-03 0.  1.
    9900012    2    1    2    0    0 -0.39934699125E+02 -0.41397947870E+01 -0.64224357711E+01  0.50528858638E+02  0.29999996317E+02 0.  0.
         12    1    1    2    0    0  0.39934699125E+02  0.41397947870E+01  0.64224357711E+01  0.40659141362E+02  0.00000000000E+00 0. -1.
         11    1    3    3    0    0 -0.17348582697E+01  0.79353854472E+01 -0.44729980946E+01  0.92729600251E+01  0.51100000000E-03 0. -1.
        -11    1    3    3    0    0 -0.31855383010E+02 -0.12367350967E+02 -0.43884253489E+01  0.34452504611E+02  0.51100000000E-03 0.  1.
        -12    1    3    3    0    0 -0.63444578451E+01  0.29217073297E+00  0.24389876724E+01  0.68033940024E+01  0.00000000000E+00 0.  1.
</event>
<event>
 7    1  0.2973028E-011  0.5052886E+02  0.7816164E-02  0.1300439E+00
        -11   -1    0    0    0    0  0.00000000000E+00  0.00000000000E+00  0.45593999997E+02  0.45594000000E+02  0.51100000000E-03 0.  1.
         11   -1    0    0    0    0 -0.00000000000E+00 -0.00000000000E+00 -0.45593999997E+02  0.45594000000E+02  0.51100000000E-03 0. -1.
    9900012    2    1    2    0    0 -0.20049568123E+02 -0.26796172275E+02  0.23089950312E+02  0.50528857904E+02  0.29999994085E+02 0.  0.
         12    1    1    2    0    0  0.20049568123E+02  0.26796172275E+02 -0.23089950312E+02  0.40659142096E+02  0.00000000000E+00 0. -1.
         11    1    3    3    0    0 -0.24383374422E+01 -0.19362653589E+02  0.21938575705E+02  0.29362543278E+02  0.51100000000E-03 0. -1.
        -11    1    3    3    0    0 -0.52817260226E+01 -0.63429551777E+01  0.27176771450E+01  0.86899642974E+01  0.51100000000E-03 0.  1.
         12    1    3    3    0    0 -0.12329504659E+02 -0.10905635084E+01 -0.15663025378E+01  0.12476350329E+02  0.00000000000E+00 0. -1.
</event>
<event>
 7    1  0.2973028E-011  0.5052887E+02  0.7816164E-02  0.1300439E+00
        -11   -1    0    0    0    0  0.00000000000E+00  0.00000000000E+00  0.45593999997E+02  0.45594000000E+02  0.51100000000E-03 0. -1.
         11   -1    0    0    0    0 -0.00000000000E+00 -0.00000000000E+00 -0.45593999997E+02  0.45594000000E+02  0.51100000000E-03 0.  1.
    9900012    2    1    2    0    0  0.38483486610E+02 -0.54421561461E+01 -0.11940245083E+02  0.50528865014E+02  0.30000015696E+02 0.  0.
         12    1    1    2    0    0 -0.38483486610E+02  0.54421561461E+01  0.11940245083E+02  0.40659134986E+02  0.00000000000E+00 0. -1.
         11    1    3    3    0    0  0.25642563661E+02  0.77280499566E+01 -0.13408076062E+01  0.26815323838E+02  0.51100000000E-03 0. -1.
        -11    1    3    3    0    0  0.12877346601E+02 -0.14681998258E+02 -0.10558727393E+02  0.22200762436E+02  0.51100000000E-03 0.  1.
         12    1    3    3    0    0 -0.36423652068E-01  0.15117921555E+01 -0.40710084025E-01  0.15127787395E+01  0.00000000000E+00 0. -1.
</event>
<event>
 7    1  0.2973028E-011  0.5052886E+02  0.7816164E-02  0.1300439E+00
        -11   -1    0    0    0    0  0.00000000000E+00  0.00000000000E+00  0.45593999997E+02  0.45594000000E+02  0.51100000000E-03 0.  1.
         11   -1    0    0    0    0 -0.00000000000E+00 -0.00000000000E+00 -0.45593999997E+02  0.45594000000E+02  0.51100000000E-03 0. -1.
    9900012    2    1    2    0    0  0.25054858657E+02  0.33515168986E+01  0.31846306061E+02  0.50528858131E+02  0.29999994774E+02 0.  0.
         12    1    1    2    0    0 -0.25054858657E+02 -0.33515168986E+01 -0.31846306061E+02  0.40659141869E+02  0.00000000000E+00 0. -1.
         11    1    3    3    0    0  0.13169074781E+02  0.32606850239E+01  0.27154227681E+01  0.13835827351E+02  0.51100000000E-03 0. -1.
        -11    1    3    3    0    0  0.98111608700E+01 -0.83442318072E+01  0.21828273055E+02  0.25344794079E+02  0.51100000000E-03 0.  1.
        -12    1    3    3    0    0  0.20746230052E+01  0.84350636819E+01  0.73026102379E+01  0.11348236701E+02  0.00000000000E+00 0.  1.
</event>
<event>
 7    1  0.2973028E-011  0.5052873E+02  0.7816164E-02  0.1300439E+00
        -11   -1    0    0    0    0  0.00000000000E+00  0.00000000000E+00  0.45593999997E+02  0.45594000000E+02  0.51100000000E-03 0. -1.
         11   -1    0    0    0    0 -0.00000000000E+00 -0.00000000000E+00 -0.45593999997E+02  0.45594000000E+02  0.51100000000E-03 0.  1.
    9900012    2    1    2    0    0  0.43701939347E+01  0.93005430451E+01 -0.39339260295E+02  0.50528731727E+02  0.29999610554E+02 0.  0.
         12    1    1    2    0    0 -0.43701939347E+01 -0.93005430451E+01  0.39339260295E+02  0.40659268273E+02  0.00000000000E+00 0. -1.
         11    1    3    3    0    0 -0.95942907862E+01  0.24305042558E+01 -0.55097959517E+01  0.11327648402E+02  0.51100000000E-03 0. -1.
        -11    1    3    3    0    0  0.56093226550E+01  0.94212091466E+01 -0.16798061165E+02  0.20059873918E+02  0.51100000000E-03 0.  1.
         12    1    3    3    0    0  0.83551620658E+01 -0.25511703572E+01 -0.17031403178E+02  0.19141209407E+02  0.00000000000E+00 0. -1.
</event>
<event>
 7    1  0.2973028E-011  0.5052886E+02  0.7816164E-02  0.1300439E+00
        -11   -1    0    0    0    0  0.00000000000E+00  0.00000000000E+00  0.45593999997E+02  0.45594000000E+02  0.51100000000E-03 0.  1.
         11   -1    0    0    0    0 -0.00000000000E+00 -0.00000000000E+00 -0.45593999997E+02  0.45594000000E+02  0.51100000000E-03 0. -1.
    9900012    2    1    2    0    0  0.23419639333E+02 -0.45780980959E+01  0.32920012970E+02  0.50528859052E+02  0.29999997574E+02 0.  0.
         12    1    1    2    0    0 -0.23419639333E+02  0.45780980959E+01 -0.32920012970E+02  0.40659140948E+02  0.00000000000E+00 0. -1.
         11    1    3    3    0    0  0.50426459494E+01  0.10242623548E+02  0.11631280134E+02  0.16298045684E+02  0.51100000000E-03 0. -1.
        -11    1    3    3    0    0  0.89223621083E+01 -0.93685890060E+01  0.35709027328E+01  0.13421264923E+02  0.51100000000E-03 0.  1.
        -12    1    3    3    0    0  0.94546312756E+01 -0.54521326382E+01  0.17717830104E+02  0.20809548444E+02  0.00000000000E+00 0.  1.
</event>
<event>
 7    1  0.2973028E-011  0.5052887E+02  0.7816164E-02  0.1300439E+00
        -11   -1    0    0    0    0  0.00000000000E+00  0.00000000000E+00  0.45593999997E+02  0.45594000000E+02  0.51100000000E-03 0. -1.
         11   -1    0    0    0    0 -0.00000000000E+00 -0.00000000000E+00 -0.45593999997E+02  0.45594000000E+02  0.51100000000E-03 0.  1.
    9900012    2    1    2    0    0  0.14556084626E+02 -0.14639688227E+02 -0.35028062406E+02  0.50528865394E+02  0.30000016851E+02 0.  0.
         12    1    1    2    0    0 -0.14556084626E+02  0.14639688227E+02  0.35028062406E+02  0.40659134606E+02  0.00000000000E+00 0. -1.
         11    1    3    3    0    0  0.70290723335E+01  0.72820890072E+00  0.37254854351E+01  0.79885786008E+01  0.51100000000E-03 0. -1.
        -11    1    3    3    0    0  0.50871630718E+01 -0.75886748828E+01 -0.16829194347E+02  0.19149125234E+02  0.51100000000E-03 0.  1.
         12    1    3    3    0    0  0.24398492206E+01 -0.77792222450E+01 -0.21924353493E+02  0.23391161559E+02  0.00000000000E+00 0. -1.
</event>
<event>
 7    1  0.2973028E-011  0.5052886E+02  0.7816164E-02  0.1300439E+00
        -11   -1    0    0    0    0  0.00000000000E+00  0.00000000000E+00  0.45593999997E+02  0.45594000000E+02  0.51100000000E-03 0. -1.
         11   -1    0    0    0    0 -0.00000000000E+00 -0.00000000000E+00 -0.45593999997E+02  0.45594000000E+02  0.51100000000E-03 0.  1.
    9900012    2    1    2    0    0 -0.14178897614E+02 -0.34349328815E+02  0.16499950110E+02  0.50528857348E+02  0.29999992394E+02 0.  0.
         12    1    1    2    0    0  0.14178897614E+02  0.34349328815E+02 -0.16499950110E+02  0.40659142652E+02  0.00000000000E+00 0. -1.
         11    1    3    3    0    0 -0.12744953185E+02 -0.22672056307E+02  0.26533367513E+01  0.26143759581E+02  0.51100000000E-03 0.  1.
        -11    1    3    3    0    0  0.24402793827E+01  0.18504235721E+01  0.89927604906E+01  0.94999353874E+01  0.51100000000E-03 0. -1.
        -12    1    3    3    0    0 -0.38742238117E+01 -0.13527696080E+02  0.48538528685E+01  0.14885162379E+02  0.00000000000E+00 0.  1.
</event>
<event>
 7    1  0.2973028E-011  0.5052886E+02  0.7816164E-02  0.1300439E+00
        -11   -1    0    0    0    0  0.00000000000E+00  0.00000000000E+00  0.45593999997E+02  0.45594000000E+02  0.51100000000E-03 0. -1.
         11   -1    0    0    0    0 -0.00000000000E+00 -0.00000000000E+00 -0.45593999997E+02  0.45594000000E+02  0.51100000000E-03 0.  1.
    9900012    2    1    2    0    0  0.22074236467E+01 -0.32396896536E+02 -0.24469045253E+02  0.50528858348E+02  0.29999995433E+02 0.  0.
         12    1    1    2    0    0 -0.22074236467E+01  0.32396896536E+02  0.24469045253E+02  0.40659141652E+02  0.00000000000E+00 0. -1.
         11    1    3    3    0    0  0.67105698738E+01  0.16569581883E+01  0.30969610618E+00  0.69190440386E+01  0.51100000000E-03 0. -1.
        -11    1    3    3    0    0 -0.14883347732E+01 -0.26183258740E+02 -0.13402830705E+02  0.29451893824E+02  0.51100000000E-03 0.  1.
         12    1    3    3    0    0 -0.30148114539E+01 -0.78705959839E+01 -0.11375910654E+02  0.14157920485E+02  0.00000000000E+00 0. -1.
</event>
<event>
 7    1  0.2973028E-011  0.5052885E+02  0.7816164E-02  0.1300439E+00
        -11   -1    0    0    0    0  0.00000000000E+00  0.00000000000E+00  0.45593999997E+02  0.45594000000E+02  0.51100000000E-03 0. -1.
         11   -1    0    0    0    0 -0.00000000000E+00 -0.00000000000E+00 -0.45593999997E+02  0.45594000000E+02  0.51100000000E-03 0.  1.
    9900012    2    1    2    0    0  0.26274976909E+02  0.30989745066E+02  0.15580585630E+01  0.50528852723E+02  0.29999978336E+02 0.  0.
         12    1    1    2    0    0 -0.26274976909E+02 -0.30989745066E+02 -0.15580585630E+01  0.40659147277E+02  0.00000000000E+00 0. -1.
         11    1    3    3    0    0 -0.35645185711E+01  0.11641713486E+01  0.60064896120E+01  0.70808901484E+01  0.51100000000E-03 0. -1.
        -11    1    3    3    0    0  0.24291055694E+02  0.26658372203E+02 -0.66833258099E+01  0.36679572508E+02  0.51100000000E-03 0.  1.
         12    1    3    3    0    0  0.55484397862E+01  0.31672015145E+01  0.22348947608E+01  0.67683900660E+01  0.00000000000E+00 0. -1.
</event>
<event>
 7    1  0.2973028E-011  0.5052883E+02  0.7816164E-02  0.1300439E+00
        -11   -1    0    0    0    0  0.00000000000E+00  0.00000000000E+00  0.45593999997E+02  0.45594000000E+02  0.51100000000E-03 0.  1.
         11   -1    0    0    0    0 -0.00000000000E+00 -0.00000000000E+00 -0.45593999997E+02  0.45594000000E+02  0.51100000000E-03 0. -1.
    9900012    2    1    2    0    0  0.32351667621E+02  0.15881460039E+02  0.18823298076E+02  0.50528834720E+02  0.29999923614E+02 0.  0.
         12    1    1    2    0    0 -0.32351667621E+02 -0.15881460039E+02 -0.18823298076E+02  0.40659165280E+02  0.00000000000E+00 0. -1.
         11    1    3    3    0    0 -0.42380953744E+01  0.65741715982E+01  0.32382391926E+01  0.84656587419E+01  0.51100000000E-03 0. -1.
        -11    1    3    3    0    0  0.90375858817E+01  0.47037891718E+01  0.23878849199E+00  0.10191202645E+02  0.51100000000E-03 0.  1.
         12    1    3    3    0    0  0.27552177113E+02  0.46034992691E+01  0.15346270392E+02  0.31871973333E+02  0.00000000000E+00 0. -1.
</event>
<event>
 7    1  0.2973028E-011  0.5052886E+02  0.7816164E-02  0.1300439E+00
        -11   -1    0    0    0    0  0.00000000000E+00  0.00000000000E+00  0.45593999997E+02  0.45594000000E+02  0.51100000000E-03 0. -1.
         11   -1    0    0    0    0 -0.00000000000E+00 -0.00000000000E+00 -0.45593999997E+02  0.45594000000E+02  0.51100000000E-03 0.  1.
    9900012    2    1    2    0    0  0.40973608650E+01  0.39751480760E+02 -0.74964893193E+01  0.50528856615E+02  0.29999990168E+02 0.  0.
         12    1    1    2    0    0 -0.40973608650E+01 -0.39751480760E+02  0.74964893193E+01  0.40659143385E+02  0.00000000000E+00 0. -1.
         11    1    3    3    0    0  0.27444390501E+01  0.16197127547E+02  0.63838872889E+00  0.16440390108E+02  0.51100000000E-03 0. -1.
        -11    1    3    3    0    0 -0.82385655781E+01  0.23896737238E+01 -0.65591792180E+01  0.10798487652E+02  0.51100000000E-03 0.  1.
        -12    1    3    3    0    0  0.95914873931E+01  0.21164679489E+02 -0.15756988302E+01  0.23289978856E+02  0.00000000000E+00 0.  1.
</event>
<event>
 7    1  0.2973028E-011  0.5052874E+02  0.7816164E-02  0.1300439E+00
        -11   -1    0    0    0    0  0.00000000000E+00  0.00000000000E+00  0.45593999997E+02  0.45594000000E+02  0.51100000000E-03 0. -1.
         11   -1    0    0    0    0 -0.00000000000E+00 -0.00000000000E+00 -0.45593999997E+02  0.45594000000E+02  0.51100000000E-03 0.  1.
    9900012    2    1    2    0    0  0.81394338681E+01  0.57089488411E+01 -0.39425031345E+02  0.50528738114E+02  0.29999629968E+02 0.  0.
         12    1    1    2    0    0 -0.81394338681E+01 -0.57089488411E+01  0.39425031345E+02  0.40659261886E+02  0.00000000000E+00 0. -1.
         11    1    3    3    0    0  0.14675337899E+02  0.12340973487E+02 -0.15668282612E+02  0.24762072800E+02  0.51100000000E-03 0. -1.
        -11    1    3    3    0    0 -0.43823551126E+01 -0.48735140657E+01 -0.20292587096E+02  0.21324757138E+02  0.51100000000E-03 0.  1.
         12    1    3    3    0    0 -0.21535489181E+01 -0.17585105799E+01 -0.34641616371E+01  0.44419081767E+01  0.00000000000E+00 0. -1.
</event>
<event>
 7    1  0.2973028E-011  0.5052886E+02  0.7816164E-02  0.1300439E+00
        -11   -1    0    0    0    0  0.00000000000E+00  0.00000000000E+00  0.45593999997E+02  0.45594000000E+02  0.51100000000E-03 0.  1.
         11   -1    0    0    0    0 -0.00000000000E+00 -0.00000000000E+00 -0.45593999997E+02  0.45594000000E+02  0.51100000000E-03 0. -1.
    9900012    2    1    2    0    0  0.15854077839E+02  0.24897740297E+02  0.27962767765E+02  0.50528860350E+02  0.30000001519E+02 0.  0.
         12    1    1    2    0    0 -0.15854077839E+02 -0.24897740297E+02 -0.27962767765E+02  0.40659139650E+02  0.00000000000E+00 0. -1.
         11    1    3    3    0    0 -0.42617468940E+01  0.48780163578E+01  0.10496057503E+02  0.12333886392E+02  0.51100000000E-03 0. -1.
        -11    1    3    3    0    0  0.17134824496E+02  0.42227042659E+01  0.68525724899E+01  0.18931222671E+02  0.51100000000E-03 0.  1.
        -12    1    3    3    0    0  0.29810002362E+01  0.15797019673E+02  0.10614137773E+02  0.19263751286E+02  0.00000000000E+00 0.  1.
</event>
<event>
 7    1  0.2973028E-011  0.5052886E+02  0.7816164E-02  0.1300439E+00
        -11   -1    0    0    0    0  0.00000000000E+00  0.00000000000E+00  0.45593999997E+02  0.45594000000E+02  0.51100000000E-03 0.  1.
         11   -1    0    0    0    0 -0.00000000000E+00 -0.00000000000E+00 -0.45593999997E+02  0.45594000000E+02  0.51100000000E-03 0. -1.
    9900012    2    1    2    0    0 -0.33880584905E+02  0.19108605251E+02  0.11837780113E+02  0.50528857533E+02  0.29999992958E+02 0.  0.
         12    1    1    2    0    0  0.33880584905E+02 -0.19108605251E+02 -0.11837780113E+02  0.40659142467E+02  0.00000000000E+00 0. -1.
         11    1    3    3    0    0 -0.47386830386E+01  0.17172748762E+02  0.92529383771E+01  0.20074244341E+02  0.51100000000E-03 0. -1.
        -11    1    3    3    0    0 -0.26506966418E+02  0.15992917181E+01  0.48126247224E+01  0.26987744620E+02  0.51100000000E-03 0.  1.
         12    1    3    3    0    0 -0.26349354479E+01  0.33656477017E+00 -0.22277829868E+01  0.34668685720E+01  0.00000000000E+00 0. -1.
</event>
<event>
 7    1  0.2973028E-011  0.5052885E+02  0.7816164E-02  0.1300439E+00
        -11   -1    0    0    0    0  0.00000000000E+00  0.00000000000E+00  0.45593999997E+02  0.45594000000E+02  0.51100000000E-03 0. -1.
         11   -1    0    0    0    0 -0.00000000000E+00 -0.00000000000E+00 -0.45593999997E+02  0.45594000000E+02  0.51100000000E-03 0.  1.
    9900012    2    1    2    0    0  0.12010025068E+02 -0.38061574228E+02  0.77615710202E+01  0.50528854417E+02  0.29999983485E+02 0.  0.
         12    1    1    2    0    0 -0.12010025068E+02  0.38061574228E+02 -0.77615710202E+01  0.40659145583E+02  0.00000000000E+00 0. -1.
         11    1    3    3    0    0  0.64278407754E+01 -0.28769295285E+02  0.14084615180E+02  0.32670565854E+02  0.51100000000E-03 0. -1.
        -11    1    3    3    0    0  0.93979783292E+00 -0.58415640988E+01 -0.95502675333E+01  0.11234531646E+02  0.51100000000E-03 0.  1.
        -12    1    3    3    0    0  0.46423864601E+01 -0.34507148448E+01  0.32272233734E+01  0.66237569164E+01  0.00000000000E+00 0.  1.
</event>
<event>
 7    1  0.2973028E-011  0.5052886E+02  0.7816164E-02  0.1300439E+00
        -11   -1    0    0    0    0  0.00000000000E+00  0.00000000000E+00  0.45593999997E+02  0.45594000000E+02  0.51100000000E-03 0.  1.
         11   -1    0    0    0    0 -0.00000000000E+00 -0.00000000000E+00 -0.45593999997E+02  0.45594000000E+02  0.51100000000E-03 0. -1.
    9900012    2    1    2    0    0 -0.94019998703E+00  0.23093087503E+02  0.33451317891E+02  0.50528864064E+02  0.30000012808E+02 0.  0.
         12    1    1    2    0    0  0.94019998703E+00 -0.23093087503E+02 -0.33451317891E+02  0.40659135936E+02  0.00000000000E+00 0. -1.
         11    1    3    3    0    0 -0.93747179242E+01  0.17393570544E+02  0.30126784809E+02  0.36028388746E+02  0.51100000000E-03 0.  1.
        -11    1    3    3    0    0  0.50178309083E+01  0.24498913231E+01 -0.32111105650E+01  0.64414148943E+01  0.51100000000E-03 0. -1.
         12    1    3    3    0    0  0.34166870289E+01  0.32496256351E+01  0.65356436475E+01  0.80590604234E+01  0.00000000000E+00 0. -1.
</event>
<event>
 7    1  0.2973028E-011  0.5052886E+02  0.7816164E-02  0.1300439E+00
        -11   -1    0    0    0    0  0.00000000000E+00  0.00000000000E+00  0.45593999997E+02  0.45594000000E+02  0.51100000000E-03 0. -1.
         11   -1    0    0    0    0 -0.00000000000E+00 -0.00000000000E+00 -0.45593999997E+02  0.45594000000E+02  0.51100000000E-03 0.  1.
    9900012    2    1    2    0    0  0.63671128315E+01  0.22038751440E+02 -0.33569613727E+02  0.50528860109E+02  0.30000000788E+02 0.  0.
         12    1    1    2    0    0 -0.63671128315E+01 -0.22038751440E+02  0.33569613727E+02  0.40659139891E+02  0.00000000000E+00 0. -1.
         11    1    3    3    0    0  0.10879125912E+02  0.91581918444E+01 -0.44910927579E+01  0.14913006836E+02  0.51100000000E-03 0. -1.
        -11    1    3    3    0    0 -0.80243860901E+01  0.14577170002E+02 -0.24219838185E+02  0.29385119012E+02  0.51100000000E-03 0.  1.
        -12    1    3    3    0    0  0.35123730100E+01 -0.16966104063E+01 -0.48586827844E+01  0.62307342610E+01  0.00000000000E+00 0.  1.
</event>
<event>
 7    1  0.2973028E-011  0.5052886E+02  0.7816164E-02  0.1300439E+00
        -11   -1    0    0    0    0  0.00000000000E+00  0.00000000000E+00  0.45593999997E+02  0.45594000000E+02  0.51100000000E-03 0. -1.
         11   -1    0    0    0    0 -0.00000000000E+00 -0.00000000000E+00 -0.45593999997E+02  0.45594000000E+02  0.51100000000E-03 0.  1.
    9900012    2    1    2    0    0 -0.37266236063E+02 -0.12386297599E+02 -0.10534367351E+02  0.50528860633E+02  0.30000002381E+02 0.  0.
         12    1    1    2    0    0  0.37266236063E+02  0.12386297599E+02  0.10534367351E+02  0.40659139367E+02  0.00000000000E+00 0. -1.
         11    1    3    3    0    0  0.66471058206E+00  0.28336533167E+01 -0.74211765549E+01  0.79715301541E+01  0.51100000000E-03 0. -1.
        -11    1    3    3    0    0 -0.17645906481E+02 -0.58683124535E+01 -0.70282939659E+01  0.19879940214E+02  0.51100000000E-03 0.  1.
         12    1    3    3    0    0 -0.20285040164E+02 -0.93516384621E+01  0.39151031697E+01  0.22677390265E+02  0.00000000000E+00 0. -1.
</event>
<event>
 7    1  0.2973028E-011  0.5052888E+02  0.7816164E-02  0.1300439E+00
        -11   -1    0    0    0    0  0.00000000000E+00  0.00000000000E+00  0.45593999997E+02  0.45594000000E+02  0.51100000000E-03 0.  1.
         11   -1    0    0    0    0 -0.00000000000E+00 -0.00000000000E+00 -0.45593999997E+02  0.45594000000E+02  0.51100000000E-03 0. -1.
    9900012    2    1    2    0    0 -0.48823460938E+01 -0.27508140696E+02  0.29540297685E+02  0.50528876850E+02  0.30000051674E+02 0.  0.
         12    1    1    2    0    0  0.48823460938E+01  0.27508140696E+02 -0.29540297685E+02  0.40659123150E+02  0.00000000000E+00 0. -1.
         11    1    3    3    0    0  0.79097583396E+01 -0.19009144155E+01  0.60455891225E+01  0.10135427998E+02  0.51100000000E-03 0. -1.
        -11    1    3    3    0    0 -0.16309898656E+02 -0.20168413558E+02  0.15949728174E+02  0.30449491436E+02  0.51100000000E-03 0.  1.
        -12    1    3    3    0    0  0.35177942228E+01 -0.54388127233E+01  0.75449803888E+01  0.99439574164E+01  0.00000000000E+00 0.  1.
</event>
<event>
 7    1  0.2973028E-011  0.5052884E+02  0.7816164E-02  0.1300439E+00
        -11   -1    0    0    0    0  0.00000000000E+00  0.00000000000E+00  0.45593999997E+02  0.45594000000E+02  0.51100000000E-03 0.  1.
         11   -1    0    0    0    0 -0.00000000000E+00 -0.00000000000E+00 -0.45593999997E+02  0.45594000000E+02  0.51100000000E-03 0. -1.
    9900012    2    1    2    0    0 -0.35298759250E+02  0.29786664731E+01  0.19957256126E+02  0.50528844443E+02  0.29999953168E+02 0.  0.
         12    1    1    2    0    0  0.35298759250E+02 -0.29786664731E+01 -0.19957256126E+02  0.40659155557E+02  0.00000000000E+00 0. -1.
         11    1    3    3    0    0 -0.27148879011E+02 -0.79116204360E+01  0.11708946320E+02  0.30606450197E+02  0.51100000000E-03 0. -1.
        -11    1    3    3    0    0 -0.85710157153E+01  0.10473805151E+02  0.10792518473E+02  0.17310151934E+02  0.51100000000E-03 0.  1.
         12    1    3    3    0    0  0.42113547606E+00  0.41648175777E+00 -0.25442086681E+01  0.26122423108E+01  0.00000000000E+00 0. -1.
</event>
<event>
 7    1  0.2973028E-011  0.5052886E+02  0.7816164E-02  0.1300439E+00
        -11   -1    0    0    0    0  0.00000000000E+00  0.00000000000E+00  0.45593999997E+02  0.45594000000E+02  0.51100000000E-03 0. -1.
         11   -1    0    0    0    0 -0.00000000000E+00 -0.00000000000E+00 -0.45593999997E+02  0.45594000000E+02  0.51100000000E-03 0.  1.
    9900012    2    1    2    0    0 -0.45485540371E+01 -0.10847963436E+02 -0.38920408310E+02  0.50528857885E+02  0.29999994026E+02 0.  0.
         12    1    1    2    0    0  0.45485540371E+01  0.10847963436E+02  0.38920408310E+02  0.40659142115E+02  0.00000000000E+00 0. -1.
         11    1    3    3    0    0 -0.76057282251E+01  0.35693779606E+01 -0.27648881607E+01  0.88448950057E+01  0.51100000000E-03 0. -1.
        -11    1    3    3    0    0  0.39621543198E+01 -0.14634773180E+02 -0.18128709887E+02  0.23633141461E+02  0.51100000000E-03 0.  1.
        -12    1    3    3    0    0 -0.90498013177E+00  0.21743178389E+00 -0.18026810263E+02  0.18050821418E+02  0.00000000000E+00 0.  1.
</event>
<event>
 7    1  0.2973028E-011  0.5052886E+02  0.7816164E-02  0.1300439E+00
        -11   -1    0    0    0    0  0.00000000000E+00  0.00000000000E+00  0.45593999997E+02  0.45594000000E+02  0.51100000000E-03 0.  1.
         11   -1    0    0    0    0 -0.00000000000E+00 -0.00000000000E+00 -0.45593999997E+02  0.45594000000E+02  0.51100000000E-03 0. -1.
    9900012    2    1    2    0    0  0.23298907158E+02 -0.20085869977E+02  0.26587296677E+02  0.50528860903E+02  0.30000003201E+02 0.  0.
         12    1    1    2    0    0 -0.23298907158E+02  0.20085869977E+02 -0.26587296677E+02  0.40659139097E+02  0.00000000000E+00 0. -1.
         11    1    3    3    0    0  0.61482423699E+01  0.60421904062E+01  0.37873664907E+01  0.94155772176E+01  0.51100000000E-03 0. -1.
        -11    1    3    3    0    0  0.13439418637E+02 -0.22204036236E+02  0.11103134058E+02  0.28229714569E+02  0.51100000000E-03 0.  1.
        -12    1    3    3    0    0  0.37112461511E+01 -0.39240241466E+01  0.11696796129E+02  0.12883569116E+02  0.00000000000E+00 0.  1.
</event>
<event>
 7    1  0.2973028E-011  0.5052886E+02  0.7816164E-02  0.1300439E+00
        -11   -1    0    0    0    0  0.00000000000E+00  0.00000000000E+00  0.45593999997E+02  0.45594000000E+02  0.51100000000E-03 0. -1.
         11   -1    0    0    0    0 -0.00000000000E+00 -0.00000000000E+00 -0.45593999997E+02  0.45594000000E+02  0.51100000000E-03 0.  1.
    9900012    2    1    2    0    0 -0.54201694729E+01 -0.40147153834E+02 -0.34632058954E+01  0.50528855971E+02  0.29999988209E+02 0.  0.
         12    1    1    2    0    0  0.54201694729E+01  0.40147153834E+02  0.34632058954E+01  0.40659144029E+02  0.00000000000E+00 0. -1.
         11    1    3    3    0    0 -0.10990697859E+02 -0.83915471057E+01  0.59015770321E+01  0.15034697004E+02  0.51100000000E-03 0. -1.
        -11    1    3    3    0    0 -0.45332157135E+00 -0.19291816111E+02 -0.98024002574E+01  0.21644092043E+02  0.51100000000E-03 0.  1.
        -12    1    3    3    0    0  0.60238499578E+01 -0.12463790618E+02  0.43761732988E+00  0.13850066924E+02  0.00000000000E+00 0.  1.
</event>
<event>
 7    1  0.2973028E-011  0.5052886E+02  0.7816164E-02  0.1300439E+00
        -11   -1    0    0    0    0  0.00000000000E+00  0.00000000000E+00  0.45593999997E+02  0.45594000000E+02  0.51100000000E-03 0.  1.
         11   -1    0    0    0    0 -0.00000000000E+00 -0.00000000000E+00 -0.45593999997E+02  0.45594000000E+02  0.51100000000E-03 0. -1.
    9900012    2    1    2    0    0  0.51085961334E+01  0.40244122167E+02  0.27346528108E+01  0.50528862657E+02  0.30000008533E+02 0.  0.
         12    1    1    2    0    0 -0.51085961334E+01 -0.40244122167E+02 -0.27346528108E+01  0.40659137343E+02  0.00000000000E+00 0. -1.
         11    1    3    3    0    0  0.82616391059E+00  0.53689996318E+01  0.12387702500E+02  0.13526414061E+02  0.51100000000E-03 0. -1.
        -11    1    3    3    0    0 -0.65045200172E+00  0.13928262923E+02 -0.59786525522E+01  0.15171152970E+02  0.51100000000E-03 0.  1.
         12    1    3    3    0    0  0.49328842246E+01  0.20946859613E+02 -0.36743971368E+01  0.21831295626E+02  0.00000000000E+00 0. -1.
</event>
<event>
 7    1  0.2973028E-011  0.5052886E+02  0.7816164E-02  0.1300439E+00
        -11   -1    0    0    0    0  0.00000000000E+00  0.00000000000E+00  0.45593999997E+02  0.45594000000E+02  0.51100000000E-03 0.  1.
         11   -1    0    0    0    0 -0.00000000000E+00 -0.00000000000E+00 -0.45593999997E+02  0.45594000000E+02  0.51100000000E-03 0. -1.
    9900012    2    1    2    0    0 -0.24688679276E+01 -0.99753541100E+01  0.39339071101E+02  0.50528861869E+02  0.30000006138E+02 0.  0.
         12    1    1    2    0    0  0.24688679276E+01  0.99753541100E+01 -0.39339071101E+02  0.40659138131E+02  0.00000000000E+00 0. -1.
         11    1    3    3    0    0 -0.22473106176E+01  0.77948781094E+01  0.18082492686E+02  0.19818856470E+02  0.51100000000E-03 0. -1.
        -11    1    3    3    0    0  0.18918028809E+01 -0.17344267273E+02  0.22300603246E+02  0.28314650461E+02  0.51100000000E-03 0.  1.
        -12    1    3    3    0    0 -0.21133601910E+01 -0.42596494660E+00 -0.10440248314E+01  0.23953549385E+01  0.00000000000E+00 0.  1.
</event>
<event>
 7    1  0.2973028E-011  0.5052886E+02  0.7816164E-02  0.1300439E+00
        -11   -1    0    0    0    0  0.00000000000E+00  0.00000000000E+00  0.45593999997E+02  0.45594000000E+02  0.51100000000E-03 0. -1.
         11   -1    0    0    0    0 -0.00000000000E+00 -0.00000000000E+00 -0.45593999997E+02  0.45594000000E+02  0.51100000000E-03 0.  1.
    9900012    2    1    2    0    0  0.67286685191E+00 -0.74671418518E+01 -0.39961916779E+02  0.50528858963E+02  0.29999997303E+02 0.  0.
         12    1    1    2    0    0 -0.67286685191E+00  0.74671418518E+01  0.39961916779E+02  0.40659141037E+02  0.00000000000E+00 0. -1.
         11    1    3    3    0    0 -0.16085286541E+01 -0.56542340306E+00  0.40263879960E+01  0.43725128486E+01  0.51100000000E-03 0. -1.
        -11    1    3    3    0    0  0.46876341545E+01 -0.72513255140E+01 -0.17080869063E+02  0.19139271770E+02  0.51100000000E-03 0.  1.
         12    1    3    3    0    0 -0.24062386486E+01  0.34960706521E+00 -0.26907435712E+02  0.27017074345E+02  0.00000000000E+00 0. -1.
</event>
<event>
 7    1  0.2973028E-011  0.5052885E+02  0.7816164E-02  0.1300439E+00
        -11   -1    0    0    0    0  0.00000000000E+00  0.00000000000E+00  0.45593999997E+02  0.45594000000E+02  0.51100000000E-03 0.  1.
         11   -1    0    0    0    0 -0.00000000000E+00 -0.00000000000E+00 -0.45593999997E+02  0.45594000000E+02  0.51100000000E-03 0. -1.
    9900012    2    1    2    0    0  0.18806788734E+02  0.34693687892E+02  0.97887082943E+01  0.50528854755E+02  0.29999984512E+02 0.  0.
         12    1    1    2    0    0 -0.18806788734E+02 -0.34693687892E+02 -0.97887082943E+01  0.40659145245E+02  0.00000000000E+00 0. -1.
         11    1    3    3    0    0 -0.15584902254E+01  0.61079042464E+01  0.11579927652E+01  0.64090821161E+01  0.51100000000E-03 0. -1.
        -11    1    3    3    0    0  0.18973441224E+02  0.15401872208E+02 -0.51746773112E+01  0.24979720273E+02  0.51100000000E-03 0.  1.
        -12    1    3    3    0    0  0.13918377356E+01  0.13183911437E+02  0.13805392840E+02  0.19140052365E+02  0.00000000000E+00 0.  1.
</event>
<event>
 7    1  0.2973028E-011  0.5052886E+02  0.7816164E-02  0.1300439E+00
        -11   -1    0    0    0    0  0.00000000000E+00  0.00000000000E+00  0.45593999997E+02  0.45594000000E+02  0.51100000000E-03 0.  1.
         11   -1    0    0    0    0 -0.00000000000E+00 -0.00000000000E+00 -0.45593999997E+02  0.45594000000E+02  0.51100000000E-03 0. -1.
    9900012    2    1    2    0    0 -0.16715759914E+02  0.14852873770E+02  0.33957928180E+02  0.50528863572E+02  0.30000011315E+02 0.  0.
         12    1    1    2    0    0  0.16715759914E+02 -0.14852873770E+02 -0.33957928180E+02  0.40659136428E+02  0.00000000000E+00 0. -1.
         11    1    3    3    0    0 -0.13173737492E+02 -0.99326508761E+00  0.47185191261E+01  0.14028483811E+02  0.51100000000E-03 0. -1.
        -11    1    3    3    0    0  0.10073559903E+01  0.56686617762E+01  0.23031939330E+02  0.23740655467E+02  0.51100000000E-03 0.  1.
         12    1    3    3    0    0 -0.45493784125E+01  0.10177477082E+02  0.62074697236E+01  0.12759724294E+02  0.00000000000E+00 0. -1.
</event>
<event>
 7    1  0.2973028E-011  0.5052888E+02  0.7816164E-02  0.1300439E+00
        -11   -1    0    0    0    0  0.00000000000E+00  0.00000000000E+00  0.45593999997E+02  0.45594000000E+02  0.51100000000E-03 0.  1.
         11   -1    0    0    0    0 -0.00000000000E+00 -0.00000000000E+00 -0.45593999997E+02  0.45594000000E+02  0.51100000000E-03 0. -1.
    9900012    2    1    2    0    0 -0.10058157599E+02 -0.37054623722E+02  0.13377296406E+02  0.50528883770E+02  0.30000072706E+02 0.  0.
         12    1    1    2    0    0  0.10058157599E+02  0.37054623722E+02 -0.13377296406E+02  0.40659116230E+02  0.00000000000E+00 0. -1.
         11    1    3    3    0    0 -0.15593892854E+02 -0.28831794212E+02 -0.60627235977E+00  0.32784286149E+02  0.51100000000E-03 0. -1.
        -11    1    3    3    0    0  0.49142200608E+01 -0.73608775663E+01  0.89015874742E+01  0.12552702385E+02  0.51100000000E-03 0.  1.
        -12    1    3    3    0    0  0.62151519418E+00 -0.86195194384E+00  0.50819812917E+01  0.51918952358E+01  0.00000000000E+00 0.  1.
</event>
<event>
 7    1  0.2973028E-011  0.5052884E+02  0.7816164E-02  0.1300439E+00
        -11   -1    0    0    0    0  0.00000000000E+00  0.00000000000E+00  0.45593999997E+02  0.45594000000E+02  0.51100000000E-03 0.  1.
         11   -1    0    0    0    0 -0.00000000000E+00 -0.00000000000E+00 -0.45593999997E+02  0.45594000000E+02  0.51100000000E-03 0. -1.
    9900012    2    1    2    0    0  0.35245946007E+02 -0.19436968289E+01  0.20177037642E+02  0.50528837253E+02  0.29999931315E+02 0.  0.
         12    1    1    2    0    0 -0.35245946007E+02  0.19436968289E+01 -0.20177037642E+02  0.40659162747E+02  0.00000000000E+00 0. -1.
         11    1    3    3    0    0  0.73251744818E+01  0.43273208335E+01 -0.23703348447E+01  0.88318952848E+01  0.51100000000E-03 0. -1.
        -11    1    3    3    0    0  0.94613118958E+01 -0.16815740620E+01  0.20405870365E+02  0.22555346589E+02  0.51100000000E-03 0.  1.
        -12    1    3    3    0    0  0.18459459629E+02 -0.45894436005E+01  0.21415021213E+01  0.19141595380E+02  0.00000000000E+00 0.  1.
</event>
<event>
 7    1  0.2973028E-011  0.5052885E+02  0.7816164E-02  0.1300439E+00
        -11   -1    0    0    0    0  0.00000000000E+00  0.00000000000E+00  0.45593999997E+02  0.45594000000E+02  0.51100000000E-03 0.  1.
         11   -1    0    0    0    0 -0.00000000000E+00 -0.00000000000E+00 -0.45593999997E+02  0.45594000000E+02  0.51100000000E-03 0. -1.
    9900012    2    1    2    0    0 -0.39135486707E+02  0.10769708268E+02 -0.23649837128E+01  0.50528854854E+02  0.29999984816E+02 0.  0.
         12    1    1    2    0    0  0.39135486707E+02 -0.10769708268E+02  0.23649837128E+01  0.40659145146E+02  0.00000000000E+00 0. -1.
         11    1    3    3    0    0 -0.29678943708E+01 -0.43790423782E+01 -0.46880919911E+01  0.70684238642E+01  0.51100000000E-03 0. -1.
        -11    1    3    3    0    0 -0.24644213799E+02  0.19101838047E+02  0.24576891182E+01  0.31277111865E+02  0.51100000000E-03 0.  1.
        -12    1    3    3    0    0 -0.11523378538E+02 -0.39530874002E+01 -0.13458083994E+00  0.12183319126E+02  0.00000000000E+00 0.  1.
</event>
<event>
 7    1  0.2973028E-011  0.5052886E+02  0.7816164E-02  0.1300439E+00
        -11   -1    0    0    0    0  0.00000000000E+00  0.00000000000E+00  0.45593999997E+02  0.45594000000E+02  0.51100000000E-03 0.  1.
         11   -1    0    0    0    0 -0.00000000000E+00 -0.00000000000E+00 -0.45593999997E+02  0.45594000000E+02  0.51100000000E-03 0. -1.
    9900012    2    1    2    0    0 -0.21850166504E+02 -0.32145058760E+02  0.11934444080E+02  0.50528861612E+02  0.30000005355E+02 0.  0.
         12    1    1    2    0    0  0.21850166504E+02  0.32145058760E+02 -0.11934444080E+02  0.40659138388E+02  0.00000000000E+00 0. -1.
         11    1    3    3    0    0 -0.23107461077E+01 -0.88122890746E+01 -0.63614015784E+01  0.11111409299E+02  0.51100000000E-03 0. -1.
        -11    1    3    3    0    0 -0.12573872893E+02 -0.18815385783E+02  0.20809214336E+02  0.30743201252E+02  0.51100000000E-03 0.  1.
        -12    1    3    3    0    0 -0.69655475040E+01 -0.45173839030E+01 -0.25133686774E+01  0.86742510608E+01  0.00000000000E+00 0.  1.
</event>
<event>
 7    1  0.2973028E-011  0.5052886E+02  0.7816164E-02  0.1300439E+00
        -11   -1    0    0    0    0  0.00000000000E+00  0.00000000000E+00  0.45593999997E+02  0.45594000000E+02  0.51100000000E-03 0.  1.
         11   -1    0    0    0    0 -0.00000000000E+00 -0.00000000000E+00 -0.45593999997E+02  0.45594000000E+02  0.51100000000E-03 0. -1.
    9900012    2    1    2    0    0  0.22381006426E+02 -0.25010692108E+02  0.22950415670E+02  0.50528858989E+02  0.29999997383E+02 0.  0.
         12    1    1    2    0    0 -0.22381006426E+02  0.25010692108E+02 -0.22950415670E+02  0.40659141011E+02  0.00000000000E+00 0. -1.
         11    1    3    3    0    0 -0.42792295538E+00 -0.12704878593E+02  0.41228711266E+01  0.13363948695E+02  0.51100000000E-03 0. -1.
        -11    1    3    3    0    0  0.23564346469E+02 -0.13138365041E+02  0.21348753180E+02  0.34404423016E+02  0.51100000000E-03 0.  1.
        -12    1    3    3    0    0 -0.75541708784E+00  0.83255152687E+00 -0.25212086369E+01  0.27604872780E+01  0.00000000000E+00 0.  1.
</event>
<event>
 7    1  0.2973028E-011  0.5052885E+02  0.7816164E-02  0.1300439E+00
        -11   -1    0    0    0    0  0.00000000000E+00  0.00000000000E+00  0.45593999997E+02  0.45594000000E+02  0.51100000000E-03 0.  1.
         11   -1    0    0    0    0 -0.00000000000E+00 -0.00000000000E+00 -0.45593999997E+02  0.45594000000E+02  0.51100000000E-03 0. -1.
    9900012    2    1    2    0    0  0.21813312649E+02  0.54044394981E+01  0.33884181159E+02  0.50528852102E+02  0.29999976449E+02 0.  0.
         12    1    1    2    0    0 -0.21813312649E+02 -0.54044394981E+01 -0.33884181159E+02  0.40659147898E+02  0.00000000000E+00 0. -1.
         11    1    3    3    0    0  0.11522656331E+02 -0.87180001854E+01  0.71335516165E+01  0.16114052721E+02  0.51100000000E-03 0. -1.
        -11    1    3    3    0    0  0.63166752733E+01  0.13799016412E+02  0.12636378295E+02  0.19748197313E+02  0.51100000000E-03 0.  1.
        -12    1    3    3    0    0  0.39739810446E+01  0.32342327142E+00  0.14114251247E+02  0.14666602068E+02  0.00000000000E+00 0.  1.
</event>
<event>
 7    1  0.2973028E-011  0.5052873E+02  0.7816164E-02  0.1300439E+00
        -11   -1    0    0    0    0  0.00000000000E+00  0.00000000000E+00  0.45593999997E+02  0.45594000000E+02  0.51100000000E-03 0.  1.
         11   -1    0    0    0    0 -0.00000000000E+00 -0.00000000000E+00 -0.45593999997E+02  0.45594000000E+02  0.51100000000E-03 0. -1.
    9900012    2    1    2    0    0  0.36073946815E+02  0.18553242175E+02 -0.27611710277E+01  0.50528726771E+02  0.29999595492E+02 0.  0.
         12    1    1    2    0    0 -0.36073946815E+02 -0.18553242175E+02  0.27611710277E+01  0.40659273229E+02  0.00000000000E+00 0. -1.
         11    1    3    3    0    0  0.47718836712E+00 -0.53394423482E+01  0.45067699481E+01  0.70034512173E+01  0.51100000000E-03 0. -1.
        -11    1    3    3    0    0  0.23275315406E+02  0.16690319433E+02 -0.47036752782E+01  0.29024672805E+02  0.51100000000E-03 0.  1.
         12    1    3    3    0    0  0.12321443042E+02  0.72023650901E+01 -0.25642656976E+01  0.14500602749E+02  0.00000000000E+00 0. -1.
</event>
<event>
 7    1  0.2973028E-011  0.5052887E+02  0.7816164E-02  0.1300439E+00
        -11   -1    0    0    0    0  0.00000000000E+00  0.00000000000E+00  0.45593999997E+02  0.45594000000E+02  0.51100000000E-03 0.  1.
         11   -1    0    0    0    0 -0.00000000000E+00 -0.00000000000E+00 -0.45593999997E+02  0.45594000000E+02  0.51100000000E-03 0. -1.
    9900012    2    1    2    0    0  0.17659572336E+02  0.29164045237E+02  0.22153173031E+02  0.50528866893E+02  0.30000021407E+02 0.  0.
         12    1    1    2    0    0 -0.17659572336E+02 -0.29164045237E+02 -0.22153173031E+02  0.40659133107E+02  0.00000000000E+00 0. -1.
         11    1    3    3    0    0  0.20806020056E+02  0.89159886083E+01  0.10930525659E+02  0.25136859686E+02  0.51100000000E-03 0. -1.
        -11    1    3    3    0    0 -0.65929925735E+00  0.18385035142E+02  0.60655057923E+01  0.19370971929E+02  0.51100000000E-03 0.  1.
         12    1    3    3    0    0 -0.24871484631E+01  0.18630214866E+01  0.51571415798E+01  0.60210352774E+01  0.00000000000E+00 0. -1.
</event>
<event>
 7    1  0.2973028E-011  0.5052886E+02  0.7816164E-02  0.1300439E+00
        -11   -1    0    0    0    0  0.00000000000E+00  0.00000000000E+00  0.45593999997E+02  0.45594000000E+02  0.51100000000E-03 0.  1.
         11   -1    0    0    0    0 -0.00000000000E+00 -0.00000000000E+00 -0.45593999997E+02  0.45594000000E+02  0.51100000000E-03 0. -1.
    9900012    2    1    2    0    0  0.26926380170E+02 -0.15008764953E+02  0.26511747463E+02  0.50528859231E+02  0.29999998119E+02 0.  0.
         12    1    1    2    0    0 -0.26926380170E+02  0.15008764953E+02 -0.26511747463E+02  0.40659140769E+02  0.00000000000E+00 0. -1.
         11    1    3    3    0    0  0.19800553434E+02 -0.49543270332E+01  0.22006713160E+01  0.20529252961E+02  0.51100000000E-03 0. -1.
        -11    1    3    3    0    0  0.72817992428E+01 -0.12772771571E+02  0.18931207451E+02  0.23969958482E+02  0.51100000000E-03 0.  1.
         12    1    3    3    0    0 -0.15597250610E+00  0.27183336510E+01  0.53798686965E+01  0.60296477884E+01  0.00000000000E+00 0. -1.
</event>
<event>
 7    1  0.2973028E-011  0.5052886E+02  0.7816164E-02  0.1300439E+00
        -11   -1    0    0    0    0  0.00000000000E+00  0.00000000000E+00  0.45593999997E+02  0.45594000000E+02  0.51100000000E-03 0.  1.
         11   -1    0    0    0    0 -0.00000000000E+00 -0.00000000000E+00 -0.45593999997E+02  0.45594000000E+02  0.51100000000E-03 0. -1.
    9900012    2    1    2    0    0  0.12557012631E+02  0.30118131583E+02  0.24256658267E+02  0.50528857282E+02  0.29999992195E+02 0.  0.
         12    1    1    2    0    0 -0.12557012631E+02 -0.30118131583E+02 -0.24256658267E+02  0.40659142718E+02  0.00000000000E+00 0. -1.
         11    1    3    3    0    0 -0.39577985680E+01  0.23191812905E+01  0.90705983790E+01  0.10164572130E+02  0.51100000000E-03 0. -1.
        -11    1    3    3    0    0  0.84536955099E+01  0.55060565944E+01 -0.29563849656E+01  0.10512936760E+02  0.51100000000E-03 0.  1.
        -12    1    3    3    0    0  0.80611156893E+01  0.22292893698E+02  0.18142444853E+02  0.29851348393E+02  0.00000000000E+00 0.  1.
</event>
<event>
 7    1  0.2973028E-011  0.5052886E+02  0.7816164E-02  0.1300439E+00
        -11   -1    0    0    0    0  0.00000000000E+00  0.00000000000E+00  0.45593999997E+02  0.45594000000E+02  0.51100000000E-03 0.  1.
         11   -1    0    0    0    0 -0.00000000000E+00 -0.00000000000E+00 -0.45593999997E+02  0.45594000000E+02  0.51100000000E-03 0. -1.
    9900012    2    1    2    0    0  0.31815109221E+02 -0.32091296718E+01  0.25113069946E+02  0.50528856254E+02  0.29999989071E+02 0.  0.
         12    1    1    2    0    0 -0.31815109221E+02  0.32091296718E+01 -0.25113069946E+02  0.40659143746E+02  0.00000000000E+00 0. -1.
         11    1    3    3    0    0  0.17559733162E+02 -0.28377093433E+01  0.26774142731E+02  0.32144230311E+02  0.51100000000E-03 0. -1.
        -11    1    3    3    0    0  0.81453657312E+01  0.52670587760E+01 -0.25321258496E+01  0.10024996390E+02  0.51100000000E-03 0.  1.
        -12    1    3    3    0    0  0.61100103282E+01 -0.56384791044E+01  0.87105306419E+00  0.83596295529E+01  0.00000000000E+00 0.  1.
</event>
<event>
 7    1  0.2973028E-011  0.5052886E+02  0.7816164E-02  0.1300439E+00
        -11   -1    0    0    0    0  0.00000000000E+00  0.00000000000E+00  0.45593999997E+02  0.45594000000E+02  0.51100000000E-03 0. -1.
         11   -1    0    0    0    0 -0.00000000000E+00 -0.00000000000E+00 -0.45593999997E+02  0.45594000000E+02  0.51100000000E-03 0.  1.
    9900012    2    1    2    0    0  0.24426371256E+02  0.32470391847E+02 -0.14805256773E+01  0.50528856923E+02  0.29999991105E+02 0.  0.
         12    1    1    2    0    0 -0.24426371256E+02 -0.32470391847E+02  0.14805256773E+01  0.40659143077E+02  0.00000000000E+00 0. -1.
         11    1    3    3    0    0  0.37118014468E+00  0.14697956728E+02 -0.62399721284E+01  0.15972005482E+02  0.51100000000E-03 0. -1.
        -11    1    3    3    0    0  0.18290204204E+02  0.16795515227E+02  0.99375023016E+01  0.26746492365E+02  0.51100000000E-03 0.  1.
        -12    1    3    3    0    0  0.57649869073E+01  0.97691989152E+00 -0.51780558505E+01  0.78103590767E+01  0.00000000000E+00 0.  1.
</event>
<event>
 7    1  0.2973028E-011  0.5052887E+02  0.7816164E-02  0.1300439E+00
        -11   -1    0    0    0    0  0.00000000000E+00  0.00000000000E+00  0.45593999997E+02  0.45594000000E+02  0.51100000000E-03 0.  1.
         11   -1    0    0    0    0 -0.00000000000E+00 -0.00000000000E+00 -0.45593999997E+02  0.45594000000E+02  0.51100000000E-03 0. -1.
    9900012    2    1    2    0    0  0.31866983929E+02 -0.25770784133E+01  0.25120095601E+02  0.50528865714E+02  0.30000017824E+02 0.  0.
         12    1    1    2    0    0 -0.31866983929E+02  0.25770784133E+01 -0.25120095601E+02  0.40659134286E+02  0.00000000000E+00 0. -1.
         11    1    3    3    0    0  0.37102947845E+01 -0.27179688401E+01 -0.54804260310E+01  0.71546286938E+01  0.51100000000E-03 0. -1.
        -11    1    3    3    0    0  0.24759279070E+02  0.12092254537E+01  0.31108070351E+02  0.39776829530E+02  0.51100000000E-03 0.  1.
        -12    1    3    3    0    0  0.33974100753E+01 -0.10683350269E+01 -0.50754871905E+00  0.35974074904E+01  0.00000000000E+00 0.  1.
</event>
<event>
 7    1  0.2973028E-011  0.5052886E+02  0.7816164E-02  0.1300439E+00
        -11   -1    0    0    0    0  0.00000000000E+00  0.00000000000E+00  0.45593999997E+02  0.45594000000E+02  0.51100000000E-03 0.  1.
         11   -1    0    0    0    0 -0.00000000000E+00 -0.00000000000E+00 -0.45593999997E+02  0.45594000000E+02  0.51100000000E-03 0. -1.
    9900012    2    1    2    0    0 -0.30338934462E+02 -0.25915226009E+02  0.78176327167E+01  0.50528864929E+02  0.30000015439E+02 0.  0.
         12    1    1    2    0    0  0.30338934462E+02  0.25915226009E+02 -0.78176327167E+01  0.40659135071E+02  0.00000000000E+00 0. -1.
         11    1    3    3    0    0 -0.49442188106E+01  0.18091099181E+00 -0.70815140448E+01  0.86386266190E+01  0.51100000000E-03 0. -1.
        -11    1    3    3    0    0 -0.21495303880E+02 -0.12307946270E+02  0.83885065141E+01  0.26151494643E+02  0.51100000000E-03 0.  1.
         12    1    3    3    0    0 -0.38994117720E+01 -0.13788190730E+02  0.65106402474E+01  0.15738743667E+02  0.00000000000E+00 0. -1.
</event>
<event>
 7    1  0.2973028E-011  0.5052886E+02  0.7816164E-02  0.1300439E+00
        -11   -1    0    0    0    0  0.00000000000E+00  0.00000000000E+00  0.45593999997E+02  0.45594000000E+02  0.51100000000E-03 0.  1.
         11   -1    0    0    0    0 -0.00000000000E+00 -0.00000000000E+00 -0.45593999997E+02  0.45594000000E+02  0.51100000000E-03 0. -1.
    9900012    2    1    2    0    0 -0.17345203899E+02 -0.24429143329E+01  0.36692527788E+02  0.50528861738E+02  0.30000005740E+02 0.  0.
         12    1    1    2    0    0  0.17345203899E+02  0.24429143329E+01 -0.36692527788E+02  0.40659138262E+02  0.00000000000E+00 0. -1.
         11    1    3    3    0    0  0.67730760521E+01 -0.22222187375E+01  0.84808570344E+01  0.11078707128E+02  0.51100000000E-03 0. -1.
        -11    1    3    3    0    0 -0.23362844902E+02 -0.39879394308E+01  0.24917807948E+02  0.34389291007E+02  0.51100000000E-03 0.  1.
        -12    1    3    3    0    0 -0.75543504901E+00  0.37672438354E+01  0.32938628056E+01  0.50608636032E+01  0.00000000000E+00 0.  1.
</event>
<event>
 7    1  0.2973028E-011  0.5052888E+02  0.7816164E-02  0.1300439E+00
        -11   -1    0    0    0    0  0.00000000000E+00  0.00000000000E+00  0.45593999997E+02  0.45594000000E+02  0.51100000000E-03 0.  1.
         11   -1    0    0    0    0 -0.00000000000E+00 -0.00000000000E+00 -0.45593999997E+02  0.45594000000E+02  0.51100000000E-03 0. -1.
    9900012    2    1    2    0    0  0.25260835520E+02  0.11443973925E+02  0.29733650465E+02  0.50528876542E+02  0.30000050738E+02 0.  0.
         12    1    1    2    0    0 -0.25260835520E+02 -0.11443973925E+02 -0.29733650465E+02  0.40659123458E+02  0.00000000000E+00 0. -1.
         11    1    3    3    0    0 -0.30069650390E+01  0.90747106479E+01  0.67811731883E+01  0.11720773104E+02  0.51100000000E-03 0.  1.
        -11    1    3    3    0    0  0.14819048219E+02 -0.44064754775E+01  0.15906942616E+02  0.22182246052E+02  0.51100000000E-03 0. -1.
         12    1    3    3    0    0  0.13448752340E+02  0.67757387546E+01  0.70455346610E+01  0.16625857386E+02  0.00000000000E+00 0. -1.
</event>
<event>
 7    1  0.2973028E-011  0.5052886E+02  0.7816164E-02  0.1300439E+00
        -11   -1    0    0    0    0  0.00000000000E+00  0.00000000000E+00  0.45593999997E+02  0.45594000000E+02  0.51100000000E-03 0.  1.
         11   -1    0    0    0    0 -0.00000000000E+00 -0.00000000000E+00 -0.45593999997E+02  0.45594000000E+02  0.51100000000E-03 0. -1.
    9900012    2    1    2    0    0  0.22570659480E+02 -0.11064248205E+02  0.31957989060E+02  0.50528864219E+02  0.30000013280E+02 0.  0.
         12    1    1    2    0    0 -0.22570659480E+02  0.11064248205E+02 -0.31957989060E+02  0.40659135781E+02  0.00000000000E+00 0. -1.
         11    1    3    3    0    0  0.26745810678E+02 -0.75808065068E+01  0.14909496359E+02  0.31545207212E+02  0.51100000000E-03 0. -1.
        -11    1    3    3    0    0 -0.31243436615E+01 -0.43722392361E+01  0.16728793165E+02  0.17570729077E+02  0.51100000000E-03 0.  1.
        -12    1    3    3    0    0 -0.10508075370E+01  0.88879753768E+00  0.31969953588E+00  0.14129279303E+01  0.00000000000E+00 0.  1.
</event>
<event>
 7    1  0.2973028E-011  0.5052885E+02  0.7816164E-02  0.1300439E+00
        -11   -1    0    0    0    0  0.00000000000E+00  0.00000000000E+00  0.45593999997E+02  0.45594000000E+02  0.51100000000E-03 0.  1.
         11   -1    0    0    0    0 -0.00000000000E+00 -0.00000000000E+00 -0.45593999997E+02  0.45594000000E+02  0.51100000000E-03 0. -1.
    9900012    2    1    2    0    0  0.28310274339E+01  0.32911671929E+02  0.23705980755E+02  0.50528851103E+02  0.29999973412E+02 0.  0.
         12    1    1    2    0    0 -0.28310274339E+01 -0.32911671929E+02 -0.23705980755E+02  0.40659148897E+02  0.00000000000E+00 0. -1.
         11    1    3    3    0    0  0.36131156262E+01  0.28864034050E+01  0.12130483953E+02  0.12982086517E+02  0.51100000000E-03 0. -1.
        -11    1    3    3    0    0 -0.29993646380E+01  0.27987980921E+02  0.15860857009E+02  0.32309287358E+02  0.51100000000E-03 0.  1.
        -12    1    3    3    0    0  0.22172764456E+01  0.20372876035E+01 -0.42853602065E+01  0.52374772281E+01  0.00000000000E+00 0.  1.
</event>
<event>
 7    1  0.2973028E-011  0.5052886E+02  0.7816164E-02  0.1300439E+00
        -11   -1    0    0    0    0  0.00000000000E+00  0.00000000000E+00  0.45593999997E+02  0.45594000000E+02  0.51100000000E-03 0. -1.
         11   -1    0    0    0    0 -0.00000000000E+00 -0.00000000000E+00 -0.45593999997E+02  0.45594000000E+02  0.51100000000E-03 0.  1.
    9900012    2    1    2    0    0 -0.73011740262E+01  0.26007828384E+02 -0.30388343496E+02  0.50528859578E+02  0.29999999174E+02 0.  0.
         12    1    1    2    0    0  0.73011740262E+01 -0.26007828384E+02  0.30388343496E+02  0.40659140422E+02  0.00000000000E+00 0. -1.
         11    1    3    3    0    0 -0.10225078191E+02 -0.19856877121E+01 -0.73091610607E+01  0.12724740287E+02  0.51100000000E-03 0. -1.
        -11    1    3    3    0    0  0.34404182766E+01  0.87343419997E+01 -0.13073474204E+02  0.16094748713E+02  0.51100000000E-03 0.  1.
         12    1    3    3    0    0 -0.51651411157E+00  0.19259174096E+02 -0.10005708231E+02  0.21709370578E+02  0.00000000000E+00 0. -1.
</event>
<event>
 7    1  0.2973028E-011  0.5052886E+02  0.7816164E-02  0.1300439E+00
        -11   -1    0    0    0    0  0.00000000000E+00  0.00000000000E+00  0.45593999997E+02  0.45594000000E+02  0.51100000000E-03 0.  1.
         11   -1    0    0    0    0 -0.00000000000E+00 -0.00000000000E+00 -0.45593999997E+02  0.45594000000E+02  0.51100000000E-03 0. -1.
    9900012    2    1    2    0    0 -0.10785110230E+02 -0.38434990256E+02  0.77200174383E+01  0.50528858987E+02  0.29999997377E+02 0.  0.
         12    1    1    2    0    0  0.10785110230E+02  0.38434990256E+02 -0.77200174383E+01  0.40659141013E+02  0.00000000000E+00 0. -1.
         11    1    3    3    0    0 -0.19392241604E+02 -0.17183314412E+02  0.16370913660E+01  0.25961613914E+02  0.51100000000E-03 0. -1.
        -11    1    3    3    0    0  0.67761112650E+01 -0.12752470631E+02  0.65575559757E+01  0.15860098729E+02  0.51100000000E-03 0.  1.
        -12    1    3    3    0    0  0.18310201095E+01 -0.84992052136E+01 -0.47462990338E+00  0.87071463436E+01  0.00000000000E+00 0.  1.
</event>
<event>
 7    1  0.2973028E-011  0.5052885E+02  0.7816164E-02  0.1300439E+00
        -11   -1    0    0    0    0  0.00000000000E+00  0.00000000000E+00  0.45593999997E+02  0.45594000000E+02  0.51100000000E-03 0. -1.
         11   -1    0    0    0    0 -0.00000000000E+00 -0.00000000000E+00 -0.45593999997E+02  0.45594000000E+02  0.51100000000E-03 0.  1.
    9900012    2    1    2    0    0  0.34529111604E+02  0.10608261470E+02 -0.18664714757E+02  0.50528851748E+02  0.29999975373E+02 0.  0.
         12    1    1    2    0    0 -0.34529111604E+02 -0.10608261470E+02  0.18664714757E+02  0.40659148252E+02  0.00000000000E+00 0. -1.
         11    1    3    3    0    0 -0.32994774445E+01  0.24822865471E+00 -0.44310483120E+01  0.55301318499E+01  0.51100000000E-03 0. -1.
        -11    1    3    3    0    0  0.30963880027E+02  0.85585074710E+01 -0.37561485468E+01  0.32343756254E+02  0.51100000000E-03 0.  1.
        -12    1    3    3    0    0  0.68647090222E+01  0.18015253447E+01 -0.10477517898E+02  0.12654963644E+02  0.00000000000E+00 0.  1.
</event>
<event>
 7    1  0.2973028E-011  0.5052887E+02  0.7816164E-02  0.1300439E+00
        -11   -1    0    0    0    0  0.00000000000E+00  0.00000000000E+00  0.45593999997E+02  0.45594000000E+02  0.51100000000E-03 0. -1.
         11   -1    0    0    0    0 -0.00000000000E+00 -0.00000000000E+00 -0.45593999997E+02  0.45594000000E+02  0.51100000000E-03 0.  1.
    9900012    2    1    2    0    0  0.28518630092E+02 -0.28979810552E+02  0.15255015165E+00  0.50528868757E+02  0.30000027072E+02 0.  0.
         12    1    1    2    0    0 -0.28518630092E+02  0.28979810552E+02 -0.15255015165E+00  0.40659131243E+02  0.00000000000E+00 0. -1.
         11    1    3    3    0    0 -0.47544962059E+01 -0.36885148711E+01  0.36232355285E+01  0.70241164627E+01  0.51100000000E-03 0. -1.
        -11    1    3    3    0    0  0.25806719043E+02 -0.24640327315E+02 -0.44055874068E+01  0.35951935673E+02  0.51100000000E-03 0.  1.
         12    1    3    3    0    0  0.74664072548E+01 -0.65096836544E+00  0.93490202998E+00  0.75528166212E+01  0.00000000000E+00 0. -1.
</event>
<event>
 7    1  0.2973028E-011  0.5052892E+02  0.7816164E-02  0.1300439E+00
        -11   -1    0    0    0    0  0.00000000000E+00  0.00000000000E+00  0.45593999997E+02  0.45594000000E+02  0.51100000000E-03 0.  1.
         11   -1    0    0    0    0 -0.00000000000E+00 -0.00000000000E+00 -0.45593999997E+02  0.45594000000E+02  0.51100000000E-03 0. -1.
    9900012    2    1    2    0    0 -0.49694324236E+01  0.38492860903E+02  0.12114654931E+02  0.50528923975E+02  0.30000194914E+02 0.  0.
         12    1    1    2    0    0  0.49694324236E+01 -0.38492860903E+02 -0.12114654931E+02  0.40659076025E+02  0.00000000000E+00 0. -1.
         11    1    3    3    0    0 -0.20904295173E+01  0.34422700376E+01  0.13700970431E+02  0.14280606065E+02  0.51100000000E-03 0. -1.
        -11    1    3    3    0    0 -0.59678314685E+00  0.17869801646E+01  0.19597486835E+01  0.27184671042E+01  0.51100000000E-03 0.  1.
         12    1    3    3    0    0 -0.22822197594E+01  0.33263610700E+02 -0.35460641832E+01  0.33529850806E+02  0.00000000000E+00 0. -1.
</event>
<event>
 7    1  0.2973028E-011  0.5052884E+02  0.7816164E-02  0.1300439E+00
        -11   -1    0    0    0    0  0.00000000000E+00  0.00000000000E+00  0.45593999997E+02  0.45594000000E+02  0.51100000000E-03 0.  1.
         11   -1    0    0    0    0 -0.00000000000E+00 -0.00000000000E+00 -0.45593999997E+02  0.45594000000E+02  0.51100000000E-03 0. -1.
    9900012    2    1    2    0    0 -0.48256564801E+01 -0.33421318421E+02 -0.22647195691E+02  0.50528844104E+02  0.29999952140E+02 0.  0.
         12    1    1    2    0    0  0.48256564801E+01  0.33421318421E+02  0.22647195691E+02  0.40659155896E+02  0.00000000000E+00 0. -1.
         11    1    3    3    0    0 -0.37866587291E+01 -0.90318330204E+00 -0.14603030734E+01  0.41577649928E+01  0.51100000000E-03 0. -1.
        -11    1    3    3    0    0 -0.27556299219E+01 -0.30045268700E+02 -0.58395390190E+01  0.30731285097E+02  0.51100000000E-03 0.  1.
        -12    1    3    3    0    0  0.17166321708E+01 -0.24728664192E+01 -0.15347353598E+02  0.15639794014E+02  0.00000000000E+00 0.  1.
</event>
<event>
 7    1  0.2973028E-011  0.5052887E+02  0.7816164E-02  0.1300439E+00
        -11   -1    0    0    0    0  0.00000000000E+00  0.00000000000E+00  0.45593999997E+02  0.45594000000E+02  0.51100000000E-03 0. -1.
         11   -1    0    0    0    0 -0.00000000000E+00 -0.00000000000E+00 -0.45593999997E+02  0.45594000000E+02  0.51100000000E-03 0.  1.
    9900012    2    1    2    0    0  0.32107853215E+02 -0.16191696808E+02 -0.18975767090E+02  0.50528867936E+02  0.30000024578E+02 0.  0.
         12    1    1    2    0    0 -0.32107853215E+02  0.16191696808E+02  0.18975767090E+02  0.40659132064E+02  0.00000000000E+00 0. -1.
         11    1    3    3    0    0 -0.35016907064E+01 -0.47326269385E+00  0.26413772499E+01  0.44116538190E+01  0.51100000000E-03 0. -1.
        -11    1    3    3    0    0  0.33277321083E+02 -0.17686316895E+02 -0.19981729578E+02  0.42655074973E+02  0.51100000000E-03 0.  1.
        -12    1    3    3    0    0  0.23322228379E+01  0.19678827812E+01 -0.16354147622E+01  0.34621391437E+01  0.00000000000E+00 0.  1.
</event>
<event>
 7    1  0.2973028E-011  0.5052889E+02  0.7816164E-02  0.1300439E+00
        -11   -1    0    0    0    0  0.00000000000E+00  0.00000000000E+00  0.45593999997E+02  0.45594000000E+02  0.51100000000E-03 0. -1.
         11   -1    0    0    0    0 -0.00000000000E+00 -0.00000000000E+00 -0.45593999997E+02  0.45594000000E+02  0.51100000000E-03 0.  1.
    9900012    2    1    2    0    0  0.22153024190E+02 -0.61843293758E+01 -0.33528506975E+02  0.50528890436E+02  0.30000092968E+02 0.  0.
         12    1    1    2    0    0 -0.22153024190E+02  0.61843293758E+01  0.33528506975E+02  0.40659109564E+02  0.00000000000E+00 0. -1.
         11    1    3    3    0    0 -0.82781118730E+00  0.27428993935E+01 -0.13977162073E+02  0.14267789889E+02  0.51100000000E-03 0.  1.
        -11    1    3    3    0    0  0.20674178037E+02 -0.12237564428E+02 -0.10245053063E+02  0.26117824051E+02  0.51100000000E-03 0. -1.
         12    1    3    3    0    0  0.23066573402E+01  0.33103356589E+01 -0.93062918402E+01  0.10143276496E+02  0.00000000000E+00 0. -1.
</event>
<event>
 7    1  0.2973028E-011  0.5052886E+02  0.7816164E-02  0.1300439E+00
        -11   -1    0    0    0    0  0.00000000000E+00  0.00000000000E+00  0.45593999997E+02  0.45594000000E+02  0.51100000000E-03 0.  1.
         11   -1    0    0    0    0 -0.00000000000E+00 -0.00000000000E+00 -0.45593999997E+02  0.45594000000E+02  0.51100000000E-03 0. -1.
    9900012    2    1    2    0    0  0.35476087205E+01 -0.15747394510E+02  0.37317554255E+02  0.50528858136E+02  0.29999994792E+02 0.  0.
         12    1    1    2    0    0 -0.35476087205E+01  0.15747394510E+02 -0.37317554255E+02  0.40659141864E+02  0.00000000000E+00 0. -1.
         11    1    3    3    0    0 -0.43113729876E+01  0.40211366804E+01 -0.13517138718E+01  0.60485211327E+01  0.51100000000E-03 0. -1.
        -11    1    3    3    0    0  0.31054230127E+01 -0.99015842630E+01  0.24218830328E+02  0.26348373113E+02  0.51100000000E-03 0.  1.
         12    1    3    3    0    0  0.47535586954E+01 -0.98669469272E+01  0.14450437799E+02  0.18131963890E+02  0.00000000000E+00 0. -1.
</event>
<event>
 7    1  0.2973028E-011  0.5052886E+02  0.7816164E-02  0.1300439E+00
        -11   -1    0    0    0    0  0.00000000000E+00  0.00000000000E+00  0.45593999997E+02  0.45594000000E+02  0.51100000000E-03 0.  1.
         11   -1    0    0    0    0 -0.00000000000E+00 -0.00000000000E+00 -0.45593999997E+02  0.45594000000E+02  0.51100000000E-03 0. -1.
    9900012    2    1    2    0    0  0.16282559123E+02 -0.37138753134E+02 -0.29592605637E+01  0.50528856637E+02  0.29999990232E+02 0.  0.
         12    1    1    2    0    0 -0.16282559123E+02  0.37138753134E+02  0.29592605637E+01  0.40659143363E+02  0.00000000000E+00 0. -1.
         11    1    3    3    0    0  0.48108000966E+01 -0.99689543403E+01 -0.11070701742E+02  0.15655168014E+02  0.51100000000E-03 0. -1.
        -11    1    3    3    0    0  0.95700197215E+01 -0.41127753870E+01  0.49181004102E+01  0.11519023863E+02  0.51100000000E-03 0.  1.
        -12    1    3    3    0    0  0.19017393049E+01 -0.23057023407E+02  0.31933407684E+01  0.23354664760E+02  0.00000000000E+00 0.  1.
</event>
<event>
 7    1  0.2973028E-011  0.5052885E+02  0.7816164E-02  0.1300439E+00
        -11   -1    0    0    0    0  0.00000000000E+00  0.00000000000E+00  0.45593999997E+02  0.45594000000E+02  0.51100000000E-03 0.  1.
         11   -1    0    0    0    0 -0.00000000000E+00 -0.00000000000E+00 -0.45593999997E+02  0.45594000000E+02  0.51100000000E-03 0. -1.
    9900012    2    1    2    0    0  0.16000038464E+02  0.85926856255E+01  0.36377618726E+02  0.50528848247E+02  0.29999964732E+02 0.  0.
         12    1    1    2    0    0 -0.16000038464E+02 -0.85926856255E+01 -0.36377618726E+02  0.40659151753E+02  0.00000000000E+00 0. -1.
         11    1    3    3    0    0 -0.54726500518E+01  0.51425240020E+01  0.96435567346E+01  0.12222669040E+02  0.51100000000E-03 0. -1.
        -11    1    3    3    0    0  0.13385900786E+02  0.88651909952E+01  0.99028218745E+01  0.18863717358E+02  0.51100000000E-03 0.  1.
         12    1    3    3    0    0  0.80867877298E+01 -0.54150293718E+01  0.16831240117E+02  0.19442461849E+02  0.00000000000E+00 0. -1.
</event>
<event>
 7    1  0.2973028E-011  0.5052886E+02  0.7816164E-02  0.1300439E+00
        -11   -1    0    0    0    0  0.00000000000E+00  0.00000000000E+00  0.45593999997E+02  0.45594000000E+02  0.51100000000E-03 0.  1.
         11   -1    0    0    0    0 -0.00000000000E+00 -0.00000000000E+00 -0.45593999997E+02  0.45594000000E+02  0.51100000000E-03 0. -1.
    9900012    2    1    2    0    0  0.85663478830E+01 -0.21242543872E+01  0.39689687054E+02  0.50528855503E+02  0.29999986788E+02 0.  0.
         12    1    1    2    0    0 -0.85663478830E+01  0.21242543872E+01 -0.39689687054E+02  0.40659144497E+02  0.00000000000E+00 0. -1.
         11    1    3    3    0    0  0.13354018796E+02 -0.98207459013E+01  0.19063986168E+02  0.25262866760E+02  0.51100000000E-03 0. -1.
        -11    1    3    3    0    0 -0.53429051496E+01 -0.11434063991E+01  0.55997346554E+01  0.78237485966E+01  0.51100000000E-03 0.  1.
         12    1    3    3    0    0  0.55523423700E+00  0.88398979131E+01  0.15025966231E+02  0.17442240147E+02  0.00000000000E+00 0. -1.
</event>
<event>
 7    1  0.2973028E-011  0.5052885E+02  0.7816164E-02  0.1300439E+00
        -11   -1    0    0    0    0  0.00000000000E+00  0.00000000000E+00  0.45593999997E+02  0.45594000000E+02  0.51100000000E-03 0.  1.
         11   -1    0    0    0    0 -0.00000000000E+00 -0.00000000000E+00 -0.45593999997E+02  0.45594000000E+02  0.51100000000E-03 0. -1.
    9900012    2    1    2    0    0 -0.40403900319E+02  0.41232061880E+01  0.19209887282E+01  0.50528853575E+02  0.29999980928E+02 0.  0.
         12    1    1    2    0    0  0.40403900319E+02 -0.41232061880E+01 -0.19209887282E+01  0.40659146425E+02  0.00000000000E+00 0. -1.
         11    1    3    3    0    0 -0.26307760651E+00  0.42175384724E+01 -0.49637621416E+01  0.65188783892E+01  0.51100000000E-03 0. -1.
        -11    1    3    3    0    0 -0.19015951876E+02 -0.82750319707E+01  0.19904573766E+01  0.20833734679E+02  0.51100000000E-03 0.  1.
        -12    1    3    3    0    0 -0.21124870837E+02  0.81806996864E+01  0.48942934932E+01  0.23176240507E+02  0.00000000000E+00 0.  1.
</event>
<event>
 7    1  0.2973028E-011  0.5052877E+02  0.7816164E-02  0.1300439E+00
        -11   -1    0    0    0    0  0.00000000000E+00  0.00000000000E+00  0.45593999997E+02  0.45594000000E+02  0.51100000000E-03 0.  1.
         11   -1    0    0    0    0 -0.00000000000E+00 -0.00000000000E+00 -0.45593999997E+02  0.45594000000E+02  0.51100000000E-03 0. -1.
    9900012    2    1    2    0    0 -0.28703093975E+02  0.21673340754E+02  0.18962370026E+02  0.50528772509E+02  0.29999734517E+02 0.  0.
         12    1    1    2    0    0  0.28703093975E+02 -0.21673340754E+02 -0.18962370026E+02  0.40659227491E+02  0.00000000000E+00 0. -1.
         11    1    3    3    0    0 -0.20046683075E+02 -0.23164229729E+01  0.38570253959E+01  0.20545363537E+02  0.51100000000E-03 0. -1.
        -11    1    3    3    0    0 -0.85792640062E+01  0.19919779402E+02  0.13807264467E+02  0.25710735786E+02  0.51100000000E-03 0.  1.
         12    1    3    3    0    0 -0.77146893743E-01  0.40699843252E+01  0.12980801629E+01  0.42726731866E+01  0.00000000000E+00 0. -1.
</event>
<event>
 7    1  0.2973028E-011  0.5052887E+02  0.7816164E-02  0.1300439E+00
        -11   -1    0    0    0    0  0.00000000000E+00  0.00000000000E+00  0.45593999997E+02  0.45594000000E+02  0.51100000000E-03 0.  1.
         11   -1    0    0    0    0 -0.00000000000E+00 -0.00000000000E+00 -0.45593999997E+02  0.45594000000E+02  0.51100000000E-03 0. -1.
    9900012    2    1    2    0    0 -0.20539878634E+02  0.21954182707E+02 -0.27373196557E+02  0.50528872582E+02  0.30000038700E+02 0.  0.
         12    1    1    2    0    0  0.20539878634E+02 -0.21954182707E+02  0.27373196557E+02  0.40659127418E+02  0.00000000000E+00 0. -1.
         11    1    3    3    0    0 -0.33293802034E+01  0.82117847295E+01 -0.26974655369E+02  0.28392784533E+02  0.51100000000E-03 0. -1.
        -11    1    3    3    0    0 -0.86700397009E+01  0.76734314993E+01 -0.11319439951E+01  0.11633247047E+02  0.51100000000E-03 0.  1.
         12    1    3    3    0    0 -0.85404587300E+01  0.60689664786E+01  0.73340280759E+00  0.10502841002E+02  0.00000000000E+00 0. -1.
</event>
<event>
 7    1  0.2973028E-011  0.5052889E+02  0.7816164E-02  0.1300439E+00
        -11   -1    0    0    0    0  0.00000000000E+00  0.00000000000E+00  0.45593999997E+02  0.45594000000E+02  0.51100000000E-03 0.  1.
         11   -1    0    0    0    0 -0.00000000000E+00 -0.00000000000E+00 -0.45593999997E+02  0.45594000000E+02  0.51100000000E-03 0. -1.
    9900012    2    1    2    0    0  0.13127976903E+02  0.34213631519E+02  0.17613823396E+02  0.50528891132E+02  0.30000095086E+02 0.  0.
         12    1    1    2    0    0 -0.13127976903E+02 -0.34213631519E+02 -0.17613823396E+02  0.40659108868E+02  0.00000000000E+00 0. -1.
         11    1    3    3    0    0  0.13816673528E+02  0.29298137574E+02  0.13679050754E+02  0.35162448187E+02  0.51100000000E-03 0. -1.
        -11    1    3    3    0    0 -0.43767703020E+01  0.45162183645E+01  0.77929884913E+01  0.10014140826E+02  0.51100000000E-03 0.  1.
         12    1    3    3    0    0  0.36880736773E+01  0.39927558026E+00 -0.38582158495E+01  0.53523021196E+01  0.00000000000E+00 0. -1.
</event>
<event>
 7    1  0.2973028E-011  0.5052886E+02  0.7816164E-02  0.1300439E+00
        -11   -1    0    0    0    0  0.00000000000E+00  0.00000000000E+00  0.45593999997E+02  0.45594000000E+02  0.51100000000E-03 0. -1.
         11   -1    0    0    0    0 -0.00000000000E+00 -0.00000000000E+00 -0.45593999997E+02  0.45594000000E+02  0.51100000000E-03 0.  1.
    9900012    2    1    2    0    0  0.12802655219E+02  0.38590840291E+02  0.69901107166E-01  0.50528858086E+02  0.29999994637E+02 0.  0.
         12    1    1    2    0    0 -0.12802655219E+02 -0.38590840291E+02 -0.69901107166E-01  0.40659141914E+02  0.00000000000E+00 0. -1.
         11    1    3    3    0    0 -0.37742263529E+01  0.17477210888E+02 -0.60078096853E+01  0.18862435221E+02  0.51100000000E-03 0. -1.
        -11    1    3    3    0    0  0.16826001260E+02  0.20937195331E+02  0.13135453877E+01  0.26892487213E+02  0.51100000000E-03 0.  1.
        -12    1    3    3    0    0 -0.24911968841E+00  0.17643407176E+00  0.47641654048E+01  0.47739356516E+01  0.00000000000E+00 0.  1.
</event>
<event>
 7    1  0.2973028E-011  0.5052887E+02  0.7816164E-02  0.1300439E+00
        -11   -1    0    0    0    0  0.00000000000E+00  0.00000000000E+00  0.45593999997E+02  0.45594000000E+02  0.51100000000E-03 0.  1.
         11   -1    0    0    0    0 -0.00000000000E+00 -0.00000000000E+00 -0.45593999997E+02  0.45594000000E+02  0.51100000000E-03 0. -1.
    9900012    2    1    2    0    0 -0.14873867041E+02  0.37154243868E+02  0.71760079740E+01  0.50528870046E+02  0.30000030991E+02 0.  0.
         12    1    1    2    0    0  0.14873867041E+02 -0.37154243868E+02 -0.71760079740E+01  0.40659129954E+02  0.00000000000E+00 0. -1.
         11    1    3    3    0    0  0.12658996425E+01  0.27796097875E+01  0.56316117323E+01  0.64065422374E+01  0.51100000000E-03 0. -1.
        -11    1    3    3    0    0 -0.17685190902E+02  0.33416949898E+02 -0.42529019684E+01  0.38046625253E+02  0.51100000000E-03 0.  1.
        -12    1    3    3    0    0  0.15454242178E+01  0.95768418267E+00  0.57972982102E+01  0.60757025556E+01  0.00000000000E+00 0.  1.
</event>
<event>
 7    1  0.2973028E-011  0.5052886E+02  0.7816164E-02  0.1300439E+00
        -11   -1    0    0    0    0  0.00000000000E+00  0.00000000000E+00  0.45593999997E+02  0.45594000000E+02  0.51100000000E-03 0.  1.
         11   -1    0    0    0    0 -0.00000000000E+00 -0.00000000000E+00 -0.45593999997E+02  0.45594000000E+02  0.51100000000E-03 0. -1.
    9900012    2    1    2    0    0  0.18002659918E+02 -0.34748148098E+01  0.36290438464E+02  0.50528855568E+02  0.29999986984E+02 0.  0.
         12    1    1    2    0    0 -0.18002659918E+02  0.34748148098E+01 -0.36290438464E+02  0.40659144432E+02  0.00000000000E+00 0. -1.
         11    1    3    3    0    0  0.17767134864E+02 -0.10647405804E+02  0.25710360049E+02  0.33016071022E+02  0.51100000000E-03 0. -1.
        -11    1    3    3    0    0  0.26610385706E+01 -0.12832735711E+01  0.77146933056E+01  0.82610175156E+01  0.51100000000E-03 0.  1.
         12    1    3    3    0    0 -0.24255135166E+01  0.84558645650E+01  0.28653851090E+01  0.92517670303E+01  0.00000000000E+00 0. -1.
</event>
<event>
 7    1  0.2973028E-011  0.5052885E+02  0.7816164E-02  0.1300439E+00
        -11   -1    0    0    0    0  0.00000000000E+00  0.00000000000E+00  0.45593999997E+02  0.45594000000E+02  0.51100000000E-03 0.  1.
         11   -1    0    0    0    0 -0.00000000000E+00 -0.00000000000E+00 -0.45593999997E+02  0.45594000000E+02  0.51100000000E-03 0. -1.
    9900012    2    1    2    0    0  0.50864596170E+01  0.82018298624E+01  0.39497140622E+02  0.50528853405E+02  0.29999980410E+02 0.  0.
         12    1    1    2    0    0 -0.50864596170E+01 -0.82018298624E+01 -0.39497140622E+02  0.40659146595E+02  0.00000000000E+00 0. -1.
         11    1    3    3    0    0  0.72219143546E+01 -0.44044417678E+01  0.41006424233E+01  0.94005543866E+01  0.51100000000E-03 0. -1.
        -11    1    3    3    0    0  0.97311750076E+00  0.81119541480E+01  0.34665175298E+02  0.35614956640E+02  0.51100000000E-03 0.  1.
         12    1    3    3    0    0 -0.31085722384E+01  0.44943174822E+01  0.73132290032E+00  0.55133423779E+01  0.00000000000E+00 0. -1.
</event>
<event>
 7    1  0.2973028E-011  0.5052885E+02  0.7816164E-02  0.1300439E+00
        -11   -1    0    0    0    0  0.00000000000E+00  0.00000000000E+00  0.45593999997E+02  0.45594000000E+02  0.51100000000E-03 0. -1.
         11   -1    0    0    0    0 -0.00000000000E+00 -0.00000000000E+00 -0.45593999997E+02  0.45594000000E+02  0.51100000000E-03 0.  1.
    9900012    2    1    2    0    0  0.23277991222E+02 -0.59436816351E+01  0.32802049657E+02  0.50528847421E+02  0.29999962221E+02 0.  0.
         12    1    1    2    0    0 -0.23277991222E+02  0.59436816351E+01 -0.32802049657E+02  0.40659152579E+02  0.00000000000E+00 0. -1.
         11    1    3    3    0    0  0.17450863104E+02  0.56375457418E+01  0.18669964596E+02  0.26170252642E+02  0.51100000000E-03 0. -1.
        -11    1    3    3    0    0  0.57854736747E+01 -0.88353430239E+01  0.62969926655E+00  0.10579769063E+02  0.51100000000E-03 0.  1.
        -12    1    3    3    0    0  0.41654443373E-01 -0.27458843530E+01  0.13502385794E+02  0.13778825716E+02  0.00000000000E+00 0.  1.
</event>
<event>
 7    1  0.2973028E-011  0.5052886E+02  0.7816164E-02  0.1300439E+00
        -11   -1    0    0    0    0  0.00000000000E+00  0.00000000000E+00  0.45593999997E+02  0.45594000000E+02  0.51100000000E-03 0. -1.
         11   -1    0    0    0    0 -0.00000000000E+00 -0.00000000000E+00 -0.45593999997E+02  0.45594000000E+02  0.51100000000E-03 0.  1.
    9900012    2    1    2    0    0 -0.10886973187E+02 -0.25310215272E+02 -0.29900378041E+02  0.50528858478E+02  0.29999995830E+02 0.  0.
         12    1    1    2    0    0  0.10886973187E+02  0.25310215272E+02  0.29900378041E+02  0.40659141522E+02  0.00000000000E+00 0. -1.
         11    1    3    3    0    0 -0.14426471165E+02 -0.93100963409E+01 -0.17935742113E+02  0.24829253101E+02  0.51100000000E-03 0. -1.
        -11    1    3    3    0    0  0.30018922913E+01 -0.17946696213E+02 -0.56242835625E+01  0.19045414885E+02  0.51100000000E-03 0.  1.
         12    1    3    3    0    0  0.53760568719E+00  0.19465772815E+01 -0.63403523654E+01  0.66541904921E+01  0.00000000000E+00 0. -1.
</event>
<event>
 7    1  0.2973028E-011  0.5052886E+02  0.7816164E-02  0.1300439E+00
        -11   -1    0    0    0    0  0.00000000000E+00  0.00000000000E+00  0.45593999997E+02  0.45594000000E+02  0.51100000000E-03 0. -1.
         11   -1    0    0    0    0 -0.00000000000E+00 -0.00000000000E+00 -0.45593999997E+02  0.45594000000E+02  0.51100000000E-03 0.  1.
    9900012    2    1    2    0    0 -0.34300315164E+02  0.14382060198E+02 -0.16425911509E+02  0.50528857795E+02  0.29999993755E+02 0.  0.
         12    1    1    2    0    0  0.34300315164E+02 -0.14382060198E+02  0.16425911509E+02  0.40659142205E+02  0.00000000000E+00 0. -1.
         11    1    3    3    0    0 -0.10595904409E+02  0.12663467073E+02  0.13772919070E+01  0.16569053135E+02  0.51100000000E-03 0. -1.
        -11    1    3    3    0    0 -0.17615387849E+02 -0.62613234004E+01 -0.13385401836E+02  0.22992934618E+02  0.51100000000E-03 0.  1.
        -12    1    3    3    0    0 -0.60890229063E+01  0.79799165251E+01 -0.44178015809E+01  0.10966870042E+02  0.00000000000E+00 0.  1.
</event>
<event>
 7    1  0.2973028E-011  0.5052887E+02  0.7816164E-02  0.1300439E+00
        -11   -1    0    0    0    0  0.00000000000E+00  0.00000000000E+00  0.45593999997E+02  0.45594000000E+02  0.51100000000E-03 0.  1.
         11   -1    0    0    0    0 -0.00000000000E+00 -0.00000000000E+00 -0.45593999997E+02  0.45594000000E+02  0.51100000000E-03 0. -1.
    9900012    2    1    2    0    0 -0.14961493241E+02 -0.22065096734E+02  0.30699343372E+02  0.50528874857E+02  0.30000045616E+02 0.  0.
         12    1    1    2    0    0  0.14961493241E+02  0.22065096734E+02 -0.30699343372E+02  0.40659125143E+02  0.00000000000E+00 0. -1.
         11    1    3    3    0    0 -0.29055987789E+01  0.17004904761E+01 -0.57554235010E+00  0.34154679593E+01  0.51100000000E-03 0. -1.
        -11    1    3    3    0    0  0.15995770080E+01 -0.20761289415E+02  0.15033608559E+02  0.25682662856E+02  0.51100000000E-03 0.  1.
        -12    1    3    3    0    0 -0.13655471470E+02 -0.30042977947E+01  0.16241277163E+02  0.21430744042E+02  0.00000000000E+00 0.  1.
</event>
<event>
 7    1  0.2973028E-011  0.5052886E+02  0.7816164E-02  0.1300439E+00
        -11   -1    0    0    0    0  0.00000000000E+00  0.00000000000E+00  0.45593999997E+02  0.45594000000E+02  0.51100000000E-03 0.  1.
         11   -1    0    0    0    0 -0.00000000000E+00 -0.00000000000E+00 -0.45593999997E+02  0.45594000000E+02  0.51100000000E-03 0. -1.
    9900012    2    1    2    0    0 -0.11446801764E+02  0.29850218796E+02  0.25121718776E+02  0.50528860965E+02  0.30000003390E+02 0.  0.
         12    1    1    2    0    0  0.11446801764E+02 -0.29850218796E+02 -0.25121718776E+02  0.40659139035E+02  0.00000000000E+00 0. -1.
         11    1    3    3    0    0 -0.10004949902E+02 -0.66840912336E-01  0.27368314453E+01  0.10372740085E+02  0.51100000000E-03 0. -1.
        -11    1    3    3    0    0 -0.59122657407E+01  0.26958476644E+02  0.16327030259E+02  0.32066902977E+02  0.51100000000E-03 0.  1.
         12    1    3    3    0    0  0.44704138786E+01  0.29585830638E+01  0.60578570718E+01  0.80892179037E+01  0.00000000000E+00 0. -1.
</event>
<event>
 7    1  0.2973028E-011  0.5052883E+02  0.7816164E-02  0.1300439E+00
        -11   -1    0    0    0    0  0.00000000000E+00  0.00000000000E+00  0.45593999997E+02  0.45594000000E+02  0.51100000000E-03 0.  1.
         11   -1    0    0    0    0 -0.00000000000E+00 -0.00000000000E+00 -0.45593999997E+02  0.45594000000E+02  0.51100000000E-03 0. -1.
    9900012    2    1    2    0    0 -0.36726205921E+02 -0.77064734620E+01  0.15651325008E+02  0.50528832411E+02  0.29999916595E+02 0.  0.
         12    1    1    2    0    0  0.36726205921E+02  0.77064734620E+01 -0.15651325008E+02  0.40659167589E+02  0.00000000000E+00 0. -1.
         11    1    3    3    0    0 -0.12129426302E+02  0.82342505576E+01 -0.32856509113E+01  0.15024026319E+02  0.51100000000E-03 0. -1.
        -11    1    3    3    0    0 -0.27127588332E+01 -0.11253369776E+01 -0.93645121321E-01  0.29384032177E+01  0.51100000000E-03 0.  1.
         12    1    3    3    0    0 -0.21884020786E+02 -0.14815387042E+02  0.19030621040E+02  0.32566402874E+02  0.00000000000E+00 0. -1.
</event>
<event>
 7    1  0.2973028E-011  0.5052885E+02  0.7816164E-02  0.1300439E+00
        -11   -1    0    0    0    0  0.00000000000E+00  0.00000000000E+00  0.45593999997E+02  0.45594000000E+02  0.51100000000E-03 0. -1.
         11   -1    0    0    0    0 -0.00000000000E+00 -0.00000000000E+00 -0.45593999997E+02  0.45594000000E+02  0.51100000000E-03 0.  1.
    9900012    2    1    2    0    0  0.14454614926E+02 -0.37853946902E+02  0.33629421330E+01  0.50528848896E+02  0.29999966703E+02 0.  0.
         12    1    1    2    0    0 -0.14454614926E+02  0.37853946902E+02 -0.33629421330E+01  0.40659151104E+02  0.00000000000E+00 0. -1.
         11    1    3    3    0    0 -0.51185751701E+01 -0.63169829692E+01  0.46563314889E+01  0.93693921254E+01  0.51100000000E-03 0. -1.
        -11    1    3    3    0    0  0.83155243706E+01 -0.27267913597E+02 -0.40884589044E+01  0.28799349888E+02  0.51100000000E-03 0.  1.
        -12    1    3    3    0    0  0.11257665725E+02 -0.42690503357E+01  0.27950695485E+01  0.12360106882E+02  0.00000000000E+00 0.  1.
</event>
<event>
 7    1  0.2973028E-011  0.5052884E+02  0.7816164E-02  0.1300439E+00
        -11   -1    0    0    0    0  0.00000000000E+00  0.00000000000E+00  0.45593999997E+02  0.45594000000E+02  0.51100000000E-03 0. -1.
         11   -1    0    0    0    0 -0.00000000000E+00 -0.00000000000E+00 -0.45593999997E+02  0.45594000000E+02  0.51100000000E-03 0.  1.
    9900012    2    1    2    0    0 -0.19315617543E+02 -0.24691039953E+02 -0.25892599553E+02  0.50528840556E+02  0.29999941354E+02 0.  0.
         12    1    1    2    0    0  0.19315617543E+02  0.24691039953E+02  0.25892599553E+02  0.40659159444E+02  0.00000000000E+00 0. -1.
         11    1    3    3    0    0  0.32835891830E+01  0.16864814424E+01  0.13466291509E+01  0.39293241033E+01  0.51100000000E-03 0. -1.
        -11    1    3    3    0    0 -0.92238797279E+01 -0.38544371766E+01 -0.14125704476E+02  0.17305264239E+02  0.51100000000E-03 0.  1.
        -12    1    3    3    0    0 -0.13375326998E+02 -0.22523084219E+02 -0.13113524228E+02  0.29294252213E+02  0.00000000000E+00 0.  1.
</event>
<event>
 7    1  0.2973028E-011  0.5052885E+02  0.7816164E-02  0.1300439E+00
        -11   -1    0    0    0    0  0.00000000000E+00  0.00000000000E+00  0.45593999997E+02  0.45594000000E+02  0.51100000000E-03 0.  1.
         11   -1    0    0    0    0 -0.00000000000E+00 -0.00000000000E+00 -0.45593999997E+02  0.45594000000E+02  0.51100000000E-03 0. -1.
    9900012    2    1    2    0    0 -0.26755309505E+02 -0.20045012589E+02  0.23141244608E+02  0.50528851972E+02  0.29999976053E+02 0.  0.
         12    1    1    2    0    0  0.26755309505E+02  0.20045012589E+02 -0.23141244608E+02  0.40659148028E+02  0.00000000000E+00 0. -1.
         11    1    3    3    0    0 -0.31052900174E+02 -0.12517365216E+02  0.22182768807E+02  0.40162697536E+02  0.51100000000E-03 0.  1.
        -11    1    3    3    0    0  0.27536408053E+01 -0.78909996282E+01  0.18310047504E+01  0.85558746761E+01  0.51100000000E-03 0. -1.
        -12    1    3    3    0    0  0.15439498633E+01  0.36335225537E+00 -0.87252894935E+00  0.18102797600E+01  0.00000000000E+00 0.  1.
</event>
<event>
 7    1  0.2973028E-011  0.5052887E+02  0.7816164E-02  0.1300439E+00
        -11   -1    0    0    0    0  0.00000000000E+00  0.00000000000E+00  0.45593999997E+02  0.45594000000E+02  0.51100000000E-03 0. -1.
         11   -1    0    0    0    0 -0.00000000000E+00 -0.00000000000E+00 -0.45593999997E+02  0.45594000000E+02  0.51100000000E-03 0.  1.
    9900012    2    1    2    0    0 -0.25698193868E+02  0.14802473637E+01 -0.31473429936E+02  0.50528867049E+02  0.30000021883E+02 0.  0.
         12    1    1    2    0    0  0.25698193868E+02 -0.14802473637E+01  0.31473429936E+02  0.40659132951E+02  0.00000000000E+00 0. -1.
         11    1    3    3    0    0 -0.46442536593E+01  0.59245885626E+01  0.22872208667E+01  0.78677329162E+01  0.51100000000E-03 0. -1.
        -11    1    3    3    0    0 -0.20538144547E+02 -0.19261206381E+01 -0.20244350940E+02  0.28902578906E+02  0.51100000000E-03 0.  1.
        -12    1    3    3    0    0 -0.51579566177E+00 -0.25182205608E+01 -0.13516299863E+02  0.13758555227E+02  0.00000000000E+00 0.  1.
</event>
<event>
 7    1  0.2973028E-011  0.5052885E+02  0.7816164E-02  0.1300439E+00
        -11   -1    0    0    0    0  0.00000000000E+00  0.00000000000E+00  0.45593999997E+02  0.45594000000E+02  0.51100000000E-03 0.  1.
         11   -1    0    0    0    0 -0.00000000000E+00 -0.00000000000E+00 -0.45593999997E+02  0.45594000000E+02  0.51100000000E-03 0. -1.
    9900012    2    1    2    0    0  0.20087950391E+02  0.25577695572E+02  0.24401267674E+02  0.50528854340E+02  0.29999983253E+02 0.  0.
         12    1    1    2    0    0 -0.20087950391E+02 -0.25577695572E+02 -0.24401267674E+02  0.40659145660E+02  0.00000000000E+00 0. -1.
         11    1    3    3    0    0  0.94856695956E+01 -0.12491573112E+01  0.38140631940E+01  0.10299776695E+02  0.51100000000E-03 0. -1.
        -11    1    3    3    0    0  0.58859269520E+01  0.21732980115E+02  0.23638784600E+02  0.32645959909E+02  0.51100000000E-03 0.  1.
         12    1    3    3    0    0  0.47163538438E+01  0.50938727684E+01 -0.30515801206E+01  0.75831177357E+01  0.00000000000E+00 0. -1.
</event>
<event>
 7    1  0.2973028E-011  0.5052887E+02  0.7816164E-02  0.1300439E+00
        -11   -1    0    0    0    0  0.00000000000E+00  0.00000000000E+00  0.45593999997E+02  0.45594000000E+02  0.51100000000E-03 0.  1.
         11   -1    0    0    0    0 -0.00000000000E+00 -0.00000000000E+00 -0.45593999997E+02  0.45594000000E+02  0.51100000000E-03 0. -1.
    9900012    2    1    2    0    0 -0.34682196633E+02 -0.75628428669E+01  0.19827091245E+02  0.50528869381E+02  0.30000028969E+02 0.  0.
         12    1    1    2    0    0  0.34682196633E+02  0.75628428669E+01 -0.19827091245E+02  0.40659130619E+02  0.00000000000E+00 0. -1.
         11    1    3    3    0    0 -0.86464649752E+01 -0.74295914623E+01  0.93234691783E+01  0.14727092844E+02  0.51100000000E-03 0. -1.
        -11    1    3    3    0    0 -0.29056223542E+02  0.15017180267E+01  0.53105862176E+01  0.29575692888E+02  0.51100000000E-03 0.  1.
        -12    1    3    3    0    0  0.30204918847E+01 -0.16349694314E+01  0.51930358489E+01  0.62260836483E+01  0.00000000000E+00 0.  1.
</event>
<event>
 7    1  0.2973028E-011  0.5052886E+02  0.7816164E-02  0.1300439E+00
        -11   -1    0    0    0    0  0.00000000000E+00  0.00000000000E+00  0.45593999997E+02  0.45594000000E+02  0.51100000000E-03 0.  1.
         11   -1    0    0    0    0 -0.00000000000E+00 -0.00000000000E+00 -0.45593999997E+02  0.45594000000E+02  0.51100000000E-03 0. -1.
    9900012    2    1    2    0    0 -0.31851279601E+02 -0.16137417339E+02  0.19448527007E+02  0.50528862610E+02  0.30000008388E+02 0.  0.
         12    1    1    2    0    0  0.31851279601E+02  0.16137417339E+02 -0.19448527007E+02  0.40659137390E+02  0.00000000000E+00 0. -1.
         11    1    3    3    0    0 -0.21903496943E+02 -0.43577359890E+01  0.46190754835E+01  0.22805457677E+02  0.51100000000E-03 0. -1.
        -11    1    3    3    0    0 -0.19300188371E+01 -0.75463721736E+01  0.16734685524E+02  0.18458667491E+02  0.51100000000E-03 0.  1.
        -12    1    3    3    0    0 -0.80177638214E+01 -0.42333091764E+01 -0.19052340005E+01  0.92647374423E+01  0.00000000000E+00 0.  1.
</event>
<event>
 7    1  0.2973028E-011  0.5052886E+02  0.7816164E-02  0.1300439E+00
        -11   -1    0    0    0    0  0.00000000000E+00  0.00000000000E+00  0.45593999997E+02  0.45594000000E+02  0.51100000000E-03 0.  1.
         11   -1    0    0    0    0 -0.00000000000E+00 -0.00000000000E+00 -0.45593999997E+02  0.45594000000E+02  0.51100000000E-03 0. -1.
    9900012    2    1    2    0    0  0.53565741447E+01 -0.26851808538E+02  0.30057491714E+02  0.50528864293E+02  0.30000013504E+02 0.  0.
         12    1    1    2    0    0 -0.53565741447E+01  0.26851808538E+02 -0.30057491714E+02  0.40659135707E+02  0.00000000000E+00 0. -1.
         11    1    3    3    0    0 -0.45737545673E+01 -0.27884892090E+01 -0.60871485929E+00  0.53912370521E+01  0.51100000000E-03 0. -1.
        -11    1    3    3    0    0  0.13279961942E+02 -0.25289004105E+02  0.22966042869E+02  0.36651469863E+02  0.51100000000E-03 0.  1.
        -12    1    3    3    0    0 -0.33496332300E+01  0.12256847766E+01  0.77001637050E+01  0.84861573772E+01  0.00000000000E+00 0.  1.
</event>
<event>
 7    1  0.2973028E-011  0.5052885E+02  0.7816164E-02  0.1300439E+00
        -11   -1    0    0    0    0  0.00000000000E+00  0.00000000000E+00  0.45593999997E+02  0.45594000000E+02  0.51100000000E-03 0. -1.
         11   -1    0    0    0    0 -0.00000000000E+00 -0.00000000000E+00 -0.45593999997E+02  0.45594000000E+02  0.51100000000E-03 0.  1.
    9900012    2    1    2    0    0 -0.14425951005E+02  0.27044777299E+02 -0.26714006586E+02  0.50528853558E+02  0.29999980874E+02 0.  0.
         12    1    1    2    0    0  0.14425951005E+02 -0.27044777299E+02  0.26714006586E+02  0.40659146442E+02  0.00000000000E+00 0. -1.
         11    1    3    3    0    0  0.61547867925E+01  0.70724267328E+01  0.14678148340E+00  0.93766820047E+01  0.51100000000E-03 0. -1.
        -11    1    3    3    0    0 -0.12627092937E+02  0.19468796197E+02 -0.20207130871E+02  0.30770207014E+02  0.51100000000E-03 0.  1.
         12    1    3    3    0    0 -0.79536448607E+01  0.50355436921E+00 -0.66536571980E+01  0.10381964539E+02  0.00000000000E+00 0. -1.
</event>
<event>
 7    1  0.2973028E-011  0.5052884E+02  0.7816164E-02  0.1300439E+00
        -11   -1    0    0    0    0  0.00000000000E+00  0.00000000000E+00  0.45593999997E+02  0.45594000000E+02  0.51100000000E-03 0. -1.
         11   -1    0    0    0    0 -0.00000000000E+00 -0.00000000000E+00 -0.45593999997E+02  0.45594000000E+02  0.51100000000E-03 0.  1.
    9900012    2    1    2    0    0  0.25887009263E+02 -0.24199905333E+02 -0.19934763475E+02  0.50528837914E+02  0.29999933323E+02 0.  0.
         12    1    1    2    0    0 -0.25887009263E+02  0.24199905333E+02  0.19934763475E+02  0.40659162086E+02  0.00000000000E+00 0. -1.
         11    1    3    3    0    0  0.12712365195E+02 -0.91627229069E+01 -0.38167707028E+01  0.16128467341E+02  0.51100000000E-03 0. -1.
        -11    1    3    3    0    0  0.38878482200E+01 -0.15072230510E+02 -0.19106605349E+02  0.24644469249E+02  0.51100000000E-03 0.  1.
        -12    1    3    3    0    0  0.92867958480E+01  0.35048084024E-01  0.29886125768E+01  0.97559013230E+01  0.00000000000E+00 0.  1.
</event>
<event>
 7    1  0.2973028E-011  0.5052890E+02  0.7816164E-02  0.1300439E+00
        -11   -1    0    0    0    0  0.00000000000E+00  0.00000000000E+00  0.45593999997E+02  0.45594000000E+02  0.51100000000E-03 0.  1.
         11   -1    0    0    0    0 -0.00000000000E+00 -0.00000000000E+00 -0.45593999997E+02  0.45594000000E+02  0.51100000000E-03 0. -1.
    9900012    2    1    2    0    0  0.30478951345E+01 -0.39573877136E+02  0.88193480122E+01  0.50528901194E+02  0.30000125671E+02 0.  0.
         12    1    1    2    0    0 -0.30478951345E+01  0.39573877136E+02 -0.88193480122E+01  0.40659098806E+02  0.00000000000E+00 0. -1.
         11    1    3    3    0    0 -0.71187069011E+01 -0.27832194648E+02 -0.35456887457E+01  0.28946138875E+02  0.51100000000E-03 0. -1.
        -11    1    3    3    0    0  0.43531444576E+00 -0.62468706982E+01  0.27457755062E+01  0.68375562578E+01  0.51100000000E-03 0.  1.
         12    1    3    3    0    0  0.97312875898E+01 -0.54948117900E+01  0.96192612517E+01  0.14745206061E+02  0.00000000000E+00 0. -1.
</event>
<event>
 7    1  0.2973028E-011  0.5052881E+02  0.7816164E-02  0.1300439E+00
        -11   -1    0    0    0    0  0.00000000000E+00  0.00000000000E+00  0.45593999997E+02  0.45594000000E+02  0.51100000000E-03 0.  1.
         11   -1    0    0    0    0 -0.00000000000E+00 -0.00000000000E+00 -0.45593999997E+02  0.45594000000E+02  0.51100000000E-03 0. -1.
    9900012    2    1    2    0    0  0.96480968892E+01 -0.13748390835E+02  0.37027901260E+02  0.50528812897E+02  0.29999857282E+02 0.  0.
         12    1    1    2    0    0 -0.96480968892E+01  0.13748390835E+02 -0.37027901260E+02  0.40659187103E+02  0.00000000000E+00 0. -1.
         11    1    3    3    0    0  0.14957543441E+01  0.47886635889E+01 -0.15344841387E+01  0.52462578910E+01  0.51100000000E-03 0. -1.
        -11    1    3    3    0    0  0.78057064778E+01 -0.32667915113E+01  0.13967344691E+02  0.16330575568E+02  0.51100000000E-03 0.  1.
         12    1    3    3    0    0  0.34663606728E+00 -0.15270262913E+02  0.24595040708E+02  0.28951979438E+02  0.00000000000E+00 0. -1.
</event>
<event>
 7    1  0.2973028E-011  0.5052886E+02  0.7816164E-02  0.1300439E+00
        -11   -1    0    0    0    0  0.00000000000E+00  0.00000000000E+00  0.45593999997E+02  0.45594000000E+02  0.51100000000E-03 0. -1.
         11   -1    0    0    0    0 -0.00000000000E+00 -0.00000000000E+00 -0.45593999997E+02  0.45594000000E+02  0.51100000000E-03 0.  1.
    9900012    2    1    2    0    0 -0.17571067205E+02  0.20755944665E+02 -0.30226045772E+02  0.50528862225E+02  0.30000007218E+02 0.  0.
         12    1    1    2    0    0  0.17571067205E+02 -0.20755944665E+02  0.30226045772E+02  0.40659137775E+02  0.00000000000E+00 0. -1.
         11    1    3    3    0    0 -0.95499836918E+00 -0.26299034181E+01  0.23980358934E+01  0.36849681519E+01  0.51100000000E-03 0. -1.
        -11    1    3    3    0    0 -0.11219979504E+02  0.71238651192E+01 -0.24519615910E+02  0.27889943689E+02  0.51100000000E-03 0.  1.
         12    1    3    3    0    0 -0.53960893320E+01  0.16261982964E+02 -0.81044657546E+01  0.18953950384E+02  0.00000000000E+00 0. -1.
</event>
<event>
 7    1  0.2973028E-011  0.5052885E+02  0.7816164E-02  0.1300439E+00
        -11   -1    0    0    0    0  0.00000000000E+00  0.00000000000E+00  0.45593999997E+02  0.45594000000E+02  0.51100000000E-03 0.  1.
         11   -1    0    0    0    0 -0.00000000000E+00 -0.00000000000E+00 -0.45593999997E+02  0.45594000000E+02  0.51100000000E-03 0. -1.
    9900012    2    1    2    0    0 -0.41352156764E+01  0.29551610502E+01  0.40340223654E+02  0.50528848140E+02  0.29999964406E+02 0.  0.
         12    1    1    2    0    0  0.41352156764E+01 -0.29551610502E+01 -0.40340223654E+02  0.40659151860E+02  0.00000000000E+00 0. -1.
         11    1    3    3    0    0 -0.52574786810E+01  0.16863857940E+01 -0.93709887112E+00  0.56002797861E+01  0.51100000000E-03 0. -1.
        -11    1    3    3    0    0  0.57223596988E+00  0.71213948142E+01  0.36936632099E+02  0.37621224185E+02  0.51100000000E-03 0.  1.
         12    1    3    3    0    0  0.55002703475E+00 -0.58526195580E+01  0.43406904264E+01  0.73073441692E+01  0.00000000000E+00 0. -1.
</event>
<event>
 7    1  0.2973028E-011  0.5052885E+02  0.7816164E-02  0.1300439E+00
        -11   -1    0    0    0    0  0.00000000000E+00  0.00000000000E+00  0.45593999997E+02  0.45594000000E+02  0.51100000000E-03 0. -1.
         11   -1    0    0    0    0 -0.00000000000E+00 -0.00000000000E+00 -0.45593999997E+02  0.45594000000E+02  0.51100000000E-03 0.  1.
    9900012    2    1    2    0    0  0.20868176806E+02  0.21771545521E+02 -0.27270595246E+02  0.50528851427E+02  0.29999974399E+02 0.  0.
         12    1    1    2    0    0 -0.20868176806E+02 -0.21771545521E+02  0.27270595246E+02  0.40659148573E+02  0.00000000000E+00 0. -1.
         11    1    3    3    0    0  0.19617829312E+01 -0.44489723871E+01 -0.15812204650E+01  0.51129449430E+01  0.51100000000E-03 0. -1.
        -11    1    3    3    0    0  0.20777971719E+02  0.22153427339E+02 -0.27117290856E+02  0.40716654028E+02  0.51100000000E-03 0.  1.
        -12    1    3    3    0    0 -0.18715778441E+01  0.40670905699E+01  0.14279160756E+01  0.46992524565E+01  0.00000000000E+00 0.  1.
</event>
<event>
 7    1  0.2973028E-011  0.5052886E+02  0.7816164E-02  0.1300439E+00
        -11   -1    0    0    0    0  0.00000000000E+00  0.00000000000E+00  0.45593999997E+02  0.45594000000E+02  0.51100000000E-03 0.  1.
         11   -1    0    0    0    0 -0.00000000000E+00 -0.00000000000E+00 -0.45593999997E+02  0.45594000000E+02  0.51100000000E-03 0. -1.
    9900012    2    1    2    0    0 -0.67792741182E+01 -0.26918562659E+02  0.29708553725E+02  0.50528859114E+02  0.29999997762E+02 0.  0.
         12    1    1    2    0    0  0.67792741182E+01  0.26918562659E+02 -0.29708553725E+02  0.40659140886E+02  0.00000000000E+00 0. -1.
         11    1    3    3    0    0 -0.51678744742E+00  0.19532011417E+01  0.63405518295E+01  0.66546721730E+01  0.51100000000E-03 0. -1.
        -11    1    3    3    0    0 -0.14493683199E+02 -0.14945161904E+02  0.11269860233E+02  0.23673497142E+02  0.51100000000E-03 0.  1.
        -12    1    3    3    0    0  0.82311965278E+01 -0.13926601897E+02  0.12098141662E+02  0.20200689799E+02  0.00000000000E+00 0.  1.
</event>
<event>
 7    1  0.2973028E-011  0.5052882E+02  0.7816164E-02  0.1300439E+00
        -11   -1    0    0    0    0  0.00000000000E+00  0.00000000000E+00  0.45593999997E+02  0.45594000000E+02  0.51100000000E-03 0.  1.
         11   -1    0    0    0    0 -0.00000000000E+00 -0.00000000000E+00 -0.45593999997E+02  0.45594000000E+02  0.51100000000E-03 0. -1.
    9900012    2    1    2    0    0  0.35769627595E+02 -0.76879336075E+01  0.17736925048E+02  0.50528817868E+02  0.29999872392E+02 0.  0.
         12    1    1    2    0    0 -0.35769627595E+02  0.76879336075E+01 -0.17736925048E+02  0.40659182132E+02  0.00000000000E+00 0. -1.
         11    1    3    3    0    0 -0.84911193894E+00  0.61714040459E+01  0.68902880279E+01  0.92888798222E+01  0.51100000000E-03 0. -1.
        -11    1    3    3    0    0  0.29579087867E+02 -0.13501988767E+02  0.10554626219E+02  0.34185176241E+02  0.51100000000E-03 0.  1.
         12    1    3    3    0    0  0.70396516672E+01 -0.35734888600E+00  0.29201080089E+00  0.70547618053E+01  0.00000000000E+00 0. -1.
</event>
<event>
 7    1  0.2973028E-011  0.5052886E+02  0.7816164E-02  0.1300439E+00
        -11   -1    0    0    0    0  0.00000000000E+00  0.00000000000E+00  0.45593999997E+02  0.45594000000E+02  0.51100000000E-03 0.  1.
         11   -1    0    0    0    0 -0.00000000000E+00 -0.00000000000E+00 -0.45593999997E+02  0.45594000000E+02  0.51100000000E-03 0. -1.
    9900012    2    1    2    0    0  0.72031116929E+01 -0.36897594354E+02  0.15487036061E+02  0.50528861137E+02  0.30000003911E+02 0.  0.
         12    1    1    2    0    0 -0.72031116929E+01  0.36897594354E+02 -0.15487036061E+02  0.40659138863E+02  0.00000000000E+00 0. -1.
         11    1    3    3    0    0 -0.30782764478E+00 -0.26233605586E+02  0.21519352650E+02  0.33931981355E+02  0.51100000000E-03 0. -1.
        -11    1    3    3    0    0  0.33457776079E+01 -0.77526140334E+01  0.33481523276E+00  0.84504055319E+01  0.51100000000E-03 0.  1.
         12    1    3    3    0    0  0.41651617298E+01 -0.29113747338E+01 -0.63671318217E+01  0.81464742503E+01  0.00000000000E+00 0. -1.
</event>
<event>
 7    1  0.2973028E-011  0.5052886E+02  0.7816164E-02  0.1300439E+00
        -11   -1    0    0    0    0  0.00000000000E+00  0.00000000000E+00  0.45593999997E+02  0.45594000000E+02  0.51100000000E-03 0.  1.
         11   -1    0    0    0    0 -0.00000000000E+00 -0.00000000000E+00 -0.45593999997E+02  0.45594000000E+02  0.51100000000E-03 0. -1.
    9900012    2    1    2    0    0  0.11167332026E+02  0.13060170555E+02  0.36849537333E+02  0.50528858824E+02  0.29999996880E+02 0.  0.
         12    1    1    2    0    0 -0.11167332026E+02 -0.13060170555E+02 -0.36849537333E+02  0.40659141176E+02  0.00000000000E+00 0. -1.
         11    1    3    3    0    0  0.59038826645E+01  0.70676181438E+01  0.53381630568E+00  0.92245334219E+01  0.51100000000E-03 0. -1.
        -11    1    3    3    0    0  0.64491223475E+01 -0.27394973421E+01  0.29049949211E+02  0.29883031543E+02  0.51100000000E-03 0.  1.
         12    1    3    3    0    0 -0.11856729859E+01  0.87320497534E+01  0.72657718163E+01  0.11421293859E+02  0.00000000000E+00 0. -1.
</event>
<event>
 7    1  0.2973028E-011  0.5052886E+02  0.7816164E-02  0.1300439E+00
        -11   -1    0    0    0    0  0.00000000000E+00  0.00000000000E+00  0.45593999997E+02  0.45594000000E+02  0.51100000000E-03 0.  1.
         11   -1    0    0    0    0 -0.00000000000E+00 -0.00000000000E+00 -0.45593999997E+02  0.45594000000E+02  0.51100000000E-03 0. -1.
    9900012    2    1    2    0    0 -0.29672655305E+02  0.77259138823E+01  0.26702237988E+02  0.50528859186E+02  0.29999997983E+02 0.  0.
         12    1    1    2    0    0  0.29672655305E+02 -0.77259138823E+01 -0.26702237988E+02  0.40659140814E+02  0.00000000000E+00 0. -1.
         11    1    3    3    0    0  0.26611615756E+01  0.46163432692E+00 -0.64421471578E+00  0.27766706762E+01  0.51100000000E-03 0. -1.
        -11    1    3    3    0    0 -0.22528409894E+02  0.14404784866E+02  0.16111664985E+02  0.31218789666E+02  0.51100000000E-03 0.  1.
        -12    1    3    3    0    0 -0.98054069864E+01 -0.71405053103E+01  0.11234787719E+02  0.16533398844E+02  0.00000000000E+00 0.  1.
</event>
<event>
 7    1  0.2973028E-011  0.5052886E+02  0.7816164E-02  0.1300439E+00
        -11   -1    0    0    0    0  0.00000000000E+00  0.00000000000E+00  0.45593999997E+02  0.45594000000E+02  0.51100000000E-03 0. -1.
         11   -1    0    0    0    0 -0.00000000000E+00 -0.00000000000E+00 -0.45593999997E+02  0.45594000000E+02  0.51100000000E-03 0.  1.
    9900012    2    1    2    0    0  0.15502358683E+02 -0.28681743491E+02  0.24294034680E+02  0.50528860124E+02  0.30000000833E+02 0.  0.
         12    1    1    2    0    0 -0.15502358683E+02  0.28681743491E+02 -0.24294034680E+02  0.40659139876E+02  0.00000000000E+00 0. -1.
         11    1    3    3    0    0  0.14661766246E+01  0.52820409795E+01  0.78632295436E+01  0.95854060905E+01  0.51100000000E-03 0. -1.
        -11    1    3    3    0    0  0.25999318976E+01 -0.11534285639E+02  0.22113357389E+01  0.12028690580E+02  0.51100000000E-03 0.  1.
         12    1    3    3    0    0  0.11436250161E+02 -0.22429498832E+02  0.14219469398E+02  0.28914763453E+02  0.00000000000E+00 0. -1.
</event>
<event>
 7    1  0.2973028E-011  0.5052886E+02  0.7816164E-02  0.1300439E+00
        -11   -1    0    0    0    0  0.00000000000E+00  0.00000000000E+00  0.45593999997E+02  0.45594000000E+02  0.51100000000E-03 0.  1.
         11   -1    0    0    0    0 -0.00000000000E+00 -0.00000000000E+00 -0.45593999997E+02  0.45594000000E+02  0.51100000000E-03 0. -1.
    9900012    2    1    2    0    0  0.90384860653E+01 -0.22352227858E+01  0.39578725507E+02  0.50528856330E+02  0.29999989299E+02 0.  0.
         12    1    1    2    0    0 -0.90384860653E+01  0.22352227858E+01 -0.39578725507E+02  0.40659143670E+02  0.00000000000E+00 0. -1.
         11    1    3    3    0    0  0.17199422231E+02 -0.25910425243E+01  0.20747439061E+02  0.27073785370E+02  0.51100000000E-03 0. -1.
        -11    1    3    3    0    0 -0.12240124233E+01 -0.31147205998E+01  0.29292449499E+00  0.33593892075E+01  0.51100000000E-03 0.  1.
         12    1    3    3    0    0 -0.69369237420E+01  0.34705403382E+01  0.18538361951E+02  0.20095681752E+02  0.00000000000E+00 0. -1.
</event>
<event>
 7    1  0.2973028E-011  0.5052884E+02  0.7816164E-02  0.1300439E+00
        -11   -1    0    0    0    0  0.00000000000E+00  0.00000000000E+00  0.45593999997E+02  0.45594000000E+02  0.51100000000E-03 0.  1.
         11   -1    0    0    0    0 -0.00000000000E+00 -0.00000000000E+00 -0.45593999997E+02  0.45594000000E+02  0.51100000000E-03 0. -1.
    9900012    2    1    2    0    0  0.27407958938E+02 -0.50754672935E+01  0.29600856592E+02  0.50528839994E+02  0.29999939646E+02 0.  0.
         12    1    1    2    0    0 -0.27407958938E+02  0.50754672935E+01 -0.29600856592E+02  0.40659160006E+02  0.00000000000E+00 0. -1.
         11    1    3    3    0    0  0.20686217497E+02 -0.57652981923E+01  0.33449693156E+02  0.39749719874E+02  0.51100000000E-03 0. -1.
        -11    1    3    3    0    0  0.33839582395E+01  0.26272113231E+01  0.11766490660E+01  0.44427374431E+01  0.51100000000E-03 0.  1.
         12    1    3    3    0    0  0.33377832015E+01 -0.19373804243E+01 -0.50254856298E+01  0.63363826766E+01  0.00000000000E+00 0. -1.
</event>
<event>
 7    1  0.2973028E-011  0.5052886E+02  0.7816164E-02  0.1300439E+00
        -11   -1    0    0    0    0  0.00000000000E+00  0.00000000000E+00  0.45593999997E+02  0.45594000000E+02  0.51100000000E-03 0. -1.
         11   -1    0    0    0    0 -0.00000000000E+00 -0.00000000000E+00 -0.45593999997E+02  0.45594000000E+02  0.51100000000E-03 0.  1.
    9900012    2    1    2    0    0  0.19684906078E+02  0.22257960113E+02 -0.27753445297E+02  0.50528855376E+02  0.29999986401E+02 0.  0.
         12    1    1    2    0    0 -0.19684906078E+02 -0.22257960113E+02  0.27753445297E+02  0.40659144624E+02  0.00000000000E+00 0. -1.
         11    1    3    3    0    0 -0.34256128809E+01  0.65066769606E+01  0.24761564099E+01  0.77590604783E+01  0.51100000000E-03 0. -1.
        -11    1    3    3    0    0  0.20943099213E+02  0.97213729464E+01 -0.19268174971E+02  0.30072929082E+02  0.51100000000E-03 0.  1.
        -12    1    3    3    0    0  0.21674197460E+01  0.60299102059E+01 -0.10961426736E+02  0.12696865815E+02  0.00000000000E+00 0.  1.
</event>
<event>
 7    1  0.2973028E-011  0.5052886E+02  0.7816164E-02  0.1300439E+00
        -11   -1    0    0    0    0  0.00000000000E+00  0.00000000000E+00  0.45593999997E+02  0.45594000000E+02  0.51100000000E-03 0. -1.
         11   -1    0    0    0    0 -0.00000000000E+00 -0.00000000000E+00 -0.45593999997E+02  0.45594000000E+02  0.51100000000E-03 0.  1.
    9900012    2    1    2    0    0 -0.13387081814E+02  0.29741187244E+02 -0.24277837989E+02  0.50528860860E+02  0.30000003071E+02 0.  0.
         12    1    1    2    0    0  0.13387081814E+02 -0.29741187244E+02  0.24277837989E+02  0.40659139140E+02  0.00000000000E+00 0. -1.
         11    1    3    3    0    0  0.38922170779E+01  0.74247003964E+01 -0.22180573706E+01  0.86715228489E+01  0.51100000000E-03 0. -1.
        -11    1    3    3    0    0 -0.21288598081E+02  0.12028894788E+02 -0.13885313077E+02  0.28119399666E+02  0.51100000000E-03 0.  1.
        -12    1    3    3    0    0  0.40092991899E+01  0.10287592060E+02 -0.81744675419E+01  0.13737938345E+02  0.00000000000E+00 0.  1.
</event>
<event>
 7    1  0.2973028E-011  0.5052886E+02  0.7816164E-02  0.1300439E+00
        -11   -1    0    0    0    0  0.00000000000E+00  0.00000000000E+00  0.45593999997E+02  0.45594000000E+02  0.51100000000E-03 0.  1.
         11   -1    0    0    0    0 -0.00000000000E+00 -0.00000000000E+00 -0.45593999997E+02  0.45594000000E+02  0.51100000000E-03 0. -1.
    9900012    2    1    2    0    0  0.10489340498E+02  0.39232838311E+02  0.19809340601E+01  0.50528856308E+02  0.29999989234E+02 0.  0.
         12    1    1    2    0    0 -0.10489340498E+02 -0.39232838311E+02 -0.19809340601E+01  0.40659143692E+02  0.00000000000E+00 0. -1.
         11    1    3    3    0    0 -0.47607796942E+00  0.28620566454E+02 -0.10541366526E+02  0.30503833904E+02  0.51100000000E-03 0. -1.
        -11    1    3    3    0    0  0.60371939384E+01  0.66125703726E+01  0.92888596716E+01  0.12901810409E+02  0.51100000000E-03 0.  1.
         12    1    3    3    0    0  0.49282245288E+01  0.39997014846E+01  0.32334409144E+01  0.71232119945E+01  0.00000000000E+00 0. -1.
</event>
<event>
 7    1  0.2973028E-011  0.5052884E+02  0.7816164E-02  0.1300439E+00
        -11   -1    0    0    0    0  0.00000000000E+00  0.00000000000E+00  0.45593999997E+02  0.45594000000E+02  0.51100000000E-03 0. -1.
         11   -1    0    0    0    0 -0.00000000000E+00 -0.00000000000E+00 -0.45593999997E+02  0.45594000000E+02  0.51100000000E-03 0.  1.
    9900012    2    1    2    0    0 -0.30240504677E+02 -0.17910300452E+02 -0.20442602727E+02  0.50528843692E+02  0.29999950886E+02 0.  0.
         12    1    1    2    0    0  0.30240504677E+02  0.17910300452E+02  0.20442602727E+02  0.40659156308E+02  0.00000000000E+00 0. -1.
         11    1    3    3    0    0 -0.93836456322E+01 -0.12946557651E+02 -0.17050176481E+02  0.23374658899E+02  0.51100000000E-03 0.  1.
        -11    1    3    3    0    0 -0.20872282947E+02 -0.34414840854E+01  0.22841143162E+01  0.21277057753E+02  0.51100000000E-03 0. -1.
         12    1    3    3    0    0  0.15423901886E-01 -0.15222587154E+01 -0.56765405625E+01  0.58771270406E+01  0.00000000000E+00 0. -1.
</event>
<event>
 7    1  0.2973028E-011  0.5052886E+02  0.7816164E-02  0.1300439E+00
        -11   -1    0    0    0    0  0.00000000000E+00  0.00000000000E+00  0.45593999997E+02  0.45594000000E+02  0.51100000000E-03 0.  1.
         11   -1    0    0    0    0 -0.00000000000E+00 -0.00000000000E+00 -0.45593999997E+02  0.45594000000E+02  0.51100000000E-03 0. -1.
    9900012    2    1    2    0    0 -0.38286017521E+00 -0.35171055192E+02  0.20396472814E+02  0.50528858242E+02  0.29999995112E+02 0.  0.
         12    1    1    2    0    0  0.38286017521E+00  0.35171055192E+02 -0.20396472814E+02  0.40659141758E+02  0.00000000000E+00 0. -1.
         11    1    3    3    0    0 -0.60294283295E+01 -0.37491941358E+01 -0.20540703163E+01  0.73911885224E+01  0.51100000000E-03 0. -1.
        -11    1    3    3    0    0  0.14948830585E+01 -0.26486226228E+02  0.24759185781E+02  0.36287355042E+02  0.51100000000E-03 0.  1.
        -12    1    3    3    0    0  0.41516850958E+01 -0.49356348286E+01 -0.23086426501E+01  0.68503146775E+01  0.00000000000E+00 0.  1.
</event>
<event>
 7    1  0.2973028E-011  0.5052895E+02  0.7816164E-02  0.1300438E+00
        -11   -1    0    0    0    0  0.00000000000E+00  0.00000000000E+00  0.45593999997E+02  0.45594000000E+02  0.51100000000E-03 0.  1.
         11   -1    0    0    0    0 -0.00000000000E+00 -0.00000000000E+00 -0.45593999997E+02  0.45594000000E+02  0.51100000000E-03 0. -1.
    9900012    2    1    2    0    0 -0.28367000383E+02 -0.12147308005E+02  0.26474787974E+02  0.50528951798E+02  0.30000279483E+02 0.  0.
         12    1    1    2    0    0  0.28367000383E+02  0.12147308005E+02 -0.26474787974E+02  0.40659048202E+02  0.00000000000E+00 0. -1.
         11    1    3    3    0    0  0.37509841144E+01 -0.60324657145E+01  0.35287206972E+01  0.79317333820E+01  0.51100000000E-03 0. -1.
        -11    1    3    3    0    0 -0.30720745073E+02 -0.13912454491E+01  0.18081091404E+02  0.35673878516E+02  0.51100000000E-03 0.  1.
        -12    1    3    3    0    0 -0.13972394237E+01 -0.47235968411E+01  0.48649758726E+01  0.69233398996E+01  0.00000000000E+00 0.  1.
</event>
<event>
 7    1  0.2973028E-011  0.5052886E+02  0.7816164E-02  0.1300439E+00
        -11   -1    0    0    0    0  0.00000000000E+00  0.00000000000E+00  0.45593999997E+02  0.45594000000E+02  0.51100000000E-03 0.  1.
         11   -1    0    0    0    0 -0.00000000000E+00 -0.00000000000E+00 -0.45593999997E+02  0.45594000000E+02  0.51100000000E-03 0. -1.
    9900012    2    1    2    0    0  0.50568700721E+01  0.18151941548E+02  0.36029164704E+02  0.50528860484E+02  0.30000001928E+02 0.  0.
         12    1    1    2    0    0 -0.50568700721E+01 -0.18151941548E+02 -0.36029164704E+02  0.40659139516E+02  0.00000000000E+00 0. -1.
         11    1    3    3    0    0 -0.51323228039E+01  0.59840354118E+01 -0.13395490692E+01  0.79964873003E+01  0.51100000000E-03 0. -1.
        -11    1    3    3    0    0  0.77196471335E+01  0.12291055460E+02  0.37337725166E+02  0.40059564614E+02  0.51100000000E-03 0.  1.
        -12    1    3    3    0    0  0.24695457425E+01 -0.12314932465E+00  0.30988607395E-01  0.24728085701E+01  0.00000000000E+00 0.  1.
</event>
<event>
 7    1  0.2973028E-011  0.5052886E+02  0.7816164E-02  0.1300439E+00
        -11   -1    0    0    0    0  0.00000000000E+00  0.00000000000E+00  0.45593999997E+02  0.45594000000E+02  0.51100000000E-03 0.  1.
         11   -1    0    0    0    0 -0.00000000000E+00 -0.00000000000E+00 -0.45593999997E+02  0.45594000000E+02  0.51100000000E-03 0. -1.
    9900012    2    1    2    0    0  0.40480864728E+02 -0.24534639459E+01  0.29061568555E+01  0.50528860288E+02  0.30000001331E+02 0.  0.
         12    1    1    2    0    0 -0.40480864728E+02  0.24534639459E+01 -0.29061568555E+01  0.40659139712E+02  0.00000000000E+00 0. -1.
         11    1    3    3    0    0  0.87204911943E+01 -0.22107930253E+01 -0.54363368070E+01  0.10511342950E+02  0.51100000000E-03 0. -1.
        -11    1    3    3    0    0  0.20136618828E+02 -0.66355001207E+01  0.14198356681E+02  0.25516790793E+02  0.51100000000E-03 0.  1.
        -12    1    3    3    0    0  0.11623754706E+02  0.63928292000E+01 -0.58558630184E+01  0.14500726545E+02  0.00000000000E+00 0.  1.
</event>
<event>
 7    1  0.2973028E-011  0.5052881E+02  0.7816164E-02  0.1300439E+00
        -11   -1    0    0    0    0  0.00000000000E+00  0.00000000000E+00  0.45593999997E+02  0.45594000000E+02  0.51100000000E-03 0. -1.
         11   -1    0    0    0    0 -0.00000000000E+00 -0.00000000000E+00 -0.45593999997E+02  0.45594000000E+02  0.51100000000E-03 0.  1.
    9900012    2    1    2    0    0 -0.21552796680E+02 -0.30141164924E+02 -0.16737889788E+02  0.50528808883E+02  0.29999845080E+02 0.  0.
         12    1    1    2    0    0  0.21552796680E+02  0.30141164924E+02  0.16737889788E+02  0.40659191117E+02  0.00000000000E+00 0. -1.
         11    1    3    3    0    0 -0.11068686880E+01 -0.60533521985E+01  0.31533756466E+01  0.69146228647E+01  0.51100000000E-03 0. -1.
        -11    1    3    3    0    0 -0.84515870782E+01 -0.21860724576E+02 -0.20860436659E+02  0.31376399108E+02  0.51100000000E-03 0.  1.
        -12    1    3    3    0    0 -0.11994340914E+02 -0.22270881497E+01  0.96917122404E+00  0.12237786910E+02  0.00000000000E+00 0.  1.
</event>
<event>
 7    1  0.2973028E-011  0.5052885E+02  0.7816164E-02  0.1300439E+00
        -11   -1    0    0    0    0  0.00000000000E+00  0.00000000000E+00  0.45593999997E+02  0.45594000000E+02  0.51100000000E-03 0.  1.
         11   -1    0    0    0    0 -0.00000000000E+00 -0.00000000000E+00 -0.45593999997E+02  0.45594000000E+02  0.51100000000E-03 0. -1.
    9900012    2    1    2    0    0 -0.29877993753E+02 -0.56619426356E+01  0.26989145440E+02  0.50528854944E+02  0.29999985087E+02 0.  0.
         12    1    1    2    0    0  0.29877993753E+02  0.56619426356E+01 -0.26989145440E+02  0.40659145056E+02  0.00000000000E+00 0. -1.
         11    1    3    3    0    0  0.17149795611E+01  0.35886681135E+01 -0.23066178321E+01  0.45978451267E+01  0.51100000000E-03 0. -1.
        -11    1    3    3    0    0 -0.28970790643E+02 -0.54702862306E+01  0.28945870990E+02  0.41316996376E+02  0.51100000000E-03 0.  1.
         12    1    3    3    0    0 -0.26221826716E+01 -0.37803245185E+01  0.34989228249E+00  0.46140134415E+01  0.00000000000E+00 0. -1.
</event>
<event>
 7    1  0.2973028E-011  0.5052883E+02  0.7816164E-02  0.1300439E+00
        -11   -1    0    0    0    0  0.00000000000E+00  0.00000000000E+00  0.45593999997E+02  0.45594000000E+02  0.51100000000E-03 0. -1.
         11   -1    0    0    0    0 -0.00000000000E+00 -0.00000000000E+00 -0.45593999997E+02  0.45594000000E+02  0.51100000000E-03 0.  1.
    9900012    2    1    2    0    0  0.31178872031E+02  0.25999377691E+02 -0.22535839984E+01  0.50528827083E+02  0.29999900401E+02 0.  0.
         12    1    1    2    0    0 -0.31178872031E+02 -0.25999377691E+02  0.22535839984E+01  0.40659172917E+02  0.00000000000E+00 0. -1.
         11    1    3    3    0    0  0.57619790400E+00 -0.44906230893E+01 -0.37016312707E+01  0.58480572911E+01  0.51100000000E-03 0. -1.
        -11    1    3    3    0    0  0.10690033568E+02  0.11090727873E+02 -0.49011635182E+01  0.16164852815E+02  0.51100000000E-03 0.  1.
         12    1    3    3    0    0  0.19912640559E+02  0.19399272907E+02  0.63492107905E+01  0.28515916976E+02  0.00000000000E+00 0. -1.
</event>
<event>
 7    1  0.2973028E-011  0.5052886E+02  0.7816164E-02  0.1300439E+00
        -11   -1    0    0    0    0  0.00000000000E+00  0.00000000000E+00  0.45593999997E+02  0.45594000000E+02  0.51100000000E-03 0.  1.
         11   -1    0    0    0    0 -0.00000000000E+00 -0.00000000000E+00 -0.45593999997E+02  0.45594000000E+02  0.51100000000E-03 0. -1.
    9900012    2    1    2    0    0  0.32851729844E+02  0.18956190167E+02  0.14648977568E+02  0.50528857815E+02  0.29999993814E+02 0.  0.
         12    1    1    2    0    0 -0.32851729844E+02 -0.18956190167E+02 -0.14648977568E+02  0.40659142185E+02  0.00000000000E+00 0. -1.
         11    1    3    3    0    0  0.22739493093E+02  0.14803332981E+02 -0.41336515282E+01  0.27446498660E+02  0.51100000000E-03 0. -1.
        -11    1    3    3    0    0  0.97224967922E+01  0.12390219748E+01  0.10844170574E+02  0.14617050148E+02  0.51100000000E-03 0.  1.
         12    1    3    3    0    0  0.38973995918E+00  0.29138352114E+01  0.79384585222E+01  0.84653090070E+01  0.00000000000E+00 0. -1.
</event>
<event>
 7    1  0.2973028E-011  0.5052886E+02  0.7816164E-02  0.1300439E+00
        -11   -1    0    0    0    0  0.00000000000E+00  0.00000000000E+00  0.45593999997E+02  0.45594000000E+02  0.51100000000E-03 0.  1.
         11   -1    0    0    0    0 -0.00000000000E+00 -0.00000000000E+00 -0.45593999997E+02  0.45594000000E+02  0.51100000000E-03 0. -1.
    9900012    2    1    2    0    0  0.18058915843E+02  0.15760253199E+02  0.32842891073E+02  0.50528861835E+02  0.30000006034E+02 0.  0.
         12    1    1    2    0    0 -0.18058915843E+02 -0.15760253199E+02 -0.32842891073E+02  0.40659138165E+02  0.00000000000E+00 0. -1.
         11    1    3    3    0    0  0.20760714397E+02  0.61785810450E+01  0.98851356389E+01  0.23809620595E+02  0.51100000000E-03 0. -1.
        -11    1    3    3    0    0  0.89034911356E-01  0.10118838224E+02  0.20866404178E+02  0.23190636856E+02  0.51100000000E-03 0.  1.
        -12    1    3    3    0    0 -0.27908334658E+01 -0.53716607066E+00  0.20913512557E+01  0.35286043836E+01  0.00000000000E+00 0.  1.
</event>
<event>
 7    1  0.2973028E-011  0.5052885E+02  0.7816164E-02  0.1300439E+00
        -11   -1    0    0    0    0  0.00000000000E+00  0.00000000000E+00  0.45593999997E+02  0.45594000000E+02  0.51100000000E-03 0.  1.
         11   -1    0    0    0    0 -0.00000000000E+00 -0.00000000000E+00 -0.45593999997E+02  0.45594000000E+02  0.51100000000E-03 0. -1.
    9900012    2    1    2    0    0 -0.26905199025E+02  0.46948686812E+00  0.30480419344E+02  0.50528854462E+02  0.29999983621E+02 0.  0.
         12    1    1    2    0    0  0.26905199025E+02 -0.46948686812E+00 -0.30480419344E+02  0.40659145538E+02  0.00000000000E+00 0. -1.
         11    1    3    3    0    0 -0.52628978529E+01  0.46193066695E+01  0.77635865757E+01  0.10455111893E+02  0.51100000000E-03 0. -1.
        -11    1    3    3    0    0 -0.24927502081E+02 -0.64057144728E+01  0.11537050747E+02  0.28204912305E+02  0.51100000000E-03 0.  1.
        -12    1    3    3    0    0  0.32852009087E+01  0.22558946715E+01  0.11179782022E+02  0.11868830264E+02  0.00000000000E+00 0.  1.
</event>
<event>
 7    1  0.2973028E-011  0.5052886E+02  0.7816164E-02  0.1300439E+00
        -11   -1    0    0    0    0  0.00000000000E+00  0.00000000000E+00  0.45593999997E+02  0.45594000000E+02  0.51100000000E-03 0. -1.
         11   -1    0    0    0    0 -0.00000000000E+00 -0.00000000000E+00 -0.45593999997E+02  0.45594000000E+02  0.51100000000E-03 0.  1.
    9900012    2    1    2    0    0  0.91786145440E+01  0.39439075384E+02 -0.36712251309E+01  0.50528861716E+02  0.30000005671E+02 0.  0.
         12    1    1    2    0    0 -0.91786145440E+01 -0.39439075384E+02  0.36712251309E+01  0.40659138284E+02  0.00000000000E+00 0. -1.
         11    1    3    3    0    0 -0.18950900622E+01  0.32346176997E+02  0.35831609383E+01  0.32599165254E+02  0.51100000000E-03 0. -1.
        -11    1    3    3    0    0  0.40562241000E+01 -0.19951797347E+01 -0.38931083001E+01  0.59657345416E+01  0.51100000000E-03 0.  1.
        -12    1    3    3    0    0  0.70174805062E+01  0.90880781212E+01 -0.33612777691E+01  0.11963961920E+02  0.00000000000E+00 0.  1.
</event>
<event>
 7    1  0.2973028E-011  0.5052887E+02  0.7816164E-02  0.1300439E+00
        -11   -1    0    0    0    0  0.00000000000E+00  0.00000000000E+00  0.45593999997E+02  0.45594000000E+02  0.51100000000E-03 0. -1.
         11   -1    0    0    0    0 -0.00000000000E+00 -0.00000000000E+00 -0.45593999997E+02  0.45594000000E+02  0.51100000000E-03 0.  1.
    9900012    2    1    2    0    0  0.34215234271E+02  0.19790750629E+02 -0.95293813282E+01  0.50528866030E+02  0.30000018785E+02 0.  0.
         12    1    1    2    0    0 -0.34215234271E+02 -0.19790750629E+02  0.95293813282E+01  0.40659133970E+02  0.00000000000E+00 0. -1.
         11    1    3    3    0    0  0.15145747000E+01  0.15447622805E+00  0.82693862853E+00  0.17325204713E+01  0.51100000000E-03 0. -1.
        -11    1    3    3    0    0  0.13794983048E+02  0.87668749713E+01  0.98357297575E+01  0.19076195485E+02  0.51100000000E-03 0.  1.
        -12    1    3    3    0    0  0.18905676523E+02  0.10869399429E+02 -0.20192049714E+02  0.29720150074E+02  0.00000000000E+00 0.  1.
</event>
<event>
 7    1  0.2973028E-011  0.5052887E+02  0.7816164E-02  0.1300439E+00
        -11   -1    0    0    0    0  0.00000000000E+00  0.00000000000E+00  0.45593999997E+02  0.45594000000E+02  0.51100000000E-03 0.  1.
         11   -1    0    0    0    0 -0.00000000000E+00 -0.00000000000E+00 -0.45593999997E+02  0.45594000000E+02  0.51100000000E-03 0. -1.
    9900012    2    1    2    0    0 -0.10516204790E+02  0.10518437911E+01  0.39261534832E+02  0.50528867497E+02  0.30000023245E+02 0.  0.
         12    1    1    2    0    0  0.10516204790E+02 -0.10518437911E+01 -0.39261534832E+02  0.40659132503E+02  0.00000000000E+00 0. -1.
         11    1    3    3    0    0  0.94850273447E+00 -0.70466008383E+01  0.54709059673E+01  0.89713462298E+01  0.51100000000E-03 0. -1.
        -11    1    3    3    0    0  0.10186215417E+01  0.11172107642E+02  0.13722937107E+02  0.17724914164E+02  0.51100000000E-03 0.  1.
        -12    1    3    3    0    0 -0.12483329066E+02 -0.30736630130E+01  0.20067691758E+02  0.23832607104E+02  0.00000000000E+00 0.  1.
</event>
<event>
 7    1  0.2973028E-011  0.5052886E+02  0.7816164E-02  0.1300439E+00
        -11   -1    0    0    0    0  0.00000000000E+00  0.00000000000E+00  0.45593999997E+02  0.45594000000E+02  0.51100000000E-03 0. -1.
         11   -1    0    0    0    0 -0.00000000000E+00 -0.00000000000E+00 -0.45593999997E+02  0.45594000000E+02  0.51100000000E-03 0.  1.
    9900012    2    1    2    0    0  0.40189069138E+01  0.13638717007E+02 -0.38091983260E+02  0.50528863227E+02  0.30000010266E+02 0.  0.
         12    1    1    2    0    0 -0.40189069138E+01 -0.13638717007E+02  0.38091983260E+02  0.40659136773E+02  0.00000000000E+00 0. -1.
         11    1    3    3    0    0  0.37949736526E+01 -0.26508105758E+01 -0.43474576440E+01  0.63505125745E+01  0.51100000000E-03 0. -1.
        -11    1    3    3    0    0 -0.11105249388E+02  0.49862045176E+01 -0.11277890239E+02  0.16594565615E+02  0.51100000000E-03 0.  1.
        -12    1    3    3    0    0  0.11329182649E+02  0.11303323065E+02 -0.22466635377E+02  0.27583785038E+02  0.00000000000E+00 0.  1.
</event>
<event>
 7    1  0.2973028E-011  0.5052885E+02  0.7816164E-02  0.1300439E+00
        -11   -1    0    0    0    0  0.00000000000E+00  0.00000000000E+00  0.45593999997E+02  0.45594000000E+02  0.51100000000E-03 0. -1.
         11   -1    0    0    0    0 -0.00000000000E+00 -0.00000000000E+00 -0.45593999997E+02  0.45594000000E+02  0.51100000000E-03 0.  1.
    9900012    2    1    2    0    0  0.59062922062E+01  0.22154944804E+01 -0.40166825624E+02  0.50528848704E+02  0.29999966121E+02 0.  0.
         12    1    1    2    0    0 -0.59062922062E+01 -0.22154944804E+01  0.40166825624E+02  0.40659151296E+02  0.00000000000E+00 0. -1.
         11    1    3    3    0    0  0.14395010044E+02 -0.26990416837E+01 -0.11934223983E+02  0.18892507576E+02  0.51100000000E-03 0. -1.
        -11    1    3    3    0    0 -0.85430010528E+01  0.16634237655E+01 -0.10642273487E+02  0.13748011887E+02  0.51100000000E-03 0.  1.
         12    1    3    3    0    0  0.54283215421E-01  0.32511123986E+01 -0.17590328154E+02  0.17888329242E+02  0.00000000000E+00 0. -1.
</event>
<event>
 7    1  0.2973028E-011  0.5052885E+02  0.7816164E-02  0.1300439E+00
        -11   -1    0    0    0    0  0.00000000000E+00  0.00000000000E+00  0.45593999997E+02  0.45594000000E+02  0.51100000000E-03 0.  1.
         11   -1    0    0    0    0 -0.00000000000E+00 -0.00000000000E+00 -0.45593999997E+02  0.45594000000E+02  0.51100000000E-03 0. -1.
    9900012    2    1    2    0    0  0.22874002367E+02  0.32914747410E+02  0.68239200700E+01  0.50528850151E+02  0.29999970519E+02 0.  0.
         12    1    1    2    0    0 -0.22874002367E+02 -0.32914747410E+02 -0.68239200700E+01  0.40659149849E+02  0.00000000000E+00 0. -1.
         11    1    3    3    0    0  0.77421784353E+01  0.86713587589E+01 -0.69709838557E+01  0.13554645175E+02  0.51100000000E-03 0. -1.
        -11    1    3    3    0    0  0.10294697614E+02  0.26293057380E+02  0.14381548667E+02  0.31688083055E+02  0.51100000000E-03 0.  1.
         12    1    3    3    0    0  0.48371263178E+01 -0.20496687293E+01 -0.58664474123E+00  0.52861219213E+01  0.00000000000E+00 0. -1.
</event>
<event>
 7    1  0.2973028E-011  0.5052886E+02  0.7816164E-02  0.1300439E+00
        -11   -1    0    0    0    0  0.00000000000E+00  0.00000000000E+00  0.45593999997E+02  0.45594000000E+02  0.51100000000E-03 0. -1.
         11   -1    0    0    0    0 -0.00000000000E+00 -0.00000000000E+00 -0.45593999997E+02  0.45594000000E+02  0.51100000000E-03 0.  1.
    9900012    2    1    2    0    0  0.28357947453E+01  0.19644413657E+02 -0.35485500399E+02  0.50528862548E+02  0.30000008201E+02 0.  0.
         12    1    1    2    0    0 -0.28357947453E+01 -0.19644413657E+02  0.35485500399E+02  0.40659137452E+02  0.00000000000E+00 0. -1.
         11    1    3    3    0    0 -0.99239726509E+01  0.43723597270E+01 -0.64519248486E+01  0.12618640865E+02  0.51100000000E-03 0. -1.
        -11    1    3    3    0    0  0.35095791070E+01  0.14693822229E+02 -0.18203565621E+02  0.23655767981E+02  0.51100000000E-03 0.  1.
         12    1    3    3    0    0  0.92501882892E+01  0.57823170130E+00 -0.10830009930E+02  0.14254453703E+02  0.00000000000E+00 0. -1.
</event>
<event>
 7    1  0.2973028E-011  0.5052885E+02  0.7816164E-02  0.1300439E+00
        -11   -1    0    0    0    0  0.00000000000E+00  0.00000000000E+00  0.45593999997E+02  0.45594000000E+02  0.51100000000E-03 0.  1.
         11   -1    0    0    0    0 -0.00000000000E+00 -0.00000000000E+00 -0.45593999997E+02  0.45594000000E+02  0.51100000000E-03 0. -1.
    9900012    2    1    2    0    0 -0.10200884893E+02  0.26909218482E+02  0.28722850212E+02  0.50528853228E+02  0.29999979871E+02 0.  0.
         12    1    1    2    0    0  0.10200884893E+02 -0.26909218482E+02 -0.28722850212E+02  0.40659146772E+02  0.00000000000E+00 0. -1.
         11    1    3    3    0    0  0.64696127344E+00  0.15687663487E+02 -0.13455473394E+01  0.15758548235E+02  0.51100000000E-03 0. -1.
        -11    1    3    3    0    0 -0.91041003517E+01  0.11622344915E+02  0.21922852052E+02  0.26430569175E+02  0.51100000000E-03 0.  1.
         12    1    3    3    0    0 -0.17437458150E+01 -0.40078991995E+00  0.81455454994E+01  0.83397358177E+01  0.00000000000E+00 0. -1.
</event>
<event>
 7    1  0.2973028E-011  0.5052886E+02  0.7816164E-02  0.1300439E+00
        -11   -1    0    0    0    0  0.00000000000E+00  0.00000000000E+00  0.45593999997E+02  0.45594000000E+02  0.51100000000E-03 0.  1.
         11   -1    0    0    0    0 -0.00000000000E+00 -0.00000000000E+00 -0.45593999997E+02  0.45594000000E+02  0.51100000000E-03 0. -1.
    9900012    2    1    2    0    0 -0.72576813254E+01 -0.53393729221E+01  0.39648238906E+02  0.50528859702E+02  0.29999999550E+02 0.  0.
         12    1    1    2    0    0  0.72576813254E+01  0.53393729221E+01 -0.39648238906E+02  0.40659140298E+02  0.00000000000E+00 0. -1.
         11    1    3    3    0    0 -0.43055914516E+01  0.75574417629E+01  0.33518055258E+00  0.87043316810E+01  0.51100000000E-03 0. -1.
        -11    1    3    3    0    0 -0.30553600411E+01 -0.13166092393E+02  0.35268093082E+02  0.37769294457E+02  0.51100000000E-03 0.  1.
         12    1    3    3    0    0  0.10327016732E+00  0.26927770750E+00  0.40449652712E+01  0.40552335637E+01  0.00000000000E+00 0. -1.
</event>
<event>
 7    1  0.2973028E-011  0.5052886E+02  0.7816164E-02  0.1300439E+00
        -11   -1    0    0    0    0  0.00000000000E+00  0.00000000000E+00  0.45593999997E+02  0.45594000000E+02  0.51100000000E-03 0.  1.
         11   -1    0    0    0    0 -0.00000000000E+00 -0.00000000000E+00 -0.45593999997E+02  0.45594000000E+02  0.51100000000E-03 0. -1.
    9900012    2    1    2    0    0  0.17761134979E+02 -0.35880463597E+02 -0.70922428407E+01  0.50528862132E+02  0.30000006936E+02 0.  0.
         12    1    1    2    0    0 -0.17761134979E+02  0.35880463597E+02  0.70922428407E+01  0.40659137868E+02  0.00000000000E+00 0. -1.
         11    1    3    3    0    0  0.88370233227E+01 -0.27499700303E+02  0.63758445358E+01  0.29580025215E+02  0.51100000000E-03 0. -1.
        -11    1    3    3    0    0  0.75406158621E+01 -0.69863349387E+01 -0.36070529218E+01  0.10894062350E+02  0.51100000000E-03 0.  1.
         12    1    3    3    0    0  0.13834957941E+01 -0.13944283557E+01 -0.98610344548E+01  0.10054774566E+02  0.00000000000E+00 0. -1.
</event>
<event>
 7    1  0.2973028E-011  0.5052886E+02  0.7816164E-02  0.1300439E+00
        -11   -1    0    0    0    0  0.00000000000E+00  0.00000000000E+00  0.45593999997E+02  0.45594000000E+02  0.51100000000E-03 0.  1.
         11   -1    0    0    0    0 -0.00000000000E+00 -0.00000000000E+00 -0.45593999997E+02  0.45594000000E+02  0.51100000000E-03 0. -1.
    9900012    2    1    2    0    0 -0.21467399376E+02  0.26976816444E+02  0.21553830022E+02  0.50528862650E+02  0.30000008510E+02 0.  0.
         12    1    1    2    0    0  0.21467399376E+02 -0.26976816444E+02 -0.21553830022E+02  0.40659137350E+02  0.00000000000E+00 0. -1.
         11    1    3    3    0    0 -0.14661657193E+01  0.65917738808E+01 -0.31346261138E+01  0.74449315609E+01  0.51100000000E-03 0. -1.
        -11    1    3    3    0    0 -0.20887519599E+02  0.23245999662E+02  0.25070083528E+02  0.40064623593E+02  0.51100000000E-03 0.  1.
        -12    1    3    3    0    0  0.88628594247E+00 -0.28609570982E+01 -0.38162739192E+00  0.30193074960E+01  0.00000000000E+00 0.  1.
</event>
<event>
 7    1  0.2973028E-011  0.5052886E+02  0.7816164E-02  0.1300439E+00
        -11   -1    0    0    0    0  0.00000000000E+00  0.00000000000E+00  0.45593999997E+02  0.45594000000E+02  0.51100000000E-03 0.  1.
         11   -1    0    0    0    0 -0.00000000000E+00 -0.00000000000E+00 -0.45593999997E+02  0.45594000000E+02  0.51100000000E-03 0. -1.
    9900012    2    1    2    0    0 -0.24253038845E+02 -0.37266498675E+01  0.32420180270E+02  0.50528857103E+02  0.29999991649E+02 0.  0.
         12    1    1    2    0    0  0.24253038845E+02  0.37266498675E+01 -0.32420180270E+02  0.40659142897E+02  0.00000000000E+00 0. -1.
         11    1    3    3    0    0  0.38911896219E+01 -0.59392364945E+01  0.67647278109E+01  0.98070091990E+01  0.51100000000E-03 0. -1.
        -11    1    3    3    0    0 -0.11317962650E+02  0.18699049855E+01  0.19287898884E+01  0.11632413932E+02  0.51100000000E-03 0.  1.
         12    1    3    3    0    0 -0.16826265817E+02  0.34268164154E+00  0.23726662570E+02  0.29089433971E+02  0.00000000000E+00 0. -1.
</event>
<event>
 7    1  0.2973028E-011  0.5052886E+02  0.7816164E-02  0.1300439E+00
        -11   -1    0    0    0    0  0.00000000000E+00  0.00000000000E+00  0.45593999997E+02  0.45594000000E+02  0.51100000000E-03 0.  1.
         11   -1    0    0    0    0 -0.00000000000E+00 -0.00000000000E+00 -0.45593999997E+02  0.45594000000E+02  0.51100000000E-03 0. -1.
    9900012    2    1    2    0    0  0.13436290985E+02  0.17357566677E+02  0.34224939217E+02  0.50528862026E+02  0.30000006614E+02 0.  0.
         12    1    1    2    0    0 -0.13436290985E+02 -0.17357566677E+02 -0.34224939217E+02  0.40659137974E+02  0.00000000000E+00 0. -1.
         11    1    3    3    0    0 -0.60893351409E+01  0.10130654613E+01  0.98701153170E+01  0.11641541166E+02  0.51100000000E-03 0. -1.
        -11    1    3    3    0    0  0.12355271324E+02  0.16617372074E+02  0.10346652309E+02  0.23148282839E+02  0.51100000000E-03 0.  1.
        -12    1    3    3    0    0  0.71703548013E+01 -0.27287085844E+00  0.14008171591E+02  0.15739038020E+02  0.00000000000E+00 0.  1.
</event>
<event>
 7    1  0.2973028E-011  0.5052884E+02  0.7816164E-02  0.1300439E+00
        -11   -1    0    0    0    0  0.00000000000E+00  0.00000000000E+00  0.45593999997E+02  0.45594000000E+02  0.51100000000E-03 0.  1.
         11   -1    0    0    0    0 -0.00000000000E+00 -0.00000000000E+00 -0.45593999997E+02  0.45594000000E+02  0.51100000000E-03 0. -1.
    9900012    2    1    2    0    0  0.14841973064E+02  0.37169517742E+02  0.71631028371E+01  0.50528840444E+02  0.29999941012E+02 0.  0.
         12    1    1    2    0    0 -0.14841973064E+02 -0.37169517742E+02 -0.71631028371E+01  0.40659159556E+02  0.00000000000E+00 0. -1.
         11    1    3    3    0    0 -0.70737403292E+01  0.26839476930E+01  0.18426080616E+01  0.77869494793E+01  0.51100000000E-03 0. -1.
        -11    1    3    3    0    0  0.18610468294E+02  0.21198449607E+02  0.66610758069E+01  0.28984370392E+02  0.51100000000E-03 0.  1.
         12    1    3    3    0    0  0.33052450994E+01  0.13287120442E+02 -0.13405810314E+01  0.13757520572E+02  0.00000000000E+00 0. -1.
</event>
<event>
 7    1  0.2973028E-011  0.5052886E+02  0.7816164E-02  0.1300439E+00
        -11   -1    0    0    0    0  0.00000000000E+00  0.00000000000E+00  0.45593999997E+02  0.45594000000E+02  0.51100000000E-03 0. -1.
         11   -1    0    0    0    0 -0.00000000000E+00 -0.00000000000E+00 -0.45593999997E+02  0.45594000000E+02  0.51100000000E-03 0.  1.
    9900012    2    1    2    0    0 -0.20664312341E+02 -0.34023084716E+02 -0.82813853155E+01  0.50528862763E+02  0.30000008854E+02 0.  0.
         12    1    1    2    0    0  0.20664312341E+02  0.34023084716E+02  0.82813853155E+01  0.40659137237E+02  0.00000000000E+00 0. -1.
         11    1    3    3    0    0  0.41935036508E+01 -0.89702608089E+01  0.19071108849E+01  0.10084052957E+02  0.51100000000E-03 0. -1.
        -11    1    3    3    0    0 -0.23958156356E+02 -0.16850300283E+02 -0.12544086920E+02  0.31863458578E+02  0.51100000000E-03 0.  1.
        -12    1    3    3    0    0 -0.89965963604E+00 -0.82025236239E+01  0.23555907199E+01  0.85813512281E+01  0.00000000000E+00 0.  1.
</event>
<event>
 7    1  0.2973028E-011  0.5052886E+02  0.7816164E-02  0.1300439E+00
        -11   -1    0    0    0    0  0.00000000000E+00  0.00000000000E+00  0.45593999997E+02  0.45594000000E+02  0.51100000000E-03 0.  1.
         11   -1    0    0    0    0 -0.00000000000E+00 -0.00000000000E+00 -0.45593999997E+02  0.45594000000E+02  0.51100000000E-03 0. -1.
    9900012    2    1    2    0    0  0.38871170087E+02  0.11434188745E+02  0.33848325617E+01  0.50528860466E+02  0.30000001873E+02 0.  0.
         12    1    1    2    0    0 -0.38871170087E+02 -0.11434188745E+02 -0.33848325617E+01  0.40659139534E+02  0.00000000000E+00 0. -1.
         11    1    3    3    0    0  0.69259614831E-01 -0.44689294586E+01  0.69600862246E+01  0.82715734849E+01  0.51100000000E-03 0. -1.
        -11    1    3    3    0    0  0.24096368067E+02  0.11823425168E+02 -0.25597238008E+01  0.26962576341E+02  0.51100000000E-03 0.  1.
         12    1    3    3    0    0  0.14705542404E+02  0.40796930363E+01 -0.10155298621E+01  0.15294710641E+02  0.00000000000E+00 0. -1.
</event>
<event>
 7    1  0.2973028E-011  0.5052886E+02  0.7816164E-02  0.1300439E+00
        -11   -1    0    0    0    0  0.00000000000E+00  0.00000000000E+00  0.45593999997E+02  0.45594000000E+02  0.51100000000E-03 0.  1.
         11   -1    0    0    0    0 -0.00000000000E+00 -0.00000000000E+00 -0.45593999997E+02  0.45594000000E+02  0.51100000000E-03 0. -1.
    9900012    2    1    2    0    0  0.37731825955E+02  0.12018564043E+02  0.92211325194E+01  0.50528857652E+02  0.29999993318E+02 0.  0.
         12    1    1    2    0    0 -0.37731825955E+02 -0.12018564043E+02 -0.92211325194E+01  0.40659142348E+02  0.00000000000E+00 0. -1.
         11    1    3    3    0    0  0.31234706572E+02  0.54830133148E+01 -0.51385592216E+01  0.32125925991E+02  0.51100000000E-03 0. -1.
        -11    1    3    3    0    0  0.64491977397E+01  0.25120831520E+01  0.61439978369E+01  0.92548053966E+01  0.51100000000E-03 0.  1.
         12    1    3    3    0    0  0.47921643401E-01  0.40234675759E+01  0.82156939040E+01  0.91481262641E+01  0.00000000000E+00 0. -1.
</event>
<event>
 7    1  0.2973028E-011  0.5052888E+02  0.7816164E-02  0.1300439E+00
        -11   -1    0    0    0    0  0.00000000000E+00  0.00000000000E+00  0.45593999997E+02  0.45594000000E+02  0.51100000000E-03 0.  1.
         11   -1    0    0    0    0 -0.00000000000E+00 -0.00000000000E+00 -0.45593999997E+02  0.45594000000E+02  0.51100000000E-03 0. -1.
    9900012    2    1    2    0    0  0.17173562772E+02 -0.28000668669E+02  0.23962374948E+02  0.50528879039E+02  0.30000058325E+02 0.  0.
         12    1    1    2    0    0 -0.17173562772E+02  0.28000668669E+02 -0.23962374948E+02  0.40659120961E+02  0.00000000000E+00 0. -1.
         11    1    3    3    0    0  0.11613058898E+02 -0.24056794530E+01  0.18453863859E+02  0.21936169269E+02  0.51100000000E-03 0. -1.
        -11    1    3    3    0    0  0.23779708207E+00 -0.59936979162E+01 -0.28350475189E+01  0.66346406729E+01  0.51100000000E-03 0.  1.
         12    1    3    3    0    0  0.53227067921E+01 -0.19601291300E+02  0.83435586080E+01  0.21958069097E+02  0.00000000000E+00 0. -1.
</event>
<event>
 7    1  0.2973028E-011  0.5052885E+02  0.7816164E-02  0.1300439E+00
        -11   -1    0    0    0    0  0.00000000000E+00  0.00000000000E+00  0.45593999997E+02  0.45594000000E+02  0.51100000000E-03 0. -1.
         11   -1    0    0    0    0 -0.00000000000E+00 -0.00000000000E+00 -0.45593999997E+02  0.45594000000E+02  0.51100000000E-03 0.  1.
    9900012    2    1    2    0    0  0.24073303044E+02  0.19543390842E+02 -0.26300152933E+02  0.50528854789E+02  0.29999984615E+02 0.  0.
         12    1    1    2    0    0 -0.24073303044E+02 -0.19543390842E+02  0.26300152933E+02  0.40659145211E+02  0.00000000000E+00 0. -1.
         11    1    3    3    0    0  0.15397759839E+02 -0.40096615237E+01 -0.16265621270E+02  0.22753875036E+02  0.51100000000E-03 0. -1.
        -11    1    3    3    0    0  0.69848249618E+01  0.12016050758E+02 -0.32104526311E+01  0.14264650782E+02  0.51100000000E-03 0.  1.
         12    1    3    3    0    0  0.16907182432E+01  0.11537001608E+02 -0.68240790314E+01  0.13510328971E+02  0.00000000000E+00 0. -1.
</event>
<event>
 7    1  0.2973028E-011  0.5052886E+02  0.7816164E-02  0.1300439E+00
        -11   -1    0    0    0    0  0.00000000000E+00  0.00000000000E+00  0.45593999997E+02  0.45594000000E+02  0.51100000000E-03 0.  1.
         11   -1    0    0    0    0 -0.00000000000E+00 -0.00000000000E+00 -0.45593999997E+02  0.45594000000E+02  0.51100000000E-03 0. -1.
    9900012    2    1    2    0    0  0.80286397875E+01 -0.47181328982E+01  0.39578349776E+02  0.50528860733E+02  0.30000002685E+02 0.  0.
         12    1    1    2    0    0 -0.80286397875E+01  0.47181328982E+01 -0.39578349776E+02  0.40659139267E+02  0.00000000000E+00 0. -1.
         11    1    3    3    0    0  0.19733707535E+01  0.13441499298E+01  0.17947140220E+01  0.29869599674E+01  0.51100000000E-03 0. -1.
        -11    1    3    3    0    0  0.80865629974E+00  0.65043468286E+01 -0.82114109923E+00  0.66056586078E+01  0.51100000000E-03 0.  1.
        -12    1    3    3    0    0  0.52466127342E+01 -0.12566629657E+02  0.38604776854E+02  0.40936242158E+02  0.00000000000E+00 0.  1.
</event>
<event>
 7    1  0.2973028E-011  0.5052886E+02  0.7816164E-02  0.1300439E+00
        -11   -1    0    0    0    0  0.00000000000E+00  0.00000000000E+00  0.45593999997E+02  0.45594000000E+02  0.51100000000E-03 0.  1.
         11   -1    0    0    0    0 -0.00000000000E+00 -0.00000000000E+00 -0.45593999997E+02  0.45594000000E+02  0.51100000000E-03 0. -1.
    9900012    2    1    2    0    0  0.34087327078E+02  0.10951443887E+02  0.19268777090E+02  0.50528858825E+02  0.29999996883E+02 0.  0.
         12    1    1    2    0    0 -0.34087327078E+02 -0.10951443887E+02 -0.19268777090E+02  0.40659141175E+02  0.00000000000E+00 0. -1.
         11    1    3    3    0    0  0.19528282285E+02  0.20113171922E+02  0.13174008933E+02  0.30974957714E+02  0.51100000000E-03 0. -1.
        -11    1    3    3    0    0  0.14593786297E+02 -0.80160226688E+01  0.70308914928E+01  0.18073977243E+02  0.51100000000E-03 0.  1.
         12    1    3    3    0    0 -0.34741503827E-01 -0.11457053658E+01 -0.93612333515E+00  0.14799238683E+01  0.00000000000E+00 0. -1.
</event>
<event>
 7    1  0.2973028E-011  0.5052884E+02  0.7816164E-02  0.1300439E+00
        -11   -1    0    0    0    0  0.00000000000E+00  0.00000000000E+00  0.45593999997E+02  0.45594000000E+02  0.51100000000E-03 0.  1.
         11   -1    0    0    0    0 -0.00000000000E+00 -0.00000000000E+00 -0.45593999997E+02  0.45594000000E+02  0.51100000000E-03 0. -1.
    9900012    2    1    2    0    0 -0.17048543032E+02 -0.33018279316E+01  0.36764284029E+02  0.50528837842E+02  0.29999933105E+02 0.  0.
         12    1    1    2    0    0  0.17048543032E+02  0.33018279316E+01 -0.36764284029E+02  0.40659162158E+02  0.00000000000E+00 0. -1.
         11    1    3    3    0    0  0.44977790467E+01  0.28802370318E+01 -0.12868446179E+01  0.54937920460E+01  0.51100000000E-03 0. -1.
        -11    1    3    3    0    0 -0.10163590569E+02  0.14356113423E+01  0.14037370410E+02  0.17389862607E+02  0.51100000000E-03 0.  1.
         12    1    3    3    0    0 -0.11382731509E+02 -0.76176763058E+01  0.24013758237E+02  0.27645183190E+02  0.00000000000E+00 0. -1.
</event>
<event>
 7    1  0.2973028E-011  0.5052887E+02  0.7816164E-02  0.1300439E+00
        -11   -1    0    0    0    0  0.00000000000E+00  0.00000000000E+00  0.45593999997E+02  0.45594000000E+02  0.51100000000E-03 0. -1.
         11   -1    0    0    0    0 -0.00000000000E+00 -0.00000000000E+00 -0.45593999997E+02  0.45594000000E+02  0.51100000000E-03 0.  1.
    9900012    2    1    2    0    0 -0.21152717900E+02 -0.25670004862E+02 -0.23383298185E+02  0.50528865009E+02  0.30000015682E+02 0.  0.
         12    1    1    2    0    0  0.21152717900E+02  0.25670004862E+02  0.23383298185E+02  0.40659134991E+02  0.00000000000E+00 0. -1.
         11    1    3    3    0    0  0.58592781803E+00  0.24172921872E+01  0.18403899979E+01  0.30941313049E+01  0.51100000000E-03 0. -1.
        -11    1    3    3    0    0 -0.29514549992E+01 -0.18188136389E+02 -0.15501529549E+02  0.24079385593E+02  0.51100000000E-03 0.  1.
        -12    1    3    3    0    0 -0.18787190719E+02 -0.98991606603E+01 -0.97221586332E+01  0.23355348111E+02  0.00000000000E+00 0.  1.
</event>
<event>
 7    1  0.2973028E-011  0.5052886E+02  0.7816164E-02  0.1300439E+00
        -11   -1    0    0    0    0  0.00000000000E+00  0.00000000000E+00  0.45593999997E+02  0.45594000000E+02  0.51100000000E-03 0.  1.
         11   -1    0    0    0    0 -0.00000000000E+00 -0.00000000000E+00 -0.45593999997E+02  0.45594000000E+02  0.51100000000E-03 0. -1.
    9900012    2    1    2    0    0 -0.16052291437E+02  0.37352306660E+02 -0.54267711664E+00  0.50528863614E+02  0.30000011440E+02 0.  0.
         12    1    1    2    0    0  0.16052291437E+02 -0.37352306660E+02  0.54267711664E+00  0.40659136386E+02  0.00000000000E+00 0. -1.
         11    1    3    3    0    0 -0.53927999467E+01  0.65879364811E+00  0.30084435477E+01  0.62102361611E+01  0.51100000000E-03 0. -1.
        -11    1    3    3    0    0 -0.10684174686E+02  0.39676321944E+02 -0.25365770688E+01  0.41167904188E+02  0.51100000000E-03 0.  1.
         12    1    3    3    0    0  0.24683195412E-01 -0.29828089317E+01 -0.10145435956E+01  0.31507232646E+01  0.00000000000E+00 0. -1.
</event>
<event>
 7    1  0.2973028E-011  0.5052882E+02  0.7816164E-02  0.1300439E+00
        -11   -1    0    0    0    0  0.00000000000E+00  0.00000000000E+00  0.45593999997E+02  0.45594000000E+02  0.51100000000E-03 0.  1.
         11   -1    0    0    0    0 -0.00000000000E+00 -0.00000000000E+00 -0.45593999997E+02  0.45594000000E+02  0.51100000000E-03 0. -1.
    9900012    2    1    2    0    0  0.13369031984E+02 -0.37835893510E+02 -0.65485401399E+01  0.50528816144E+02  0.29999867151E+02 0.  0.
         12    1    1    2    0    0 -0.13369031984E+02  0.37835893510E+02  0.65485401399E+01  0.40659183856E+02  0.00000000000E+00 0. -1.
         11    1    3    3    0    0 -0.62288937761E+01 -0.87599535159E+01  0.60877515555E+01  0.12353000548E+02  0.51100000000E-03 0. -1.
        -11    1    3    3    0    0  0.75127711330E+01 -0.99956554539E+01 -0.87418006554E+01  0.15256930786E+02  0.51100000000E-03 0.  1.
         12    1    3    3    0    0  0.12085154627E+02 -0.19080284540E+02 -0.38944910401E+01  0.22918884810E+02  0.00000000000E+00 0. -1.
</event>
<event>
 7    1  0.2973028E-011  0.5052889E+02  0.7816164E-02  0.1300439E+00
        -11   -1    0    0    0    0  0.00000000000E+00  0.00000000000E+00  0.45593999997E+02  0.45594000000E+02  0.51100000000E-03 0.  1.
         11   -1    0    0    0    0 -0.00000000000E+00 -0.00000000000E+00 -0.45593999997E+02  0.45594000000E+02  0.51100000000E-03 0. -1.
    9900012    2    1    2    0    0  0.40557546708E+02 -0.23553761247E+01 -0.16434398946E+01  0.50528889257E+02  0.30000089386E+02 0.  0.
         12    1    1    2    0    0 -0.40557546708E+02  0.23553761247E+01  0.16434398946E+01  0.40659110743E+02  0.00000000000E+00 0. -1.
         11    1    3    3    0    0  0.17072537368E+02 -0.79648258919E+01 -0.13725140687E+02  0.23308570759E+02  0.51100000000E-03 0. -1.
        -11    1    3    3    0    0  0.19910703297E+02  0.43537365910E+01  0.87680583039E+01  0.22187157880E+02  0.51100000000E-03 0.  1.
         12    1    3    3    0    0  0.35743060428E+01  0.12557131762E+01  0.33136424888E+01  0.50331606185E+01  0.00000000000E+00 0. -1.
</event>
<event>
 7    1  0.2973028E-011  0.5052887E+02  0.7816164E-02  0.1300439E+00
        -11   -1    0    0    0    0  0.00000000000E+00  0.00000000000E+00  0.45593999997E+02  0.45594000000E+02  0.51100000000E-03 0.  1.
         11   -1    0    0    0    0 -0.00000000000E+00 -0.00000000000E+00 -0.45593999997E+02  0.45594000000E+02  0.51100000000E-03 0. -1.
    9900012    2    1    2    0    0 -0.29510242304E+02  0.26626719842E+02 -0.85631986125E+01  0.50528868419E+02  0.30000026048E+02 0.  0.
         12    1    1    2    0    0  0.29510242304E+02 -0.26626719842E+02  0.85631986125E+01  0.40659131581E+02  0.00000000000E+00 0. -1.
         11    1    3    3    0    0  0.41741098905E+01  0.63025018494E+01 -0.27926273048E+01  0.80587524136E+01  0.51100000000E-03 0. -1.
        -11    1    3    3    0    0 -0.18660339653E+02  0.18154961223E+02 -0.77450949758E+01  0.27162426059E+02  0.51100000000E-03 0.  1.
        -12    1    3    3    0    0 -0.15024012541E+02  0.21692567698E+01  0.19745236681E+01  0.15307689946E+02  0.00000000000E+00 0.  1.
</event>
<event>
 7    1  0.2973028E-011  0.5052888E+02  0.7816164E-02  0.1300439E+00
        -11   -1    0    0    0    0  0.00000000000E+00  0.00000000000E+00  0.45593999997E+02  0.45594000000E+02  0.51100000000E-03 0.  1.
         11   -1    0    0    0    0 -0.00000000000E+00 -0.00000000000E+00 -0.45593999997E+02  0.45594000000E+02  0.51100000000E-03 0. -1.
    9900012    2    1    2    0    0  0.14888331814E+01  0.29099972227E+02  0.28357351631E+02  0.50528875570E+02  0.30000047783E+02 0.  0.
         12    1    1    2    0    0 -0.14888331814E+01 -0.29099972227E+02 -0.28357351631E+02  0.40659124430E+02  0.00000000000E+00 0. -1.
         11    1    3    3    0    0  0.48888325175E+01  0.13447455566E+02  0.25374571155E+01  0.14531807646E+02  0.51100000000E-03 0. -1.
        -11    1    3    3    0    0 -0.11356524882E+02  0.10440582734E+02  0.17809812658E+02  0.23561957737E+02  0.51100000000E-03 0.  1.
         12    1    3    3    0    0  0.79565255455E+01  0.52119339277E+01  0.80100818577E+01  0.12435110188E+02  0.00000000000E+00 0. -1.
</event>
<event>
 7    1  0.2973028E-011  0.5052884E+02  0.7816164E-02  0.1300439E+00
        -11   -1    0    0    0    0  0.00000000000E+00  0.00000000000E+00  0.45593999997E+02  0.45594000000E+02  0.51100000000E-03 0.  1.
         11   -1    0    0    0    0 -0.00000000000E+00 -0.00000000000E+00 -0.45593999997E+02  0.45594000000E+02  0.51100000000E-03 0. -1.
    9900012    2    1    2    0    0 -0.10434020012E+02  0.25970042749E+02  0.29493312015E+02  0.50528839315E+02  0.29999937581E+02 0.  0.
         12    1    1    2    0    0  0.10434020012E+02 -0.25970042749E+02 -0.29493312015E+02  0.40659160685E+02  0.00000000000E+00 0. -1.
         11    1    3    3    0    0 -0.54243699529E+01 -0.55866643875E+01  0.50123949870E+01  0.92605999876E+01  0.51100000000E-03 0. -1.
        -11    1    3    3    0    0 -0.60780802814E+01  0.24937848288E+02  0.22857134479E+02  0.34369869566E+02  0.51100000000E-03 0.  1.
        -12    1    3    3    0    0  0.10684302224E+01  0.66188588486E+01  0.16237825500E+01  0.68983697616E+01  0.00000000000E+00 0.  1.
</event>
<event>
 7    1  0.2973028E-011  0.5052886E+02  0.7816164E-02  0.1300439E+00
        -11   -1    0    0    0    0  0.00000000000E+00  0.00000000000E+00  0.45593999997E+02  0.45594000000E+02  0.51100000000E-03 0.  1.
         11   -1    0    0    0    0 -0.00000000000E+00 -0.00000000000E+00 -0.45593999997E+02  0.45594000000E+02  0.51100000000E-03 0. -1.
    9900012    2    1    2    0    0  0.32100116820E+02  0.72007323385E+01  0.23893464839E+02  0.50528859477E+02  0.29999998865E+02 0.  0.
         12    1    1    2    0    0 -0.32100116820E+02 -0.72007323385E+01 -0.23893464839E+02  0.40659140523E+02  0.00000000000E+00 0. -1.
         11    1    3    3    0    0  0.12898218886E+02  0.14716277780E+02  0.18279983668E+02  0.26778548976E+02  0.51100000000E-03 0. -1.
        -11    1    3    3    0    0  0.54697079313E+01 -0.28419937306E+01 -0.30260366480E+01  0.68666972611E+01  0.51100000000E-03 0.  1.
         12    1    3    3    0    0  0.13732190002E+02 -0.46735517105E+01  0.86395178197E+01  0.16883613239E+02  0.00000000000E+00 0. -1.
</event>
<event>
 7    1  0.2973028E-011  0.5052885E+02  0.7816164E-02  0.1300439E+00
        -11   -1    0    0    0    0  0.00000000000E+00  0.00000000000E+00  0.45593999997E+02  0.45594000000E+02  0.51100000000E-03 0. -1.
         11   -1    0    0    0    0 -0.00000000000E+00 -0.00000000000E+00 -0.45593999997E+02  0.45594000000E+02  0.51100000000E-03 0.  1.
    9900012    2    1    2    0    0  0.37174413735E+01  0.17998285659E+02 -0.36268559615E+02  0.50528854983E+02  0.29999985206E+02 0.  0.
         12    1    1    2    0    0 -0.37174413735E+01 -0.17998285659E+02  0.36268559615E+02  0.40659145017E+02  0.00000000000E+00 0. -1.
         11    1    3    3    0    0 -0.37428661101E-01 -0.44937211877E+01  0.68945860396E+00  0.45464584508E+01  0.51100000000E-03 0. -1.
        -11    1    3    3    0    0  0.63888019244E-02  0.17465996794E+02 -0.35471840511E+02  0.39538747506E+02  0.51100000000E-03 0.  1.
        -12    1    3    3    0    0  0.37484812327E+01  0.50260100522E+01 -0.14861777077E+01  0.64436490264E+01  0.00000000000E+00 0.  1.
</event>
<event>
 7    1  0.2973028E-011  0.5052887E+02  0.7816164E-02  0.1300439E+00
        -11   -1    0    0    0    0  0.00000000000E+00  0.00000000000E+00  0.45593999997E+02  0.45594000000E+02  0.51100000000E-03 0.  1.
         11   -1    0    0    0    0 -0.00000000000E+00 -0.00000000000E+00 -0.45593999997E+02  0.45594000000E+02  0.51100000000E-03 0. -1.
    9900012    2    1    2    0    0 -0.23015844297E+02  0.22738621104E+01  0.33440468367E+02  0.50528874798E+02  0.30000045436E+02 0.  0.
         12    1    1    2    0    0  0.23015844297E+02 -0.22738621104E+01 -0.33440468367E+02  0.40659125202E+02  0.00000000000E+00 0. -1.
         11    1    3    3    0    0 -0.71770393529E-01 -0.65263517203E-01  0.11278759046E+02  0.11279176220E+02  0.51100000000E-03 0. -1.
        -11    1    3    3    0    0 -0.17649206998E+02  0.10154933083E+02  0.72764984589E+01  0.21623242209E+02  0.51100000000E-03 0.  1.
        -12    1    3    3    0    0 -0.52948669059E+01 -0.78158074555E+01  0.14885210862E+02  0.17626456369E+02  0.00000000000E+00 0.  1.
</event>
<event>
 7    1  0.2973028E-011  0.5052886E+02  0.7816164E-02  0.1300439E+00
        -11   -1    0    0    0    0  0.00000000000E+00  0.00000000000E+00  0.45593999997E+02  0.45594000000E+02  0.51100000000E-03 0.  1.
         11   -1    0    0    0    0 -0.00000000000E+00 -0.00000000000E+00 -0.45593999997E+02  0.45594000000E+02  0.51100000000E-03 0. -1.
    9900012    2    1    2    0    0 -0.29829450446E+02  0.22652228871E+02  0.15819174524E+02  0.50528857493E+02  0.29999992837E+02 0.  0.
         12    1    1    2    0    0  0.29829450446E+02 -0.22652228871E+02 -0.15819174524E+02  0.40659142507E+02  0.00000000000E+00 0. -1.
         11    1    3    3    0    0 -0.19074422702E+02  0.16224560895E+01  0.83918019218E+00  0.19161685438E+02  0.51100000000E-03 0. -1.
        -11    1    3    3    0    0 -0.19914204820E+01  0.93355958552E+01  0.13700186994E+02  0.16697731266E+02  0.51100000000E-03 0.  1.
        -12    1    3    3    0    0 -0.87636072621E+01  0.11694176926E+02  0.12798073372E+01  0.14669440789E+02  0.00000000000E+00 0.  1.
</event>
<event>
 7    1  0.2973028E-011  0.5052886E+02  0.7816164E-02  0.1300439E+00
        -11   -1    0    0    0    0  0.00000000000E+00  0.00000000000E+00  0.45593999997E+02  0.45594000000E+02  0.51100000000E-03 0.  1.
         11   -1    0    0    0    0 -0.00000000000E+00 -0.00000000000E+00 -0.45593999997E+02  0.45594000000E+02  0.51100000000E-03 0. -1.
    9900012    2    1    2    0    0  0.38956166228E+02 -0.55520539293E+01  0.10235101751E+02  0.50528862062E+02  0.30000006724E+02 0.  0.
         12    1    1    2    0    0 -0.38956166228E+02  0.55520539293E+01 -0.10235101751E+02  0.40659137938E+02  0.00000000000E+00 0. -1.
         11    1    3    3    0    0  0.20787541584E+02 -0.11287057286E+02  0.16399199741E+02  0.28782864689E+02  0.51100000000E-03 0.  1.
        -11    1    3    3    0    0  0.96346515247E+01  0.60423420917E+01 -0.28090827176E+00  0.11376085341E+02  0.51100000000E-03 0. -1.
         12    1    3    3    0    0  0.85339731186E+01 -0.30733873503E+00 -0.58831897189E+01  0.10369912032E+02  0.00000000000E+00 0. -1.
</event>
<event>
 7    1  0.2973028E-011  0.5052890E+02  0.7816164E-02  0.1300439E+00
        -11   -1    0    0    0    0  0.00000000000E+00  0.00000000000E+00  0.45593999997E+02  0.45594000000E+02  0.51100000000E-03 0.  1.
         11   -1    0    0    0    0 -0.00000000000E+00 -0.00000000000E+00 -0.45593999997E+02  0.45594000000E+02  0.51100000000E-03 0. -1.
    9900012    2    1    2    0    0  0.39159655968E+02 -0.10170211145E+02  0.40312434047E+01  0.50528895562E+02  0.30000108551E+02 0.  0.
         12    1    1    2    0    0 -0.39159655968E+02  0.10170211145E+02 -0.40312434047E+01  0.40659104438E+02  0.00000000000E+00 0. -1.
         11    1    3    3    0    0  0.45650265926E+01  0.34648748571E+00 -0.95317723296E+01  0.10574223630E+02  0.51100000000E-03 0. -1.
        -11    1    3    3    0    0  0.18232647880E+01 -0.21559971377E+01  0.38350687091E+01  0.47623912491E+01  0.51100000000E-03 0.  1.
         12    1    3    3    0    0  0.32771364587E+02 -0.83607014933E+01  0.97279470252E+01  0.35192280684E+02  0.00000000000E+00 0. -1.
</event>
<event>
 7    1  0.2973028E-011  0.5052892E+02  0.7816164E-02  0.1300439E+00
        -11   -1    0    0    0    0  0.00000000000E+00  0.00000000000E+00  0.45593999997E+02  0.45594000000E+02  0.51100000000E-03 0.  1.
         11   -1    0    0    0    0 -0.00000000000E+00 -0.00000000000E+00 -0.45593999997E+02  0.45594000000E+02  0.51100000000E-03 0. -1.
    9900012    2    1    2    0    0 -0.15326120676E+01 -0.31272543530E+01  0.40509652781E+02  0.50528922440E+02  0.30000190249E+02 0.  0.
         12    1    1    2    0    0  0.15326120676E+01  0.31272543530E+01 -0.40509652781E+02  0.40659077560E+02  0.00000000000E+00 0. -1.
         11    1    3    3    0    0 -0.90041617533E+01 -0.96774253597E+01  0.22442253074E+02  0.26045771514E+02  0.51100000000E-03 0. -1.
        -11    1    3    3    0    0  0.65022734021E+01  0.40532763547E+01  0.19842110185E+02  0.21270118605E+02  0.51100000000E-03 0.  1.
         12    1    3    3    0    0  0.96927628360E+00  0.24968946520E+01 -0.17747104780E+01  0.32130323213E+01  0.00000000000E+00 0. -1.
</event>
<event>
 7    1  0.2973028E-011  0.5052886E+02  0.7816164E-02  0.1300439E+00
        -11   -1    0    0    0    0  0.00000000000E+00  0.00000000000E+00  0.45593999997E+02  0.45594000000E+02  0.51100000000E-03 0.  1.
         11   -1    0    0    0    0 -0.00000000000E+00 -0.00000000000E+00 -0.45593999997E+02  0.45594000000E+02  0.51100000000E-03 0. -1.
    9900012    2    1    2    0    0 -0.24508934500E+02  0.12670118169E+02  0.29865459387E+02  0.50528862907E+02  0.30000009293E+02 0.  0.
         12    1    1    2    0    0  0.24508934500E+02 -0.12670118169E+02 -0.29865459387E+02  0.40659137093E+02  0.00000000000E+00 0. -1.
         11    1    3    3    0    0 -0.10882282775E+02 -0.12026502406E+01 -0.15769816347E+01  0.11061524187E+02  0.51100000000E-03 0. -1.
        -11    1    3    3    0    0 -0.14414022748E+02  0.11179367567E+02  0.31777933928E+02  0.36641225361E+02  0.51100000000E-03 0.  1.
        -12    1    3    3    0    0  0.78737102348E+00  0.26934008430E+01 -0.33549290620E+00  0.28261133593E+01  0.00000000000E+00 0.  1.
</event>
<event>
 7    1  0.2973028E-011  0.5052887E+02  0.7816164E-02  0.1300439E+00
        -11   -1    0    0    0    0  0.00000000000E+00  0.00000000000E+00  0.45593999997E+02  0.45594000000E+02  0.51100000000E-03 0. -1.
         11   -1    0    0    0    0 -0.00000000000E+00 -0.00000000000E+00 -0.45593999997E+02  0.45594000000E+02  0.51100000000E-03 0.  1.
    9900012    2    1    2    0    0 -0.72240480923E+01 -0.39644825511E+02  0.54098078310E+01  0.50528867184E+02  0.30000022292E+02 0.  0.
         12    1    1    2    0    0  0.72240480923E+01  0.39644825511E+02 -0.54098078310E+01  0.40659132816E+02  0.00000000000E+00 0. -1.
         11    1    3    3    0    0 -0.59665873363E+00 -0.12106892717E+02 -0.99103512546E+01  0.15657200106E+02  0.51100000000E-03 0. -1.
        -11    1    3    3    0    0 -0.18028086349E+01 -0.84489312306E+01  0.12181270275E+02  0.14933783971E+02  0.51100000000E-03 0.  1.
         12    1    3    3    0    0 -0.48245807238E+01 -0.19089001563E+02  0.31388888107E+01  0.19937883108E+02  0.00000000000E+00 0. -1.
</event>
<event>
 7    1  0.2973028E-011  0.5052888E+02  0.7816164E-02  0.1300439E+00
        -11   -1    0    0    0    0  0.00000000000E+00  0.00000000000E+00  0.45593999997E+02  0.45594000000E+02  0.51100000000E-03 0.  1.
         11   -1    0    0    0    0 -0.00000000000E+00 -0.00000000000E+00 -0.45593999997E+02  0.45594000000E+02  0.51100000000E-03 0. -1.
    9900012    2    1    2    0    0 -0.16194847766E+02 -0.25280919489E+02  0.27418352131E+02  0.50528880261E+02  0.30000062042E+02 0.  0.
         12    1    1    2    0    0  0.16194847766E+02  0.25280919489E+02 -0.27418352131E+02  0.40659119739E+02  0.00000000000E+00 0. -1.
         11    1    3    3    0    0  0.34776039335E+01 -0.57510978760E+01  0.10774203299E+02  0.12698516169E+02  0.51100000000E-03 0. -1.
        -11    1    3    3    0    0 -0.22253522135E+02 -0.19911840438E+02  0.18023476197E+02  0.34879024234E+02  0.51100000000E-03 0.  1.
        -12    1    3    3    0    0  0.25810704353E+01  0.38201882479E+00 -0.13793273661E+01  0.29513398580E+01  0.00000000000E+00 0.  1.
</event>
<event>
 7    1  0.2973028E-011  0.5052888E+02  0.7816164E-02  0.1300439E+00
        -11   -1    0    0    0    0  0.00000000000E+00  0.00000000000E+00  0.45593999997E+02  0.45594000000E+02  0.51100000000E-03 0.  1.
         11   -1    0    0    0    0 -0.00000000000E+00 -0.00000000000E+00 -0.45593999997E+02  0.45594000000E+02  0.51100000000E-03 0. -1.
    9900012    2    1    2    0    0  0.22411834638E+02 -0.30786334471E+02  0.14250453512E+02  0.50528878670E+02  0.30000057207E+02 0.  0.
         12    1    1    2    0    0 -0.22411834638E+02  0.30786334471E+02 -0.14250453512E+02  0.40659121330E+02  0.00000000000E+00 0. -1.
         11    1    3    3    0    0  0.17775158769E+00  0.17765151346E+00  0.22327400027E+01  0.22468386386E+01  0.51100000000E-03 0. -1.
        -11    1    3    3    0    0  0.25371225032E+02 -0.13486604197E+02  0.99418550098E+01  0.30404408129E+02  0.51100000000E-03 0.  1.
        -12    1    3    3    0    0 -0.31371419811E+01 -0.17477381787E+02  0.20758584991E+01  0.17877631903E+02  0.00000000000E+00 0.  1.
</event>
<event>
 7    1  0.2973028E-011  0.5052886E+02  0.7816164E-02  0.1300439E+00
        -11   -1    0    0    0    0  0.00000000000E+00  0.00000000000E+00  0.45593999997E+02  0.45594000000E+02  0.51100000000E-03 0.  1.
         11   -1    0    0    0    0 -0.00000000000E+00 -0.00000000000E+00 -0.45593999997E+02  0.45594000000E+02  0.51100000000E-03 0. -1.
    9900012    2    1    2    0    0 -0.32478264674E+02  0.23730607274E+02  0.59318018006E+01  0.50528859940E+02  0.30000000273E+02 0.  0.
         12    1    1    2    0    0  0.32478264674E+02 -0.23730607274E+02 -0.59318018006E+01  0.40659140060E+02  0.00000000000E+00 0. -1.
         11    1    3    3    0    0 -0.22554421116E+02  0.21205102742E+02  0.10021676523E+01  0.30973579620E+02  0.51100000000E-03 0. -1.
        -11    1    3    3    0    0  0.79525228759E+00 -0.41349175818E+01  0.54949991999E+01  0.69227874499E+01  0.51100000000E-03 0.  1.
        -12    1    3    3    0    0 -0.10719095846E+02  0.66604221136E+01 -0.56536505154E+00  0.12632492870E+02  0.00000000000E+00 0.  1.
</event>
<event>
 7    1  0.2973028E-011  0.5052886E+02  0.7816164E-02  0.1300439E+00
        -11   -1    0    0    0    0  0.00000000000E+00  0.00000000000E+00  0.45593999997E+02  0.45594000000E+02  0.51100000000E-03 0.  1.
         11   -1    0    0    0    0 -0.00000000000E+00 -0.00000000000E+00 -0.45593999997E+02  0.45594000000E+02  0.51100000000E-03 0. -1.
    9900012    2    1    2    0    0 -0.10820452258E+02 -0.12673328068E+02  0.37087331404E+02  0.50528861027E+02  0.30000003577E+02 0.  0.
         12    1    1    2    0    0  0.10820452258E+02  0.12673328068E+02 -0.37087331404E+02  0.40659138973E+02  0.00000000000E+00 0. -1.
         11    1    3    3    0    0 -0.94325876465E+01  0.14631903268E+01  0.71499557525E+00  0.95721394983E+01  0.51100000000E-03 0. -1.
        -11    1    3    3    0    0 -0.42393535927E+01 -0.15112967462E+02  0.28667252607E+02  0.32683103841E+02  0.51100000000E-03 0.  1.
         12    1    3    3    0    0  0.28514889810E+01  0.97644906754E+00  0.77050832212E+01  0.82736176874E+01  0.00000000000E+00 0. -1.
</event>
<event>
 7    1  0.2973028E-011  0.5052886E+02  0.7816164E-02  0.1300439E+00
        -11   -1    0    0    0    0  0.00000000000E+00  0.00000000000E+00  0.45593999997E+02  0.45594000000E+02  0.51100000000E-03 0.  1.
         11   -1    0    0    0    0 -0.00000000000E+00 -0.00000000000E+00 -0.45593999997E+02  0.45594000000E+02  0.51100000000E-03 0. -1.
    9900012    2    1    2    0    0 -0.24562983390E+02  0.14560937205E+02  0.28944853865E+02  0.50528860676E+02  0.30000002511E+02 0.  0.
         12    1    1    2    0    0  0.24562983390E+02 -0.14560937205E+02 -0.28944853865E+02  0.40659139324E+02  0.00000000000E+00 0. -1.
         11    1    3    3    0    0 -0.19088045042E+02 -0.10980242096E+01  0.27878456642E+02  0.33804843820E+02  0.51100000000E-03 0.  1.
        -11    1    3    3    0    0 -0.42687945063E+01  0.10035167658E+02  0.19817613641E+00  0.10907175184E+02  0.51100000000E-03 0. -1.
        -12    1    3    3    0    0 -0.12061438414E+01  0.56237937561E+01  0.86822108663E+00  0.58168416716E+01  0.00000000000E+00 0.  1.
</event>
<event>
 7    1  0.2973028E-011  0.5052886E+02  0.7816164E-02  0.1300439E+00
        -11   -1    0    0    0    0  0.00000000000E+00  0.00000000000E+00  0.45593999997E+02  0.45594000000E+02  0.51100000000E-03 0. -1.
         11   -1    0    0    0    0 -0.00000000000E+00 -0.00000000000E+00 -0.45593999997E+02  0.45594000000E+02  0.51100000000E-03 0.  1.
    9900012    2    1    2    0    0 -0.11965195839E+02 -0.38723745639E+02 -0.32358874857E+01  0.50528863811E+02  0.30000012041E+02 0.  0.
         12    1    1    2    0    0  0.11965195839E+02  0.38723745639E+02  0.32358874857E+01  0.40659136189E+02  0.00000000000E+00 0. -1.
         11    1    3    3    0    0 -0.12331632695E+02 -0.80193159624E+01 -0.22811998565E+01  0.14885646324E+02  0.51100000000E-03 0. -1.
        -11    1    3    3    0    0  0.29092929287E+01 -0.25085508540E+02  0.63928718282E+01  0.26050250182E+02  0.51100000000E-03 0.  1.
        -12    1    3    3    0    0 -0.25428560730E+01 -0.56189211366E+01 -0.73475594573E+01  0.95929673056E+01  0.00000000000E+00 0.  1.
</event>
<event>
 7    1  0.2973028E-011  0.5052886E+02  0.7816164E-02  0.1300439E+00
        -11   -1    0    0    0    0  0.00000000000E+00  0.00000000000E+00  0.45593999997E+02  0.45594000000E+02  0.51100000000E-03 0. -1.
         11   -1    0    0    0    0 -0.00000000000E+00 -0.00000000000E+00 -0.45593999997E+02  0.45594000000E+02  0.51100000000E-03 0.  1.
    9900012    2    1    2    0    0  0.30698508346E+02 -0.16504489919E+02 -0.20937255571E+02  0.50528864827E+02  0.30000015130E+02 0.  0.
         12    1    1    2    0    0 -0.30698508346E+02  0.16504489919E+02  0.20937255571E+02  0.40659135173E+02  0.00000000000E+00 0. -1.
         11    1    3    3    0    0  0.26759318034E+01 -0.83813815426E+01  0.10576014384E+00  0.87988267995E+01  0.51100000000E-03 0. -1.
        -11    1    3    3    0    0  0.23893572489E+02  0.22839262860E+01 -0.99941189143E+01  0.26000029590E+02  0.51100000000E-03 0.  1.
        -12    1    3    3    0    0  0.41290040532E+01 -0.10407034662E+02 -0.11048896801E+02  0.15730008438E+02  0.00000000000E+00 0.  1.
</event>
<event>
 7    1  0.2973028E-011  0.5052886E+02  0.7816164E-02  0.1300439E+00
        -11   -1    0    0    0    0  0.00000000000E+00  0.00000000000E+00  0.45593999997E+02  0.45594000000E+02  0.51100000000E-03 0.  1.
         11   -1    0    0    0    0 -0.00000000000E+00 -0.00000000000E+00 -0.45593999997E+02  0.45594000000E+02  0.51100000000E-03 0. -1.
    9900012    2    1    2    0    0  0.14831241740E+02 -0.34174024751E+02  0.16289138756E+02  0.50528859076E+02  0.29999997649E+02 0.  0.
         12    1    1    2    0    0 -0.14831241740E+02  0.34174024751E+02 -0.16289138756E+02  0.40659140924E+02  0.00000000000E+00 0. -1.
         11    1    3    3    0    0 -0.56240956962E+01  0.43571677071E+00 -0.15069878935E+01  0.58387767791E+01  0.51100000000E-03 0. -1.
        -11    1    3    3    0    0  0.17476145258E+02 -0.24227114692E+02  0.15471048010E+02  0.33641077066E+02  0.51100000000E-03 0.  1.
        -12    1    3    3    0    0  0.29791921778E+01 -0.10382626830E+02  0.23250786396E+01  0.11049005231E+02  0.00000000000E+00 0.  1.
</event>
<event>
 7    1  0.2973028E-011  0.5052886E+02  0.7816164E-02  0.1300439E+00
        -11   -1    0    0    0    0  0.00000000000E+00  0.00000000000E+00  0.45593999997E+02  0.45594000000E+02  0.51100000000E-03 0.  1.
         11   -1    0    0    0    0 -0.00000000000E+00 -0.00000000000E+00 -0.45593999997E+02  0.45594000000E+02  0.51100000000E-03 0. -1.
    9900012    2    1    2    0    0 -0.18024498498E+02 -0.22965624606E+02  0.28299531818E+02  0.50528856369E+02  0.29999989420E+02 0.  0.
         12    1    1    2    0    0  0.18024498498E+02  0.22965624606E+02 -0.28299531818E+02  0.40659143631E+02  0.00000000000E+00 0. -1.
         11    1    3    3    0    0 -0.56747767858E+00 -0.92905599668E+01 -0.12474287712E+01  0.93910922800E+01  0.51100000000E-03 0. -1.
        -11    1    3    3    0    0 -0.12371116527E+02 -0.15999685881E+02  0.29219645145E+02  0.35536208789E+02  0.51100000000E-03 0.  1.
        -12    1    3    3    0    0 -0.50859042924E+01  0.23246212412E+01  0.32731544443E+00  0.56015553007E+01  0.00000000000E+00 0.  1.
</event>
<event>
 7    1  0.2973028E-011  0.5052886E+02  0.7816164E-02  0.1300439E+00
        -11   -1    0    0    0    0  0.00000000000E+00  0.00000000000E+00  0.45593999997E+02  0.45594000000E+02  0.51100000000E-03 0. -1.
         11   -1    0    0    0    0 -0.00000000000E+00 -0.00000000000E+00 -0.45593999997E+02  0.45594000000E+02  0.51100000000E-03 0.  1.
    9900012    2    1    2    0    0  0.23037882960E+02 -0.21074528391E+02 -0.26043923333E+02  0.50528859075E+02  0.29999997645E+02 0.  0.
         12    1    1    2    0    0 -0.23037882960E+02  0.21074528391E+02  0.26043923333E+02  0.40659140925E+02  0.00000000000E+00 0. -1.
         11    1    3    3    0    0  0.11583117285E+01  0.25254380899E+01  0.15900537678E+00  0.27829492588E+01  0.51100000000E-03 0. -1.
        -11    1    3    3    0    0  0.14393743296E+02 -0.26051460772E+02 -0.26517348794E+02  0.39862617096E+02  0.51100000000E-03 0.  1.
        -12    1    3    3    0    0  0.74858279352E+01  0.24514942907E+01  0.31442008388E+00  0.78832927208E+01  0.00000000000E+00 0.  1.
</event>
<event>
 7    1  0.2973028E-011  0.5052886E+02  0.7816164E-02  0.1300439E+00
        -11   -1    0    0    0    0  0.00000000000E+00  0.00000000000E+00  0.45593999997E+02  0.45594000000E+02  0.51100000000E-03 0.  1.
         11   -1    0    0    0    0 -0.00000000000E+00 -0.00000000000E+00 -0.45593999997E+02  0.45594000000E+02  0.51100000000E-03 0. -1.
    9900012    2    1    2    0    0 -0.30272851817E+02  0.77364599754E+01  0.26016679318E+02  0.50528856221E+02  0.29999988969E+02 0.  0.
         12    1    1    2    0    0  0.30272851817E+02 -0.77364599754E+01 -0.26016679318E+02  0.40659143779E+02  0.00000000000E+00 0. -1.
         11    1    3    3    0    0  0.21017649151E+00  0.39365296320E+01  0.15527708646E+02  0.16020305108E+02  0.51100000000E-03 0. -1.
        -11    1    3    3    0    0 -0.22824730189E+02  0.38506891676E+01  0.22444860207E+01  0.23255834387E+02  0.51100000000E-03 0.  1.
        -12    1    3    3    0    0 -0.76582981196E+01 -0.50758824138E-01  0.82444846512E+01  0.11252716726E+02  0.00000000000E+00 0.  1.
</event>
<event>
 7    1  0.2973028E-011  0.5052885E+02  0.7816164E-02  0.1300439E+00
        -11   -1    0    0    0    0  0.00000000000E+00  0.00000000000E+00  0.45593999997E+02  0.45594000000E+02  0.51100000000E-03 0.  1.
         11   -1    0    0    0    0 -0.00000000000E+00 -0.00000000000E+00 -0.45593999997E+02  0.45594000000E+02  0.51100000000E-03 0. -1.
    9900012    2    1    2    0    0 -0.33604753310E+01  0.30793774730E+01  0.40402863845E+02  0.50528846455E+02  0.29999959285E+02 0.  0.
         12    1    1    2    0    0  0.33604753310E+01 -0.30793774730E+01 -0.40402863845E+02  0.40659153545E+02  0.00000000000E+00 0. -1.
         11    1    3    3    0    0 -0.17252633901E+01 -0.94939060432E+01  0.73224280440E+01  0.12113163849E+02  0.51100000000E-03 0. -1.
        -11    1    3    3    0    0  0.30957711683E+01  0.39817019298E+01  0.25569224899E+02  0.26061907290E+02  0.51100000000E-03 0.  1.
         12    1    3    3    0    0 -0.47309831092E+01  0.85915815863E+01  0.75112109024E+01  0.12353775316E+02  0.00000000000E+00 0. -1.
</event>
<event>
 7    1  0.2973028E-011  0.5052886E+02  0.7816164E-02  0.1300439E+00
        -11   -1    0    0    0    0  0.00000000000E+00  0.00000000000E+00  0.45593999997E+02  0.45594000000E+02  0.51100000000E-03 0.  1.
         11   -1    0    0    0    0 -0.00000000000E+00 -0.00000000000E+00 -0.45593999997E+02  0.45594000000E+02  0.51100000000E-03 0. -1.
    9900012    2    1    2    0    0  0.90441676727E+01  0.28821897944E+02  0.27215200186E+02  0.50528857226E+02  0.29999992023E+02 0.  0.
         12    1    1    2    0    0 -0.90441676727E+01 -0.28821897944E+02 -0.27215200186E+02  0.40659142774E+02  0.00000000000E+00 0. -1.
         11    1    3    3    0    0 -0.35328210650E+01  0.74775761207E+01 -0.11363532915E+01  0.83478301601E+01  0.51100000000E-03 0. -1.
        -11    1    3    3    0    0  0.12962365199E+02  0.51095608988E+01  0.18596254760E+02  0.23236850378E+02  0.51100000000E-03 0.  1.
        -12    1    3    3    0    0 -0.38537646169E+00  0.16234760924E+02  0.97552987183E+01  0.18944176687E+02  0.00000000000E+00 0.  1.
</event>
<event>
 7    1  0.2973028E-011  0.5052887E+02  0.7816164E-02  0.1300439E+00
        -11   -1    0    0    0    0  0.00000000000E+00  0.00000000000E+00  0.45593999997E+02  0.45594000000E+02  0.51100000000E-03 0. -1.
         11   -1    0    0    0    0 -0.00000000000E+00 -0.00000000000E+00 -0.45593999997E+02  0.45594000000E+02  0.51100000000E-03 0.  1.
    9900012    2    1    2    0    0 -0.27512693545E+02 -0.63128541960E+00 -0.29930225726E+02  0.50528865240E+02  0.30000016384E+02 0.  0.
         12    1    1    2    0    0  0.27512693545E+02  0.63128541960E+00  0.29930225726E+02  0.40659134760E+02  0.00000000000E+00 0. -1.
         11    1    3    3    0    0 -0.79286729178E+01 -0.90076437525E+01 -0.26276196843E+00  0.12002938987E+02  0.51100000000E-03 0. -1.
        -11    1    3    3    0    0 -0.19640589143E+02  0.63944905752E+01 -0.20335869389E+02  0.28986028284E+02  0.51100000000E-03 0.  1.
         12    1    3    3    0    0  0.56568515961E-01  0.19818677577E+01 -0.93315943683E+01  0.95398979690E+01  0.00000000000E+00 0. -1.
</event>
<event>
 7    1  0.2973028E-011  0.5052888E+02  0.7816164E-02  0.1300439E+00
        -11   -1    0    0    0    0  0.00000000000E+00  0.00000000000E+00  0.45593999997E+02  0.45594000000E+02  0.51100000000E-03 0.  1.
         11   -1    0    0    0    0 -0.00000000000E+00 -0.00000000000E+00 -0.45593999997E+02  0.45594000000E+02  0.51100000000E-03 0. -1.
    9900012    2    1    2    0    0 -0.36602373163E+02 -0.30266614693E+00 -0.17701387065E+02  0.50528875169E+02  0.30000046565E+02 0.  0.
         12    1    1    2    0    0  0.36602373163E+02  0.30266614693E+00  0.17701387065E+02  0.40659124831E+02  0.00000000000E+00 0. -1.
         11    1    3    3    0    0 -0.17599650103E+02  0.89061332866E+01 -0.15886051926E+02  0.25326538254E+02  0.51100000000E-03 0. -1.
        -11    1    3    3    0    0 -0.32365333056E+01 -0.86818245887E+01 -0.17383978415E+01  0.94271551034E+01  0.51100000000E-03 0.  1.
         12    1    3    3    0    0 -0.15766189754E+02 -0.52697484477E+00 -0.76937297374E-01  0.15775181812E+02  0.00000000000E+00 0. -1.
</event>
<event>
 7    1  0.2973028E-011  0.5052887E+02  0.7816164E-02  0.1300439E+00
        -11   -1    0    0    0    0  0.00000000000E+00  0.00000000000E+00  0.45593999997E+02  0.45594000000E+02  0.51100000000E-03 0.  1.
         11   -1    0    0    0    0 -0.00000000000E+00 -0.00000000000E+00 -0.45593999997E+02  0.45594000000E+02  0.51100000000E-03 0. -1.
    9900012    2    1    2    0    0 -0.46253424307E+01 -0.26675119915E+02  0.30334953495E+02  0.50528865496E+02  0.30000017162E+02 0.  0.
         12    1    1    2    0    0  0.46253424307E+01  0.26675119915E+02 -0.30334953495E+02  0.40659134504E+02  0.00000000000E+00 0. -1.
         11    1    3    3    0    0 -0.46423811723E+01 -0.65657114761E+01  0.19583583711E+01  0.82761970679E+01  0.51100000000E-03 0. -1.
        -11    1    3    3    0    0  0.43081250415E+01 -0.10061818542E+02  0.29310321357E+02  0.31287298893E+02  0.51100000000E-03 0.  1.
        -12    1    3    3    0    0 -0.42910862999E+01 -0.10047589896E+02 -0.93372623294E+00  0.10965369535E+02  0.00000000000E+00 0.  1.
</event>
<event>
 7    1  0.2973028E-011  0.5052885E+02  0.7816164E-02  0.1300439E+00
        -11   -1    0    0    0    0  0.00000000000E+00  0.00000000000E+00  0.45593999997E+02  0.45594000000E+02  0.51100000000E-03 0.  1.
         11   -1    0    0    0    0 -0.00000000000E+00 -0.00000000000E+00 -0.45593999997E+02  0.45594000000E+02  0.51100000000E-03 0. -1.
    9900012    2    1    2    0    0  0.15250404443E+02 -0.34611025095E+02  0.14922092094E+02  0.50528846956E+02  0.29999960807E+02 0.  0.
         12    1    1    2    0    0 -0.15250404443E+02  0.34611025095E+02 -0.14922092094E+02  0.40659153044E+02  0.00000000000E+00 0. -1.
         11    1    3    3    0    0  0.13920818250E+01  0.27078458106E+00  0.33740641557E+01  0.36599897930E+01  0.51100000000E-03 0. -1.
        -11    1    3    3    0    0  0.31835316622E+01 -0.34597379004E+02  0.90100561982E+01  0.35892821298E+02  0.51100000000E-03 0.  1.
        -12    1    3    3    0    0  0.10674790956E+02 -0.28443067216E+00  0.25379717404E+01  0.10976035865E+02  0.00000000000E+00 0.  1.
</event>
<event>
 7    1  0.2973028E-011  0.5052885E+02  0.7816164E-02  0.1300439E+00
        -11   -1    0    0    0    0  0.00000000000E+00  0.00000000000E+00  0.45593999997E+02  0.45594000000E+02  0.51100000000E-03 0. -1.
         11   -1    0    0    0    0 -0.00000000000E+00 -0.00000000000E+00 -0.45593999997E+02  0.45594000000E+02  0.51100000000E-03 0.  1.
    9900012    2    1    2    0    0  0.30110515225E+02  0.27312205140E+02  0.75286757747E+00  0.50528849906E+02  0.29999969776E+02 0.  0.
         12    1    1    2    0    0 -0.30110515225E+02 -0.27312205140E+02 -0.75286757747E+00  0.40659150094E+02  0.00000000000E+00 0. -1.
         11    1    3    3    0    0  0.80521866124E+00  0.11350845274E+02 -0.24953524264E+01  0.11649757487E+02  0.51100000000E-03 0. -1.
        -11    1    3    3    0    0  0.31911762081E+02  0.16678841783E+02  0.26142286849E+01  0.36102333916E+02  0.51100000000E-03 0.  1.
        -12    1    3    3    0    0 -0.26064655169E+01 -0.71748191654E+00  0.63399131894E+00  0.27767585030E+01  0.00000000000E+00 0.  1.
</event>
<event>
 7    1  0.2973028E-011  0.5052882E+02  0.7816164E-02  0.1300439E+00
        -11   -1    0    0    0    0  0.00000000000E+00  0.00000000000E+00  0.45593999997E+02  0.45594000000E+02  0.51100000000E-03 0.  1.
         11   -1    0    0    0    0 -0.00000000000E+00 -0.00000000000E+00 -0.45593999997E+02  0.45594000000E+02  0.51100000000E-03 0. -1.
    9900012    2    1    2    0    0 -0.20669570999E+02  0.24197566576E+02  0.25306436108E+02  0.50528817741E+02  0.29999872005E+02 0.  0.
         12    1    1    2    0    0  0.20669570999E+02 -0.24197566576E+02 -0.25306436108E+02  0.40659182259E+02  0.00000000000E+00 0. -1.
         11    1    3    3    0    0  0.49964926110E+01  0.93410882564E+01  0.93119509016E+01  0.14104371595E+02  0.51100000000E-03 0. -1.
        -11    1    3    3    0    0 -0.18429951926E+02  0.12152802919E+02  0.44282331887E+01  0.22515838785E+02  0.51100000000E-03 0.  1.
        -12    1    3    3    0    0 -0.72361116838E+01  0.27036754011E+01  0.11566252018E+02  0.13908607361E+02  0.00000000000E+00 0.  1.
</event>
<event>
 7    1  0.2973028E-011  0.5052886E+02  0.7816164E-02  0.1300439E+00
        -11   -1    0    0    0    0  0.00000000000E+00  0.00000000000E+00  0.45593999997E+02  0.45594000000E+02  0.51100000000E-03 0. -1.
         11   -1    0    0    0    0 -0.00000000000E+00 -0.00000000000E+00 -0.45593999997E+02  0.45594000000E+02  0.51100000000E-03 0.  1.
    9900012    2    1    2    0    0 -0.31598504607E+02  0.25129158784E+02  0.48192986028E+01  0.50528858917E+02  0.29999997164E+02 0.  0.
         12    1    1    2    0    0  0.31598504607E+02 -0.25129158784E+02 -0.48192986028E+01  0.40659141083E+02  0.00000000000E+00 0. -1.
         11    1    3    3    0    0 -0.87732782329E+01  0.22547782925E+02  0.50281545017E+01  0.24711439937E+02  0.51100000000E-03 0. -1.
        -11    1    3    3    0    0 -0.11604436130E+02 -0.68070078019E+00 -0.56530667393E+01  0.12926076561E+02  0.51100000000E-03 0.  1.
        -12    1    3    3    0    0 -0.11220790244E+02  0.32620766392E+01  0.54442108404E+01  0.12891342419E+02  0.00000000000E+00 0.  1.
</event>
<event>
 7    1  0.2973028E-011  0.5052886E+02  0.7816164E-02  0.1300439E+00
        -11   -1    0    0    0    0  0.00000000000E+00  0.00000000000E+00  0.45593999997E+02  0.45594000000E+02  0.51100000000E-03 0.  1.
         11   -1    0    0    0    0 -0.00000000000E+00 -0.00000000000E+00 -0.45593999997E+02  0.45594000000E+02  0.51100000000E-03 0. -1.
    9900012    2    1    2    0    0 -0.81017157879E+01 -0.10354294886E+02  0.38474875872E+02  0.50528864561E+02  0.30000014319E+02 0.  0.
         12    1    1    2    0    0  0.81017157879E+01  0.10354294886E+02 -0.38474875872E+02  0.40659135439E+02  0.00000000000E+00 0. -1.
         11    1    3    3    0    0  0.28576250722E+01  0.65575585540E+01  0.47712800755E+01  0.85984131712E+01  0.51100000000E-03 0. -1.
        -11    1    3    3    0    0 -0.11017482696E+02 -0.16186542295E+02  0.19248747806E+02  0.27457300828E+02  0.51100000000E-03 0.  1.
        -12    1    3    3    0    0  0.58141835574E-01 -0.72531114466E+00  0.14454847991E+02  0.14473150561E+02  0.00000000000E+00 0.  1.
</event>
<event>
 7    1  0.2973028E-011  0.5052885E+02  0.7816164E-02  0.1300439E+00
        -11   -1    0    0    0    0  0.00000000000E+00  0.00000000000E+00  0.45593999997E+02  0.45594000000E+02  0.51100000000E-03 0.  1.
         11   -1    0    0    0    0 -0.00000000000E+00 -0.00000000000E+00 -0.45593999997E+02  0.45594000000E+02  0.51100000000E-03 0. -1.
    9900012    2    1    2    0    0 -0.19949816451E+02 -0.15845099436E+02  0.31687600039E+02  0.50528851598E+02  0.29999974917E+02 0.  0.
         12    1    1    2    0    0  0.19949816451E+02  0.15845099436E+02 -0.31687600039E+02  0.40659148402E+02  0.00000000000E+00 0. -1.
         11    1    3    3    0    0 -0.34067413393E+01  0.77218510916E+01  0.82886736587E+01  0.11829411740E+02  0.51100000000E-03 0. -1.
        -11    1    3    3    0    0 -0.16144724554E+02 -0.19598691437E+02  0.15231063304E+02  0.29609899131E+02  0.51100000000E-03 0.  1.
        -12    1    3    3    0    0 -0.39835055784E+00 -0.39682590908E+01  0.81678630765E+01  0.90895407263E+01  0.00000000000E+00 0.  1.
</event>
<event>
 7    1  0.2973028E-011  0.5052886E+02  0.7816164E-02  0.1300439E+00
        -11   -1    0    0    0    0  0.00000000000E+00  0.00000000000E+00  0.45593999997E+02  0.45594000000E+02  0.51100000000E-03 0.  1.
         11   -1    0    0    0    0 -0.00000000000E+00 -0.00000000000E+00 -0.45593999997E+02  0.45594000000E+02  0.51100000000E-03 0. -1.
    9900012    2    1    2    0    0  0.87003553907E+01  0.17854832058E+02  0.35477799649E+02  0.50528862285E+02  0.30000007402E+02 0.  0.
         12    1    1    2    0    0 -0.87003553907E+01 -0.17854832058E+02 -0.35477799649E+02  0.40659137715E+02  0.00000000000E+00 0. -1.
         11    1    3    3    0    0 -0.20484674649E+01  0.64121726169E+01  0.83380929247E+01  0.10716154651E+02  0.51100000000E-03 0. -1.
        -11    1    3    3    0    0  0.15397042607E+02  0.62552729106E+00  0.22247721471E+02  0.27063283547E+02  0.51100000000E-03 0.  1.
        -12    1    3    3    0    0 -0.46482197517E+01  0.10817132150E+02  0.48919852533E+01  0.12749424087E+02  0.00000000000E+00 0.  1.
</event>
<event>
 7    1  0.2973028E-011  0.5052886E+02  0.7816164E-02  0.1300439E+00
        -11   -1    0    0    0    0  0.00000000000E+00  0.00000000000E+00  0.45593999997E+02  0.45594000000E+02  0.51100000000E-03 0.  1.
         11   -1    0    0    0    0 -0.00000000000E+00 -0.00000000000E+00 -0.45593999997E+02  0.45594000000E+02  0.51100000000E-03 0. -1.
    9900012    2    1    2    0    0 -0.14130579259E+02 -0.35183900571E+02  0.14682830695E+02  0.50528860230E+02  0.30000001156E+02 0.  0.
         12    1    1    2    0    0  0.14130579259E+02  0.35183900571E+02 -0.14682830695E+02  0.40659139770E+02  0.00000000000E+00 0. -1.
         11    1    3    3    0    0  0.39782677189E+01  0.85662634382E+00  0.14077014453E+01  0.43060476491E+01  0.51100000000E-03 0. -1.
        -11    1    3    3    0    0 -0.20124082621E+02 -0.20977131394E+02  0.82819657297E+01  0.30225977229E+02  0.51100000000E-03 0.  1.
        -12    1    3    3    0    0  0.20152356433E+01 -0.15063395522E+02  0.49931635200E+01  0.15996835352E+02  0.00000000000E+00 0.  1.
</event>
<event>
 7    1  0.2973028E-011  0.5052885E+02  0.7816164E-02  0.1300439E+00
        -11   -1    0    0    0    0  0.00000000000E+00  0.00000000000E+00  0.45593999997E+02  0.45594000000E+02  0.51100000000E-03 0.  1.
         11   -1    0    0    0    0 -0.00000000000E+00 -0.00000000000E+00 -0.45593999997E+02  0.45594000000E+02  0.51100000000E-03 0. -1.
    9900012    2    1    2    0    0 -0.38089488413E+02  0.13877044758E+02  0.31280651815E+01  0.50528852313E+02  0.29999977092E+02 0.  0.
         12    1    1    2    0    0  0.38089488413E+02 -0.13877044758E+02 -0.31280651815E+01  0.40659147687E+02  0.00000000000E+00 0. -1.
         11    1    3    3    0    0 -0.25912787607E+02  0.17018502385E+01 -0.71501796640E+01  0.26934994436E+02  0.51100000000E-03 0.  1.
        -11    1    3    3    0    0 -0.13178864256E+01  0.10012137128E+02  0.58379045099E+01  0.11664512156E+02  0.51100000000E-03 0. -1.
        -12    1    3    3    0    0 -0.10858814381E+02  0.21630573915E+01  0.44403403356E+01  0.11929345721E+02  0.00000000000E+00 0.  1.
</event>
<event>
 7    1  0.2973028E-011  0.5052885E+02  0.7816164E-02  0.1300439E+00
        -11   -1    0    0    0    0  0.00000000000E+00  0.00000000000E+00  0.45593999997E+02  0.45594000000E+02  0.51100000000E-03 0.  1.
         11   -1    0    0    0    0 -0.00000000000E+00 -0.00000000000E+00 -0.45593999997E+02  0.45594000000E+02  0.51100000000E-03 0. -1.
    9900012    2    1    2    0    0 -0.11091795948E+02 -0.28447179946E+02  0.26849509896E+02  0.50528853847E+02  0.29999981752E+02 0.  0.
         12    1    1    2    0    0  0.11091795948E+02  0.28447179946E+02 -0.26849509896E+02  0.40659146153E+02  0.00000000000E+00 0. -1.
         11    1    3    3    0    0 -0.56184253530E+01  0.29002524347E-01 -0.42708990011E+01  0.70574870268E+01  0.51100000000E-03 0. -1.
        -11    1    3    3    0    0 -0.37804389473E+01 -0.28226405447E+02  0.28148427037E+02  0.40041923381E+02  0.51100000000E-03 0.  1.
         12    1    3    3    0    0 -0.16929316478E+01 -0.24977702393E+00  0.29719818600E+01  0.34294434391E+01  0.00000000000E+00 0. -1.
</event>
<event>
 7    1  0.2973028E-011  0.5052886E+02  0.7816164E-02  0.1300439E+00
        -11   -1    0    0    0    0  0.00000000000E+00  0.00000000000E+00  0.45593999997E+02  0.45594000000E+02  0.51100000000E-03 0.  1.
         11   -1    0    0    0    0 -0.00000000000E+00 -0.00000000000E+00 -0.45593999997E+02  0.45594000000E+02  0.51100000000E-03 0. -1.
    9900012    2    1    2    0    0 -0.10099908425E+02  0.33800313803E+02  0.20216245013E+02  0.50528856800E+02  0.29999990729E+02 0.  0.
         12    1    1    2    0    0  0.10099908425E+02 -0.33800313803E+02 -0.20216245013E+02  0.40659143200E+02  0.00000000000E+00 0. -1.
         11    1    3    3    0    0 -0.74899133841E+01  0.40289710459E+01  0.13360472990E+01  0.86090901283E+01  0.51100000000E-03 0. -1.
        -11    1    3    3    0    0  0.75281126989E+01  0.21293634977E+02  0.57834892808E+01  0.23313946896E+02  0.51100000000E-03 0.  1.
        -12    1    3    3    0    0 -0.10138107739E+02  0.84777077791E+01  0.13096708433E+02  0.18605819775E+02  0.00000000000E+00 0.  1.
</event>
<event>
 7    1  0.2973028E-011  0.5052885E+02  0.7816164E-02  0.1300439E+00
        -11   -1    0    0    0    0  0.00000000000E+00  0.00000000000E+00  0.45593999997E+02  0.45594000000E+02  0.51100000000E-03 0.  1.
         11   -1    0    0    0    0 -0.00000000000E+00 -0.00000000000E+00 -0.45593999997E+02  0.45594000000E+02  0.51100000000E-03 0. -1.
    9900012    2    1    2    0    0 -0.31769407364E+02 -0.20101221698E+02  0.15485864564E+02  0.50528851468E+02  0.29999974522E+02 0.  0.
         12    1    1    2    0    0  0.31769407364E+02  0.20101221698E+02 -0.15485864564E+02  0.40659148532E+02  0.00000000000E+00 0. -1.
         11    1    3    3    0    0 -0.28135804416E+02 -0.12800356502E+02 -0.33040505302E+00  0.30912485899E+02  0.51100000000E-03 0. -1.
        -11    1    3    3    0    0 -0.35903937663E+01 -0.74334938252E+01  0.70697171225E+01  0.10868700856E+02  0.51100000000E-03 0.  1.
         12    1    3    3    0    0 -0.43209182533E-01  0.13262862910E+00  0.87465524947E+01  0.87476647129E+01  0.00000000000E+00 0. -1.
</event>
<event>
 7    1  0.2973028E-011  0.5052884E+02  0.7816164E-02  0.1300439E+00
        -11   -1    0    0    0    0  0.00000000000E+00  0.00000000000E+00  0.45593999997E+02  0.45594000000E+02  0.51100000000E-03 0.  1.
         11   -1    0    0    0    0 -0.00000000000E+00 -0.00000000000E+00 -0.45593999997E+02  0.45594000000E+02  0.51100000000E-03 0. -1.
    9900012    2    1    2    0    0 -0.23769831329E+02  0.32847364423E+02  0.30353692859E+01  0.50528835010E+02  0.29999924496E+02 0.  0.
         12    1    1    2    0    0  0.23769831329E+02 -0.32847364423E+02 -0.30353692859E+01  0.40659164990E+02  0.00000000000E+00 0. -1.
         11    1    3    3    0    0 -0.99545485295E+01  0.13941669692E+02 -0.72211457744E+01  0.18590538905E+02  0.51100000000E-03 0. -1.
        -11    1    3    3    0    0 -0.75775657191E+01  0.68343988698E+01  0.14475486965E+02  0.17710681333E+02  0.51100000000E-03 0.  1.
        -12    1    3    3    0    0 -0.62377170806E+01  0.12071295861E+02 -0.42189719048E+01  0.14227614771E+02  0.00000000000E+00 0.  1.
</event>
<event>
 7    1  0.2973028E-011  0.5052885E+02  0.7816164E-02  0.1300439E+00
        -11   -1    0    0    0    0  0.00000000000E+00  0.00000000000E+00  0.45593999997E+02  0.45594000000E+02  0.51100000000E-03 0. -1.
         11   -1    0    0    0    0 -0.00000000000E+00 -0.00000000000E+00 -0.45593999997E+02  0.45594000000E+02  0.51100000000E-03 0.  1.
    9900012    2    1    2    0    0 -0.22623245207E+02  0.31616235515E+02 -0.11906672247E+02  0.50528850774E+02  0.29999972412E+02 0.  0.
         12    1    1    2    0    0  0.22623245207E+02 -0.31616235515E+02  0.11906672247E+02  0.40659149226E+02  0.00000000000E+00 0. -1.
         11    1    3    3    0    0 -0.10451051545E+01  0.19071091383E+02 -0.10158327854E+02  0.21633085687E+02  0.51100000000E-03 0.  1.
        -11    1    3    3    0    0 -0.23349697097E+02  0.11288239419E+02 -0.34134543445E+01  0.26158829762E+02  0.51100000000E-03 0. -1.
        -12    1    3    3    0    0  0.17715570446E+01  0.12569047129E+01  0.16651099510E+01  0.27369353241E+01  0.00000000000E+00 0.  1.
</event>
<event>
 7    1  0.2973028E-011  0.5052886E+02  0.7816164E-02  0.1300439E+00
        -11   -1    0    0    0    0  0.00000000000E+00  0.00000000000E+00  0.45593999997E+02  0.45594000000E+02  0.51100000000E-03 0.  1.
         11   -1    0    0    0    0 -0.00000000000E+00 -0.00000000000E+00 -0.45593999997E+02  0.45594000000E+02  0.51100000000E-03 0. -1.
    9900012    2    1    2    0    0  0.76329879982E+01 -0.37921772019E+02  0.12523667250E+02  0.50528861541E+02  0.30000005139E+02 0.  0.
         12    1    1    2    0    0 -0.76329879982E+01  0.37921772019E+02 -0.12523667250E+02  0.40659138459E+02  0.00000000000E+00 0. -1.
         11    1    3    3    0    0  0.15614675799E+02 -0.33917387023E+02  0.94850694740E+01  0.38524976132E+02  0.51100000000E-03 0. -1.
        -11    1    3    3    0    0 -0.22390337032E+01 -0.40771370589E+01  0.40558147712E+01  0.61713817125E+01  0.51100000000E-03 0.  1.
         12    1    3    3    0    0 -0.57426540979E+01  0.72752062227E-01 -0.10172169955E+01  0.58325036963E+01  0.00000000000E+00 0. -1.
</event>
<event>
 7    1  0.2973028E-011  0.5052885E+02  0.7816164E-02  0.1300439E+00
        -11   -1    0    0    0    0  0.00000000000E+00  0.00000000000E+00  0.45593999997E+02  0.45594000000E+02  0.51100000000E-03 0. -1.
         11   -1    0    0    0    0 -0.00000000000E+00 -0.00000000000E+00 -0.45593999997E+02  0.45594000000E+02  0.51100000000E-03 0.  1.
    9900012    2    1    2    0    0  0.75430723312E+01 -0.25990827267E+02 -0.30343788174E+02  0.50528849456E+02  0.29999968407E+02 0.  0.
         12    1    1    2    0    0 -0.75430723312E+01  0.25990827267E+02  0.30343788174E+02  0.40659150544E+02  0.00000000000E+00 0. -1.
         11    1    3    3    0    0 -0.12884577270E+01  0.15215199227E+01 -0.51149858675E+00  0.20583433277E+01  0.51100000000E-03 0. -1.
        -11    1    3    3    0    0  0.11541793777E+02 -0.29274967719E+02 -0.18102675242E+02  0.36303492803E+02  0.51100000000E-03 0.  1.
        -12    1    3    3    0    0 -0.27102637186E+01  0.17626205300E+01 -0.11729614345E+02  0.12167013325E+02  0.00000000000E+00 0.  1.
</event>
<event>
 7    1  0.2973028E-011  0.5052879E+02  0.7816164E-02  0.1300439E+00
        -11   -1    0    0    0    0  0.00000000000E+00  0.00000000000E+00  0.45593999997E+02  0.45594000000E+02  0.51100000000E-03 0.  1.
         11   -1    0    0    0    0 -0.00000000000E+00 -0.00000000000E+00 -0.45593999997E+02  0.45594000000E+02  0.51100000000E-03 0. -1.
    9900012    2    1    2    0    0 -0.14659275370E+02  0.61413997024E+01  0.37424055563E+02  0.50528793423E+02  0.29999798089E+02 0.  0.
         12    1    1    2    0    0  0.14659275370E+02 -0.61413997024E+01 -0.37424055563E+02  0.40659206577E+02  0.00000000000E+00 0. -1.
         11    1    3    3    0    0 -0.69684004428E+01  0.14323262498E+02  0.32985553413E+02  0.36630058525E+02  0.51100000000E-03 0. -1.
        -11    1    3    3    0    0  0.67910792920E+00 -0.31675512482E+01  0.15615504922E+00  0.32432935652E+01  0.51100000000E-03 0.  1.
         12    1    3    3    0    0 -0.83699828564E+01 -0.50143115475E+01  0.42823471008E+01  0.10655441333E+02  0.00000000000E+00 0. -1.
</event>
<event>
 7    1  0.2973028E-011  0.5052886E+02  0.7816164E-02  0.1300439E+00
        -11   -1    0    0    0    0  0.00000000000E+00  0.00000000000E+00  0.45593999997E+02  0.45594000000E+02  0.51100000000E-03 0. -1.
         11   -1    0    0    0    0 -0.00000000000E+00 -0.00000000000E+00 -0.45593999997E+02  0.45594000000E+02  0.51100000000E-03 0.  1.
    9900012    2    1    2    0    0  0.17159078512E+02 -0.20489420249E+02 -0.30641722198E+02  0.50528862567E+02  0.30000008260E+02 0.  0.
         12    1    1    2    0    0 -0.17159078512E+02  0.20489420249E+02  0.30641722198E+02  0.40659137433E+02  0.00000000000E+00 0. -1.
         11    1    3    3    0    0  0.82175025293E+01  0.67240978475E+01 -0.47859612998E+01  0.11646727674E+02  0.51100000000E-03 0. -1.
        -11    1    3    3    0    0  0.40435851639E+00 -0.68588052989E+01 -0.75309337210E+01  0.10194198297E+02  0.51100000000E-03 0.  1.
         12    1    3    3    0    0  0.85372174663E+01 -0.20354712797E+02 -0.18324827177E+02  0.28687936597E+02  0.00000000000E+00 0. -1.
</event>
<event>
 7    1  0.2973028E-011  0.5052885E+02  0.7816164E-02  0.1300439E+00
        -11   -1    0    0    0    0  0.00000000000E+00  0.00000000000E+00  0.45593999997E+02  0.45594000000E+02  0.51100000000E-03 0.  1.
         11   -1    0    0    0    0 -0.00000000000E+00 -0.00000000000E+00 -0.45593999997E+02  0.45594000000E+02  0.51100000000E-03 0. -1.
    9900012    2    1    2    0    0 -0.25302447095E+01 -0.71514421969E+01  0.39945230101E+02  0.50528847628E+02  0.29999962851E+02 0.  0.
         12    1    1    2    0    0  0.25302447095E+01  0.71514421969E+01 -0.39945230101E+02  0.40659152372E+02  0.00000000000E+00 0. -1.
         11    1    3    3    0    0 -0.16797799858E+01 -0.12404911614E+02  0.11050063482E+02  0.16697526648E+02  0.51100000000E-03 0. -1.
        -11    1    3    3    0    0 -0.38798928256E+01  0.89062211237E+01  0.27046786424E+02  0.28738528132E+02  0.51100000000E-03 0.  1.
        -12    1    3    3    0    0  0.30294281020E+01 -0.36527517067E+01  0.18483801950E+01  0.50927928488E+01  0.00000000000E+00 0.  1.
</event>
<event>
 7    1  0.2973028E-011  0.5052886E+02  0.7816164E-02  0.1300439E+00
        -11   -1    0    0    0    0  0.00000000000E+00  0.00000000000E+00  0.45593999997E+02  0.45594000000E+02  0.51100000000E-03 0. -1.
         11   -1    0    0    0    0 -0.00000000000E+00 -0.00000000000E+00 -0.45593999997E+02  0.45594000000E+02  0.51100000000E-03 0.  1.
    9900012    2    1    2    0    0  0.25719574767E+02 -0.11964444568E+02 -0.29129385570E+02  0.50528861253E+02  0.30000004263E+02 0.  0.
         12    1    1    2    0    0 -0.25719574767E+02  0.11964444568E+02  0.29129385570E+02  0.40659138747E+02  0.00000000000E+00 0. -1.
         11    1    3    3    0    0  0.19632465582E+02  0.68966227559E+01 -0.17353818582E+02  0.27095241831E+02  0.51100000000E-03 0. -1.
        -11    1    3    3    0    0  0.65155313205E+01 -0.17053038556E+02 -0.11444926693E+02  0.21546336572E+02  0.51100000000E-03 0.  1.
        -12    1    3    3    0    0 -0.42842213554E+00 -0.18080287675E+01 -0.33064029482E+00  0.18872828497E+01  0.00000000000E+00 0.  1.
</event>
<event>
 7    1  0.2973028E-011  0.5052886E+02  0.7816164E-02  0.1300439E+00
        -11   -1    0    0    0    0  0.00000000000E+00  0.00000000000E+00  0.45593999997E+02  0.45594000000E+02  0.51100000000E-03 0.  1.
         11   -1    0    0    0    0 -0.00000000000E+00 -0.00000000000E+00 -0.45593999997E+02  0.45594000000E+02  0.51100000000E-03 0. -1.
    9900012    2    1    2    0    0 -0.25274380772E+02  0.14960631145E+02  0.28116737635E+02  0.50528859049E+02  0.29999997565E+02 0.  0.
         12    1    1    2    0    0  0.25274380772E+02 -0.14960631145E+02 -0.28116737635E+02  0.40659140951E+02  0.00000000000E+00 0. -1.
         11    1    3    3    0    0  0.37858646665E+01  0.46471157854E+01  0.70191507456E+01  0.92302185156E+01  0.51100000000E-03 0. -1.
        -11    1    3    3    0    0 -0.29521373915E+02  0.12026466139E+02  0.22516179328E+02  0.39027243528E+02  0.51100000000E-03 0.  1.
         12    1    3    3    0    0  0.46112847652E+00 -0.17129507796E+01 -0.14185924391E+01  0.22713970048E+01  0.00000000000E+00 0. -1.
</event>
<event>
 7    1  0.2973028E-011  0.5052886E+02  0.7816164E-02  0.1300439E+00
        -11   -1    0    0    0    0  0.00000000000E+00  0.00000000000E+00  0.45593999997E+02  0.45594000000E+02  0.51100000000E-03 0.  1.
         11   -1    0    0    0    0 -0.00000000000E+00 -0.00000000000E+00 -0.45593999997E+02  0.45594000000E+02  0.51100000000E-03 0. -1.
    9900012    2    1    2    0    0 -0.15401251844E+02  0.17363163737E+02  0.33383946520E+02  0.50528857135E+02  0.29999991746E+02 0.  0.
         12    1    1    2    0    0  0.15401251844E+02 -0.17363163737E+02 -0.33383946520E+02  0.40659142865E+02  0.00000000000E+00 0. -1.
         11    1    3    3    0    0 -0.36502550929E+01  0.21172230777E+02  0.15253447330E+02  0.26348726232E+02  0.51100000000E-03 0. -1.
        -11    1    3    3    0    0 -0.12123855467E+02 -0.14120364375E+01  0.18003387351E+02  0.21750946523E+02  0.51100000000E-03 0.  1.
         12    1    3    3    0    0  0.37285871530E+00 -0.23970306027E+01  0.12711183859E+00  0.24291843799E+01  0.00000000000E+00 0. -1.
</event>
<event>
 7    1  0.2973028E-011  0.5052889E+02  0.7816164E-02  0.1300439E+00
        -11   -1    0    0    0    0  0.00000000000E+00  0.00000000000E+00  0.45593999997E+02  0.45594000000E+02  0.51100000000E-03 0.  1.
         11   -1    0    0    0    0 -0.00000000000E+00 -0.00000000000E+00 -0.45593999997E+02  0.45594000000E+02  0.51100000000E-03 0. -1.
    9900012    2    1    2    0    0  0.13755238941E+02  0.35116376956E+02  0.15191987628E+02  0.50528892572E+02  0.30000099460E+02 0.  0.
         12    1    1    2    0    0 -0.13755238941E+02 -0.35116376956E+02 -0.15191987628E+02  0.40659107428E+02  0.00000000000E+00 0. -1.
         11    1    3    3    0    0  0.13539898534E+02  0.29522961127E+02  0.15944632545E+01  0.32518862208E+02  0.51100000000E-03 0. -1.
        -11    1    3    3    0    0 -0.16779963596E+01 -0.27654060171E+01  0.39481855949E+01  0.51040485866E+01  0.51100000000E-03 0.  1.
        -12    1    3    3    0    0  0.18933367667E+01  0.83588218460E+01  0.96493387782E+01  0.12905981777E+02  0.00000000000E+00 0.  1.
</event>
<event>
 7    1  0.2973028E-011  0.5052886E+02  0.7816164E-02  0.1300439E+00
        -11   -1    0    0    0    0  0.00000000000E+00  0.00000000000E+00  0.45593999997E+02  0.45594000000E+02  0.51100000000E-03 0.  1.
         11   -1    0    0    0    0 -0.00000000000E+00 -0.00000000000E+00 -0.45593999997E+02  0.45594000000E+02  0.51100000000E-03 0. -1.
    9900012    2    1    2    0    0 -0.46310529016E+01 -0.25380831024E+02  0.31425028641E+02  0.50528860074E+02  0.30000000681E+02 0.  0.
         12    1    1    2    0    0  0.46310529016E+01  0.25380831024E+02 -0.31425028641E+02  0.40659139926E+02  0.00000000000E+00 0. -1.
         11    1    3    3    0    0 -0.26148853932E+00  0.16048440244E+01  0.20775544634E+01  0.26382064757E+01  0.51100000000E-03 0. -1.
        -11    1    3    3    0    0 -0.11075456745E+02 -0.22510635978E+02  0.30773099676E+02  0.39703628779E+02  0.51100000000E-03 0.  1.
        -12    1    3    3    0    0  0.67058923829E+01 -0.44750390704E+01 -0.14256254987E+01  0.81870248195E+01  0.00000000000E+00 0.  1.
</event>
<event>
 7    1  0.2973028E-011  0.5052882E+02  0.7816164E-02  0.1300439E+00
        -11   -1    0    0    0    0  0.00000000000E+00  0.00000000000E+00  0.45593999997E+02  0.45594000000E+02  0.51100000000E-03 0.  1.
         11   -1    0    0    0    0 -0.00000000000E+00 -0.00000000000E+00 -0.45593999997E+02  0.45594000000E+02  0.51100000000E-03 0. -1.
    9900012    2    1    2    0    0 -0.39110707622E+02 -0.10783461708E+02 -0.26904211508E+01  0.50528820679E+02  0.29999880936E+02 0.  0.
         12    1    1    2    0    0  0.39110707622E+02  0.10783461708E+02  0.26904211508E+01  0.40659179321E+02  0.00000000000E+00 0. -1.
         11    1    3    3    0    0 -0.13961325790E+02  0.60113088888E+01 -0.43868001139E+01  0.15820823868E+02  0.51100000000E-03 0. -1.
        -11    1    3    3    0    0 -0.23085738223E+02 -0.15362387246E+02 -0.44345707821E+01  0.28082372932E+02  0.51100000000E-03 0.  1.
         12    1    3    3    0    0 -0.20636436085E+01 -0.14323833502E+01  0.61309497452E+01  0.66256238787E+01  0.00000000000E+00 0. -1.
</event>
<event>
 7    1  0.2973028E-011  0.5052886E+02  0.7816164E-02  0.1300439E+00
        -11   -1    0    0    0    0  0.00000000000E+00  0.00000000000E+00  0.45593999997E+02  0.45594000000E+02  0.51100000000E-03 0.  1.
         11   -1    0    0    0    0 -0.00000000000E+00 -0.00000000000E+00 -0.45593999997E+02  0.45594000000E+02  0.51100000000E-03 0. -1.
    9900012    2    1    2    0    0 -0.12677925693E+02  0.70805664199E+00  0.38625569260E+02  0.50528859026E+02  0.29999997494E+02 0.  0.
         12    1    1    2    0    0  0.12677925693E+02 -0.70805664199E+00 -0.38625569260E+02  0.40659140974E+02  0.00000000000E+00 0. -1.
         11    1    3    3    0    0 -0.13695417157E+02 -0.35548839725E+01  0.27530089688E+02  0.30953311449E+02  0.51100000000E-03 0. -1.
        -11    1    3    3    0    0  0.51238062293E+01 -0.35284954362E+01  0.82239081784E+01  0.10311951140E+02  0.51100000000E-03 0.  1.
         12    1    3    3    0    0 -0.41063147656E+01  0.77914360506E+01  0.28715713943E+01  0.92635964375E+01  0.00000000000E+00 0. -1.
</event>
<event>
 7    1  0.2973028E-011  0.5052885E+02  0.7816164E-02  0.1300439E+00
        -11   -1    0    0    0    0  0.00000000000E+00  0.00000000000E+00  0.45593999997E+02  0.45594000000E+02  0.51100000000E-03 0.  1.
         11   -1    0    0    0    0 -0.00000000000E+00 -0.00000000000E+00 -0.45593999997E+02  0.45594000000E+02  0.51100000000E-03 0. -1.
    9900012    2    1    2    0    0  0.20770010692E+02  0.23389622048E+02  0.25974965153E+02  0.50528848774E+02  0.29999966335E+02 0.  0.
         12    1    1    2    0    0 -0.20770010692E+02 -0.23389622048E+02 -0.25974965153E+02  0.40659151226E+02  0.00000000000E+00 0. -1.
         11    1    3    3    0    0  0.12726705042E+02  0.24971458318E+02  0.25444269222E+02  0.37854373437E+02  0.51100000000E-03 0. -1.
        -11    1    3    3    0    0  0.65836007606E+00 -0.15527954259E+01  0.41284869114E+01  0.44597103115E+01  0.51100000000E-03 0.  1.
         12    1    3    3    0    0  0.73849455737E+01 -0.29040844304E-01 -0.35977909806E+01  0.82147650263E+01  0.00000000000E+00 0. -1.
</event>
<event>
 7    1  0.2973028E-011  0.5052888E+02  0.7816164E-02  0.1300439E+00
        -11   -1    0    0    0    0  0.00000000000E+00  0.00000000000E+00  0.45593999997E+02  0.45594000000E+02  0.51100000000E-03 0.  1.
         11   -1    0    0    0    0 -0.00000000000E+00 -0.00000000000E+00 -0.45593999997E+02  0.45594000000E+02  0.51100000000E-03 0. -1.
    9900012    2    1    2    0    0 -0.24494251182E+01 -0.16917137383E+02  0.36891395923E+02  0.50528876623E+02  0.30000050982E+02 0.  0.
         12    1    1    2    0    0  0.24494251182E+01  0.16917137383E+02 -0.36891395923E+02  0.40659123377E+02  0.00000000000E+00 0. -1.
         11    1    3    3    0    0 -0.77864472077E+01 -0.21599600520E+02  0.19639553801E+02  0.30213963271E+02  0.51100000000E-03 0. -1.
        -11    1    3    3    0    0  0.27428858129E+01 -0.14622031525E+01  0.99553358230E+01  0.10429293948E+02  0.51100000000E-03 0.  1.
         12    1    3    3    0    0  0.25941362765E+01  0.61446662897E+01  0.72965062986E+01  0.98856194039E+01  0.00000000000E+00 0. -1.
</event>
<event>
 7    1  0.2973028E-011  0.5052886E+02  0.7816164E-02  0.1300439E+00
        -11   -1    0    0    0    0  0.00000000000E+00  0.00000000000E+00  0.45593999997E+02  0.45594000000E+02  0.51100000000E-03 0.  1.
         11   -1    0    0    0    0 -0.00000000000E+00 -0.00000000000E+00 -0.45593999997E+02  0.45594000000E+02  0.51100000000E-03 0. -1.
    9900012    2    1    2    0    0 -0.27126942428E+02 -0.23968577198E+02 -0.18514909336E+02  0.50528861223E+02  0.30000004172E+02 0.  0.
         12    1    1    2    0    0  0.27126942428E+02  0.23968577198E+02  0.18514909336E+02  0.40659138777E+02  0.00000000000E+00 0. -1.
         11    1    3    3    0    0  0.61191836274E+01 -0.23240564285E+01 -0.48597262603E+00  0.65636739867E+01  0.51100000000E-03 0. -1.
        -11    1    3    3    0    0 -0.11011968745E+02 -0.71181663179E+01 -0.90395935360E+01  0.15926267577E+02  0.51100000000E-03 0.  1.
         12    1    3    3    0    0 -0.22234157310E+02 -0.14526354452E+02 -0.89893431743E+01  0.28038919659E+02  0.00000000000E+00 0. -1.
</event>
<event>
 7    1  0.2973028E-011  0.5052885E+02  0.7816164E-02  0.1300439E+00
        -11   -1    0    0    0    0  0.00000000000E+00  0.00000000000E+00  0.45593999997E+02  0.45594000000E+02  0.51100000000E-03 0.  1.
         11   -1    0    0    0    0 -0.00000000000E+00 -0.00000000000E+00 -0.45593999997E+02  0.45594000000E+02  0.51100000000E-03 0. -1.
    9900012    2    1    2    0    0 -0.30881308036E+01 -0.38852834233E+02  0.11579590127E+02  0.50528853583E+02  0.29999980952E+02 0.  0.
         12    1    1    2    0    0  0.30881308036E+01  0.38852834233E+02 -0.11579590127E+02  0.40659146417E+02  0.00000000000E+00 0. -1.
         11    1    3    3    0    0 -0.10970540414E+01 -0.25354655029E+02  0.16492865569E+02  0.30266758567E+02  0.51100000000E-03 0. -1.
        -11    1    3    3    0    0 -0.38151443921E+01 -0.36949124486E+01 -0.81940377879E+01  0.97647304246E+01  0.51100000000E-03 0.  1.
        -12    1    3    3    0    0  0.18240676298E+01 -0.98032667556E+01  0.32807623459E+01  0.10497364592E+02  0.00000000000E+00 0.  1.
</event>
<event>
 7    1  0.2973028E-011  0.5052880E+02  0.7816164E-02  0.1300439E+00
        -11   -1    0    0    0    0  0.00000000000E+00  0.00000000000E+00  0.45593999997E+02  0.45594000000E+02  0.51100000000E-03 0. -1.
         11   -1    0    0    0    0 -0.00000000000E+00 -0.00000000000E+00 -0.45593999997E+02  0.45594000000E+02  0.51100000000E-03 0.  1.
    9900012    2    1    2    0    0 -0.25423438159E+01 -0.89037928696E+01 -0.39590770435E+02  0.50528804937E+02  0.29999833085E+02 0.  0.
         12    1    1    2    0    0  0.25423438159E+01  0.89037928696E+01  0.39590770435E+02  0.40659195063E+02  0.00000000000E+00 0. -1.
         11    1    3    3    0    0 -0.25727509976E+01 -0.42611249510E+01  0.40796974015E+01  0.64358499588E+01  0.51100000000E-03 0. -1.
        -11    1    3    3    0    0  0.66835140749E+00 -0.44420159808E+01 -0.24347113859E+02  0.24758032093E+02  0.51100000000E-03 0.  1.
         12    1    3    3    0    0 -0.63794422580E+00 -0.20065193785E+00 -0.19323353977E+02  0.19334922885E+02  0.00000000000E+00 0. -1.
</event>
<event>
 7    1  0.2973028E-011  0.5052885E+02  0.7816164E-02  0.1300439E+00
        -11   -1    0    0    0    0  0.00000000000E+00  0.00000000000E+00  0.45593999997E+02  0.45594000000E+02  0.51100000000E-03 0.  1.
         11   -1    0    0    0    0 -0.00000000000E+00 -0.00000000000E+00 -0.45593999997E+02  0.45594000000E+02  0.51100000000E-03 0. -1.
    9900012    2    1    2    0    0 -0.16574979535E+02  0.20072390785E+02  0.31233561769E+02  0.50528853438E+02  0.29999980510E+02 0.  0.
         12    1    1    2    0    0  0.16574979535E+02 -0.20072390785E+02 -0.31233561769E+02  0.40659146562E+02  0.00000000000E+00 0. -1.
         11    1    3    3    0    0 -0.13052013922E+02  0.10643595221E+02  0.32136776864E+01  0.17145521607E+02  0.51100000000E-03 0. -1.
        -11    1    3    3    0    0 -0.94857046191E+01  0.64865656019E+01  0.18190981569E+02  0.21516643236E+02  0.51100000000E-03 0.  1.
         12    1    3    3    0    0  0.59627390059E+01  0.29422299619E+01  0.98289025130E+01  0.11866688595E+02  0.00000000000E+00 0. -1.
</event>
<event>
 7    1  0.2973028E-011  0.5052885E+02  0.7816164E-02  0.1300439E+00
        -11   -1    0    0    0    0  0.00000000000E+00  0.00000000000E+00  0.45593999997E+02  0.45594000000E+02  0.51100000000E-03 0. -1.
         11   -1    0    0    0    0 -0.00000000000E+00 -0.00000000000E+00 -0.45593999997E+02  0.45594000000E+02  0.51100000000E-03 0.  1.
    9900012    2    1    2    0    0  0.38563681186E+02 -0.12708966179E+02 -0.21192407997E+01  0.50528849621E+02  0.29999968908E+02 0.  0.
         12    1    1    2    0    0 -0.38563681186E+02  0.12708966179E+02  0.21192407997E+01  0.40659150379E+02  0.00000000000E+00 0. -1.
         11    1    3    3    0    0  0.89051476214E+01 -0.14272277827E+02 -0.91610416665E+01  0.19155266984E+02  0.51100000000E-03 0. -1.
        -11    1    3    3    0    0  0.16432517622E+02 -0.10109419625E+01  0.69195646766E+00  0.16478120131E+02  0.51100000000E-03 0.  1.
         12    1    3    3    0    0  0.13226015943E+02  0.25742536105E+01  0.63498443992E+01  0.14895462506E+02  0.00000000000E+00 0. -1.
</event>
<event>
 7    1  0.2973028E-011  0.5052888E+02  0.7816164E-02  0.1300439E+00
        -11   -1    0    0    0    0  0.00000000000E+00  0.00000000000E+00  0.45593999997E+02  0.45594000000E+02  0.51100000000E-03 0. -1.
         11   -1    0    0    0    0 -0.00000000000E+00 -0.00000000000E+00 -0.45593999997E+02  0.45594000000E+02  0.51100000000E-03 0.  1.
    9900012    2    1    2    0    0  0.27179747053E+02  0.27168276631E+02  0.13278177088E+02  0.50528881813E+02  0.30000066760E+02 0.  0.
         12    1    1    2    0    0 -0.27179747053E+02 -0.27168276631E+02 -0.13278177088E+02  0.40659118187E+02  0.00000000000E+00 0. -1.
         11    1    3    3    0    0 -0.23966639449E+01  0.45275821118E+01  0.76841850107E+00  0.51801028076E+01  0.51100000000E-03 0. -1.
        -11    1    3    3    0    0  0.19345721856E+02  0.72943160163E+01  0.16531146207E+02  0.26471546903E+02  0.51100000000E-03 0.  1.
        -12    1    3    3    0    0  0.10230689142E+02  0.15346378503E+02 -0.40213876202E+01  0.18877232103E+02  0.00000000000E+00 0.  1.
</event>
<event>
 7    1  0.2973028E-011  0.5052886E+02  0.7816164E-02  0.1300439E+00
        -11   -1    0    0    0    0  0.00000000000E+00  0.00000000000E+00  0.45593999997E+02  0.45594000000E+02  0.51100000000E-03 0.  1.
         11   -1    0    0    0    0 -0.00000000000E+00 -0.00000000000E+00 -0.45593999997E+02  0.45594000000E+02  0.51100000000E-03 0. -1.
    9900012    2    1    2    0    0  0.18533613359E+02  0.33890400484E+02  0.12692977826E+02  0.50528858897E+02  0.29999997104E+02 0.  0.
         12    1    1    2    0    0 -0.18533613359E+02 -0.33890400484E+02 -0.12692977826E+02  0.40659141103E+02  0.00000000000E+00 0. -1.
         11    1    3    3    0    0  0.11912990974E+01  0.21409046186E+02  0.16240797411E+02  0.26898512095E+02  0.51100000000E-03 0. -1.
        -11    1    3    3    0    0  0.82078876021E+01  0.10951054090E+02  0.73636830721E-01  0.13685774630E+02  0.51100000000E-03 0.  1.
         12    1    3    3    0    0  0.91344266593E+01  0.15303002077E+01 -0.36214564152E+01  0.99445721721E+01  0.00000000000E+00 0. -1.
</event>
<event>
 7    1  0.2973028E-011  0.5052891E+02  0.7816164E-02  0.1300439E+00
        -11   -1    0    0    0    0  0.00000000000E+00  0.00000000000E+00  0.45593999997E+02  0.45594000000E+02  0.51100000000E-03 0. -1.
         11   -1    0    0    0    0 -0.00000000000E+00 -0.00000000000E+00 -0.45593999997E+02  0.45594000000E+02  0.51100000000E-03 0.  1.
    9900012    2    1    2    0    0  0.28710276970E+02  0.26598311534E+02 -0.11018681235E+02  0.50528911025E+02  0.30000155550E+02 0.  0.
         12    1    1    2    0    0 -0.28710276970E+02 -0.26598311534E+02  0.11018681235E+02  0.40659088975E+02  0.00000000000E+00 0. -1.
         11    1    3    3    0    0  0.26750248465E+01  0.87387517499E+01 -0.85440944193E+01  0.12510918822E+02  0.51100000000E-03 0. -1.
        -11    1    3    3    0    0  0.23729909901E+02  0.22439971169E+02 -0.97081374855E+00  0.32674200978E+02  0.51100000000E-03 0.  1.
        -12    1    3    3    0    0  0.23053422220E+01 -0.45804113843E+01 -0.15037730667E+01  0.53437912240E+01  0.00000000000E+00 0.  1.
</event>
<event>
 7    1  0.2973028E-011  0.5052891E+02  0.7816164E-02  0.1300439E+00
        -11   -1    0    0    0    0  0.00000000000E+00  0.00000000000E+00  0.45593999997E+02  0.45594000000E+02  0.51100000000E-03 0. -1.
         11   -1    0    0    0    0 -0.00000000000E+00 -0.00000000000E+00 -0.45593999997E+02  0.45594000000E+02  0.51100000000E-03 0.  1.
    9900012    2    1    2    0    0 -0.13330408153E+02  0.18167115139E+02 -0.33844025453E+02  0.50528906148E+02  0.30000140727E+02 0.  0.
         12    1    1    2    0    0  0.13330408153E+02 -0.18167115139E+02  0.33844025453E+02  0.40659093852E+02  0.00000000000E+00 0. -1.
         11    1    3    3    0    0  0.36498469814E+01  0.13956998967E+02 -0.24789385687E+02  0.28681576772E+02  0.51100000000E-03 0. -1.
        -11    1    3    3    0    0 -0.10068102872E+02 -0.23553795055E+01 -0.43752768750E+01  0.11227535618E+02  0.51100000000E-03 0.  1.
         12    1    3    3    0    0 -0.69121522631E+01  0.65654956770E+01 -0.46793628913E+01  0.10619793758E+02  0.00000000000E+00 0. -1.
</event>
<event>
 7    1  0.2973028E-011  0.5052886E+02  0.7816164E-02  0.1300439E+00
        -11   -1    0    0    0    0  0.00000000000E+00  0.00000000000E+00  0.45593999997E+02  0.45594000000E+02  0.51100000000E-03 0. -1.
         11   -1    0    0    0    0 -0.00000000000E+00 -0.00000000000E+00 -0.45593999997E+02  0.45594000000E+02  0.51100000000E-03 0.  1.
    9900012    2    1    2    0    0 -0.35208263536E+02 -0.15298788304E+02  0.13397422819E+02  0.50528859785E+02  0.29999999803E+02 0.  0.
         12    1    1    2    0    0  0.35208263536E+02  0.15298788304E+02 -0.13397422819E+02  0.40659140215E+02  0.00000000000E+00 0. -1.
         11    1    3    3    0    0 -0.10605066699E+02  0.25161139283E-01  0.14766455950E+02  0.18180107106E+02  0.51100000000E-03 0. -1.
        -11    1    3    3    0    0 -0.84445390252E+01 -0.98148519860E+01 -0.65470309905E+01  0.14508796432E+02  0.51100000000E-03 0.  1.
        -12    1    3    3    0    0 -0.16158657812E+02 -0.55090974573E+01  0.51779978594E+01  0.17839956247E+02  0.00000000000E+00 0.  1.
</event>
<event>
 7    1  0.2973028E-011  0.5052883E+02  0.7816164E-02  0.1300439E+00
        -11   -1    0    0    0    0  0.00000000000E+00  0.00000000000E+00  0.45593999997E+02  0.45594000000E+02  0.51100000000E-03 0.  1.
         11   -1    0    0    0    0 -0.00000000000E+00 -0.00000000000E+00 -0.45593999997E+02  0.45594000000E+02  0.51100000000E-03 0. -1.
    9900012    2    1    2    0    0  0.31503847144E+02 -0.16318934063E+01  0.25651749688E+02  0.50528834698E+02  0.29999923549E+02 0.  0.
         12    1    1    2    0    0 -0.31503847144E+02  0.16318934063E+01 -0.25651749688E+02  0.40659165302E+02  0.00000000000E+00 0. -1.
         11    1    3    3    0    0 -0.36035889351E+01  0.27869923362E+01  0.54808912081E+01  0.71269452216E+01  0.51100000000E-03 0. -1.
        -11    1    3    3    0    0  0.18419090041E+02 -0.83445627709E+01  0.58136148319E+01  0.21040264339E+02  0.51100000000E-03 0.  1.
        -12    1    3    3    0    0  0.16688346038E+02  0.39256770284E+01  0.14357243648E+02  0.22361625138E+02  0.00000000000E+00 0.  1.
</event>
<event>
 7    1  0.2973028E-011  0.5052886E+02  0.7816164E-02  0.1300439E+00
        -11   -1    0    0    0    0  0.00000000000E+00  0.00000000000E+00  0.45593999997E+02  0.45594000000E+02  0.51100000000E-03 0. -1.
         11   -1    0    0    0    0 -0.00000000000E+00 -0.00000000000E+00 -0.45593999997E+02  0.45594000000E+02  0.51100000000E-03 0.  1.
    9900012    2    1    2    0    0  0.66480342117E+01 -0.38569274408E+02 -0.11017281512E+02  0.50528858602E+02  0.29999996208E+02 0.  0.
         12    1    1    2    0    0 -0.66480342117E+01  0.38569274408E+02  0.11017281512E+02  0.40659141398E+02  0.00000000000E+00 0. -1.
         11    1    3    3    0    0  0.97059068369E+01 -0.36621803386E+02 -0.17815136881E+02  0.41865740327E+02  0.51100000000E-03 0.  1.
        -11    1    3    3    0    0 -0.32007138024E+01  0.42942941444E-01  0.52019229725E+01  0.61078978228E+01  0.51100000000E-03 0. -1.
         12    1    3    3    0    0  0.14284117717E+00 -0.19904139642E+01  0.15959323962E+01  0.25552204531E+01  0.00000000000E+00 0. -1.
</event>
<event>
 7    1  0.2973028E-011  0.5052885E+02  0.7816164E-02  0.1300439E+00
        -11   -1    0    0    0    0  0.00000000000E+00  0.00000000000E+00  0.45593999997E+02  0.45594000000E+02  0.51100000000E-03 0. -1.
         11   -1    0    0    0    0 -0.00000000000E+00 -0.00000000000E+00 -0.45593999997E+02  0.45594000000E+02  0.51100000000E-03 0.  1.
    9900012    2    1    2    0    0 -0.23917762474E+02  0.14069758784E+02 -0.29717826952E+02  0.50528847122E+02  0.29999961311E+02 0.  0.
         12    1    1    2    0    0  0.23917762474E+02 -0.14069758784E+02  0.29717826952E+02  0.40659152878E+02  0.00000000000E+00 0. -1.
         11    1    3    3    0    0  0.41358439534E+01  0.62366681665E+01  0.15850172844E+01  0.76494127277E+01  0.51100000000E-03 0. -1.
        -11    1    3    3    0    0 -0.10578497994E+02  0.37981271040E+01 -0.10125057320E+02  0.15127695637E+02  0.51100000000E-03 0.  1.
         12    1    3    3    0    0 -0.17475108434E+02  0.40349635138E+01 -0.21177786917E+02  0.27751738757E+02  0.00000000000E+00 0. -1.
</event>
<event>
 7    1  0.2973028E-011  0.5052886E+02  0.7816164E-02  0.1300439E+00
        -11   -1    0    0    0    0  0.00000000000E+00  0.00000000000E+00  0.45593999997E+02  0.45594000000E+02  0.51100000000E-03 0. -1.
         11   -1    0    0    0    0 -0.00000000000E+00 -0.00000000000E+00 -0.45593999997E+02  0.45594000000E+02  0.51100000000E-03 0.  1.
    9900012    2    1    2    0    0 -0.63652494357E+01 -0.18441499736E+01 -0.40115436862E+02  0.50528861247E+02  0.30000004246E+02 0.  0.
         12    1    1    2    0    0  0.63652494357E+01  0.18441499736E+01  0.40115436862E+02  0.40659138753E+02  0.00000000000E+00 0. -1.
         11    1    3    3    0    0 -0.10878380497E+02  0.47979882546E+01 -0.18526443664E+02  0.22013381581E+02  0.51100000000E-03 0. -1.
        -11    1    3    3    0    0  0.48814732489E+01 -0.10836742537E+02 -0.21177371501E+02  0.24284662523E+02  0.51100000000E-03 0.  1.
        -12    1    3    3    0    0 -0.36834218714E+00  0.41946043091E+01 -0.41162169741E+00  0.42308171431E+01  0.00000000000E+00 0.  1.
</event>
<event>
 7    1  0.2973028E-011  0.5052887E+02  0.7816164E-02  0.1300439E+00
        -11   -1    0    0    0    0  0.00000000000E+00  0.00000000000E+00  0.45593999997E+02  0.45594000000E+02  0.51100000000E-03 0.  1.
         11   -1    0    0    0    0 -0.00000000000E+00 -0.00000000000E+00 -0.45593999997E+02  0.45594000000E+02  0.51100000000E-03 0. -1.
    9900012    2    1    2    0    0  0.22927843777E+02  0.93746524255E+01  0.32242751701E+02  0.50528866148E+02  0.30000019143E+02 0.  0.
         12    1    1    2    0    0 -0.22927843777E+02 -0.93746524255E+01 -0.32242751701E+02  0.40659133852E+02  0.00000000000E+00 0. -1.
         11    1    3    3    0    0  0.11054191773E+02  0.15116799283E+01 -0.13192169105E+01  0.11234797082E+02  0.51100000000E-03 0.  1.
        -11    1    3    3    0    0  0.11952481145E+02  0.33043261420E+00  0.26013268222E+02  0.28629724328E+02  0.51100000000E-03 0. -1.
        -12    1    3    3    0    0 -0.78829141249E-01  0.75325398830E+01  0.75487003892E+01  0.10664344738E+02  0.00000000000E+00 0.  1.
</event>
<event>
 7    1  0.2973028E-011  0.5052890E+02  0.7816164E-02  0.1300439E+00
        -11   -1    0    0    0    0  0.00000000000E+00  0.00000000000E+00  0.45593999997E+02  0.45594000000E+02  0.51100000000E-03 0. -1.
         11   -1    0    0    0    0 -0.00000000000E+00 -0.00000000000E+00 -0.45593999997E+02  0.45594000000E+02  0.51100000000E-03 0.  1.
    9900012    2    1    2    0    0 -0.18750340661E+02  0.30029956037E+02  0.19994728932E+02  0.50528896228E+02  0.30000110573E+02 0.  0.
         12    1    1    2    0    0  0.18750340661E+02 -0.30029956037E+02 -0.19994728932E+02  0.40659103772E+02  0.00000000000E+00 0. -1.
         11    1    3    3    0    0  0.53786297276E+01  0.75798500621E+01  0.15876083227E+01  0.94289068909E+01  0.51100000000E-03 0. -1.
        -11    1    3    3    0    0 -0.23817418646E+02  0.13272294580E+02  0.15972066223E+02  0.31599527435E+02  0.51100000000E-03 0.  1.
        -12    1    3    3    0    0 -0.31155174235E+00  0.91778113947E+01  0.24350543867E+01  0.95004619020E+01  0.00000000000E+00 0.  1.
</event>
<event>
 7    1  0.2973028E-011  0.5052886E+02  0.7816164E-02  0.1300439E+00
        -11   -1    0    0    0    0  0.00000000000E+00  0.00000000000E+00  0.45593999997E+02  0.45594000000E+02  0.51100000000E-03 0. -1.
         11   -1    0    0    0    0 -0.00000000000E+00 -0.00000000000E+00 -0.45593999997E+02  0.45594000000E+02  0.51100000000E-03 0.  1.
    9900012    2    1    2    0    0  0.63103218413E+01 -0.39091699671E+02  0.92295486210E+01  0.50528859421E+02  0.29999998696E+02 0.  0.
         12    1    1    2    0    0 -0.63103218413E+01  0.39091699671E+02 -0.92295486210E+01  0.40659140579E+02  0.00000000000E+00 0. -1.
         11    1    3    3    0    0  0.25686476416E+01  0.27821437482E+01  0.64217650472E+01  0.74550212022E+01  0.51100000000E-03 0. -1.
        -11    1    3    3    0    0  0.22856260116E+00 -0.17314389021E+02  0.53774532283E+01  0.18131665988E+02  0.51100000000E-03 0.  1.
         12    1    3    3    0    0  0.35131115986E+01 -0.24559454398E+02 -0.25696696545E+01  0.24942172230E+02  0.00000000000E+00 0. -1.
</event>
<event>
 7    1  0.2973028E-011  0.5052882E+02  0.7816164E-02  0.1300439E+00
        -11   -1    0    0    0    0  0.00000000000E+00  0.00000000000E+00  0.45593999997E+02  0.45594000000E+02  0.51100000000E-03 0. -1.
         11   -1    0    0    0    0 -0.00000000000E+00 -0.00000000000E+00 -0.45593999997E+02  0.45594000000E+02  0.51100000000E-03 0.  1.
    9900012    2    1    2    0    0 -0.37838661333E+02 -0.84778115593E+01 -0.12228306437E+02  0.50528818274E+02  0.29999873626E+02 0.  0.
         12    1    1    2    0    0  0.37838661333E+02  0.84778115593E+01  0.12228306437E+02  0.40659181726E+02  0.00000000000E+00 0. -1.
         11    1    3    3    0    0 -0.23207289798E+01 -0.53085495365E+01 -0.53892194911E+01  0.79126587291E+01  0.51100000000E-03 0. -1.
        -11    1    3    3    0    0 -0.17966775651E+02  0.95889724376E+01 -0.32877753233E+01  0.20629175615E+02  0.51100000000E-03 0.  1.
        -12    1    3    3    0    0 -0.17551156702E+02 -0.12758234460E+02 -0.35513116230E+01  0.21986983931E+02  0.00000000000E+00 0.  1.
</event>
<event>
 7    1  0.2973028E-011  0.5052887E+02  0.7816164E-02  0.1300439E+00
        -11   -1    0    0    0    0  0.00000000000E+00  0.00000000000E+00  0.45593999997E+02  0.45594000000E+02  0.51100000000E-03 0. -1.
         11   -1    0    0    0    0 -0.00000000000E+00 -0.00000000000E+00 -0.45593999997E+02  0.45594000000E+02  0.51100000000E-03 0.  1.
    9900012    2    1    2    0    0 -0.38673851705E+02  0.12073742459E+02  0.34238655872E+01  0.50528869190E+02  0.30000028390E+02 0.  0.
         12    1    1    2    0    0  0.38673851705E+02 -0.12073742459E+02 -0.34238655872E+01  0.40659130810E+02  0.00000000000E+00 0. -1.
         11    1    3    3    0    0 -0.16771485436E+02  0.14316996739E+02  0.11780067986E+02  0.25000582421E+02  0.51100000000E-03 0. -1.
        -11    1    3    3    0    0 -0.14157081916E+02 -0.38649331752E+01 -0.97594126737E+00  0.14707587785E+02  0.51100000000E-03 0.  1.
         12    1    3    3    0    0 -0.77452843524E+01  0.16216788958E+01 -0.73802611316E+01  0.10820698984E+02  0.00000000000E+00 0. -1.
</event>
<event>
 7    1  0.2973028E-011  0.5052886E+02  0.7816164E-02  0.1300439E+00
        -11   -1    0    0    0    0  0.00000000000E+00  0.00000000000E+00  0.45593999997E+02  0.45594000000E+02  0.51100000000E-03 0.  1.
         11   -1    0    0    0    0 -0.00000000000E+00 -0.00000000000E+00 -0.45593999997E+02  0.45594000000E+02  0.51100000000E-03 0. -1.
    9900012    2    1    2    0    0  0.21770540110E+02  0.34333025683E+02  0.67245421999E+00  0.50528864938E+02  0.30000015467E+02 0.  0.
         12    1    1    2    0    0 -0.21770540110E+02 -0.34333025683E+02 -0.67245421999E+00  0.40659135062E+02  0.00000000000E+00 0. -1.
         11    1    3    3    0    0  0.91646431807E+01  0.10903248460E+02  0.91037200586E+01  0.16904118752E+02  0.51100000000E-03 0. -1.
        -11    1    3    3    0    0  0.91866073770E+01  0.14185857207E+02 -0.14312994263E+02  0.22147101500E+02  0.51100000000E-03 0.  1.
        -12    1    3    3    0    0  0.34192895527E+01  0.92439200163E+01  0.58817284240E+01  0.11477644687E+02  0.00000000000E+00 0.  1.
</event>
<event>
 7    1  0.2973028E-011  0.5052886E+02  0.7816164E-02  0.1300439E+00
        -11   -1    0    0    0    0  0.00000000000E+00  0.00000000000E+00  0.45593999997E+02  0.45594000000E+02  0.51100000000E-03 0.  1.
         11   -1    0    0    0    0 -0.00000000000E+00 -0.00000000000E+00 -0.45593999997E+02  0.45594000000E+02  0.51100000000E-03 0. -1.
    9900012    2    1    2    0    0 -0.16026689759E+02 -0.93832502927E+01  0.36169957030E+02  0.50528856351E+02  0.29999989366E+02 0.  0.
         12    1    1    2    0    0  0.16026689759E+02  0.93832502927E+01 -0.36169957030E+02  0.40659143649E+02  0.00000000000E+00 0. -1.
         11    1    3    3    0    0 -0.13738919801E+02 -0.74286766702E+01  0.14669084978E+02  0.21427207208E+02  0.51100000000E-03 0. -1.
        -11    1    3    3    0    0 -0.16262953487E+01  0.59582302758E+01 -0.55564467586E-02  0.61761942744E+01  0.51100000000E-03 0.  1.
        -12    1    3    3    0    0 -0.66147460924E+00 -0.79128038983E+01  0.21506428499E+02  0.22925454869E+02  0.00000000000E+00 0.  1.
</event>
<event>
 7    1  0.2973028E-011  0.5052885E+02  0.7816164E-02  0.1300439E+00
        -11   -1    0    0    0    0  0.00000000000E+00  0.00000000000E+00  0.45593999997E+02  0.45594000000E+02  0.51100000000E-03 0.  1.
         11   -1    0    0    0    0 -0.00000000000E+00 -0.00000000000E+00 -0.45593999997E+02  0.45594000000E+02  0.51100000000E-03 0. -1.
    9900012    2    1    2    0    0 -0.33321589756E+00  0.40458608105E+02  0.40195469630E+01  0.50528846536E+02  0.29999959530E+02 0.  0.
         12    1    1    2    0    0  0.33321589756E+00 -0.40458608105E+02 -0.40195469630E+01  0.40659153464E+02  0.00000000000E+00 0. -1.
         11    1    3    3    0    0 -0.14749067708E+01 -0.25504049978E+01 -0.41188341948E+01  0.50640607244E+01  0.51100000000E-03 0. -1.
        -11    1    3    3    0    0  0.52705418274E+01  0.24266012238E+02  0.58252133046E+00  0.24838625011E+02  0.51100000000E-03 0.  1.
         12    1    3    3    0    0 -0.41288509541E+01  0.18743000865E+02  0.75558598273E+01  0.20626160801E+02  0.00000000000E+00 0. -1.
</event>
<event>
 7    1  0.2973028E-011  0.5052886E+02  0.7816164E-02  0.1300439E+00
        -11   -1    0    0    0    0  0.00000000000E+00  0.00000000000E+00  0.45593999997E+02  0.45594000000E+02  0.51100000000E-03 0.  1.
         11   -1    0    0    0    0 -0.00000000000E+00 -0.00000000000E+00 -0.45593999997E+02  0.45594000000E+02  0.51100000000E-03 0. -1.
    9900012    2    1    2    0    0 -0.64258716001E+01  0.57182816455E+01  0.39738837483E+02  0.50528858650E+02  0.29999996352E+02 0.  0.
         12    1    1    2    0    0  0.64258716001E+01 -0.57182816455E+01 -0.39738837483E+02  0.40659141350E+02  0.00000000000E+00 0. -1.
         11    1    3    3    0    0 -0.21131189682E+01 -0.73850313364E+01 -0.24367620555E-01  0.76814421598E+01  0.51100000000E-03 0. -1.
        -11    1    3    3    0    0 -0.39518036330E+00  0.52587171148E+01  0.61120389424E+01  0.80726261840E+01  0.51100000000E-03 0.  1.
         12    1    3    3    0    0 -0.39175722686E+01  0.78445958671E+01  0.33651166162E+02  0.34774790306E+02  0.00000000000E+00 0. -1.
</event>
<event>
 7    1  0.2973028E-011  0.5052886E+02  0.7816164E-02  0.1300439E+00
        -11   -1    0    0    0    0  0.00000000000E+00  0.00000000000E+00  0.45593999997E+02  0.45594000000E+02  0.51100000000E-03 0.  1.
         11   -1    0    0    0    0 -0.00000000000E+00 -0.00000000000E+00 -0.45593999997E+02  0.45594000000E+02  0.51100000000E-03 0. -1.
    9900012    2    1    2    0    0  0.65806354732E+01 -0.27987883541E+02  0.28749600520E+02  0.50528856890E+02  0.29999991003E+02 0.  0.
         12    1    1    2    0    0 -0.65806354732E+01  0.27987883541E+02 -0.28749600520E+02  0.40659143110E+02  0.00000000000E+00 0. -1.
         11    1    3    3    0    0 -0.21905932787E+01  0.22548131255E+01 -0.54789158012E+00  0.31910917550E+01  0.51100000000E-03 0. -1.
        -11    1    3    3    0    0  0.19092333191E+01 -0.17338832840E+02  0.27564721643E+02  0.32620456399E+02  0.51100000000E-03 0.  1.
        -12    1    3    3    0    0  0.68619954328E+01 -0.12903863827E+02  0.17327704572E+01  0.14717308736E+02  0.00000000000E+00 0.  1.
</event>
<event>
 7    1  0.2973028E-011  0.5052886E+02  0.7816164E-02  0.1300439E+00
        -11   -1    0    0    0    0  0.00000000000E+00  0.00000000000E+00  0.45593999997E+02  0.45594000000E+02  0.51100000000E-03 0. -1.
         11   -1    0    0    0    0 -0.00000000000E+00 -0.00000000000E+00 -0.45593999997E+02  0.45594000000E+02  0.51100000000E-03 0.  1.
    9900012    2    1    2    0    0  0.23212485804E+02  0.31943316390E+02  0.96938543831E+01  0.50528858691E+02  0.29999996477E+02 0.  0.
         12    1    1    2    0    0 -0.23212485804E+02 -0.31943316390E+02 -0.96938543831E+01  0.40659141309E+02  0.00000000000E+00 0. -1.
         11    1    3    3    0    0 -0.66237684134E+01  0.14566182641E+01  0.24662237940E+01  0.72165299712E+01  0.51100000000E-03 0. -1.
        -11    1    3    3    0    0  0.10266631445E+02  0.96201527406E+01  0.31232950866E+01  0.14412010007E+02  0.51100000000E-03 0.  1.
         12    1    3    3    0    0  0.19569622773E+02  0.20866545385E+02  0.41043355025E+01  0.28900318713E+02  0.00000000000E+00 0. -1.
</event>
<event>
 7    1  0.2973028E-011  0.5052886E+02  0.7816164E-02  0.1300439E+00
        -11   -1    0    0    0    0  0.00000000000E+00  0.00000000000E+00  0.45593999997E+02  0.45594000000E+02  0.51100000000E-03 0.  1.
         11   -1    0    0    0    0 -0.00000000000E+00 -0.00000000000E+00 -0.45593999997E+02  0.45594000000E+02  0.51100000000E-03 0. -1.
    9900012    2    1    2    0    0  0.38774800966E+00  0.16438815680E+02  0.37185760083E+02  0.50528858809E+02  0.29999996835E+02 0.  0.
         12    1    1    2    0    0 -0.38774800966E+00 -0.16438815680E+02 -0.37185760083E+02  0.40659141191E+02  0.00000000000E+00 0. -1.
         11    1    3    3    0    0 -0.49548192876E+01  0.41358219069E+01  0.19663230151E+01  0.67469758765E+01  0.51100000000E-03 0. -1.
        -11    1    3    3    0    0  0.69136006652E+01 -0.19265357527E+01  0.25468831995E+02  0.26460741063E+02  0.51100000000E-03 0.  1.
        -12    1    3    3    0    0 -0.15710333680E+01  0.14229529526E+02  0.97506050729E+01  0.17321141869E+02  0.00000000000E+00 0.  1.
</event>
<event>
 7    1  0.2973028E-011  0.5052886E+02  0.7816164E-02  0.1300439E+00
        -11   -1    0    0    0    0  0.00000000000E+00  0.00000000000E+00  0.45593999997E+02  0.45594000000E+02  0.51100000000E-03 0.  1.
         11   -1    0    0    0    0 -0.00000000000E+00 -0.00000000000E+00 -0.45593999997E+02  0.45594000000E+02  0.51100000000E-03 0. -1.
    9900012    2    1    2    0    0 -0.38843812205E+02 -0.10592815462E+02  0.56671080773E+01  0.50528860806E+02  0.30000002906E+02 0.  0.
         12    1    1    2    0    0  0.38843812205E+02  0.10592815462E+02 -0.56671080773E+01  0.40659139194E+02  0.00000000000E+00 0. -1.
         11    1    3    3    0    0 -0.17536620170E+02  0.70947181078E+01  0.89098703715E+01  0.20910616020E+02  0.51100000000E-03 0. -1.
        -11    1    3    3    0    0 -0.18878294460E+02 -0.11288141816E+02 -0.49884542291E+01  0.22554308307E+02  0.51100000000E-03 0.  1.
         12    1    3    3    0    0 -0.24288975750E+01 -0.63993917536E+01  0.17456919350E+01  0.70639364789E+01  0.00000000000E+00 0. -1.
</event>
<event>
 7    1  0.2973028E-011  0.5052886E+02  0.7816164E-02  0.1300439E+00
        -11   -1    0    0    0    0  0.00000000000E+00  0.00000000000E+00  0.45593999997E+02  0.45594000000E+02  0.51100000000E-03 0. -1.
         11   -1    0    0    0    0 -0.00000000000E+00 -0.00000000000E+00 -0.45593999997E+02  0.45594000000E+02  0.51100000000E-03 0.  1.
    9900012    2    1    2    0    0 -0.31900410485E+02  0.24345904642E+02  0.65426371359E+01  0.50528863724E+02  0.30000011777E+02 0.  0.
         12    1    1    2    0    0  0.31900410485E+02 -0.24345904642E+02 -0.65426371359E+01  0.40659136276E+02  0.00000000000E+00 0. -1.
         11    1    3    3    0    0 -0.49121901046E+01  0.16003650455E+01  0.95754388313E+01  0.10880248571E+02  0.51100000000E-03 0. -1.
        -11    1    3    3    0    0 -0.15848482187E+02  0.75561805854E+01 -0.92081742386E+01  0.19825759146E+02  0.51100000000E-03 0.  1.
         12    1    3    3    0    0 -0.11139738194E+02  0.15189359011E+02  0.61753725432E+01  0.19822856007E+02  0.00000000000E+00 0. -1.
</event>
<event>
 7    1  0.2973028E-011  0.5052885E+02  0.7816164E-02  0.1300439E+00
        -11   -1    0    0    0    0  0.00000000000E+00  0.00000000000E+00  0.45593999997E+02  0.45594000000E+02  0.51100000000E-03 0. -1.
         11   -1    0    0    0    0 -0.00000000000E+00 -0.00000000000E+00 -0.45593999997E+02  0.45594000000E+02  0.51100000000E-03 0.  1.
    9900012    2    1    2    0    0  0.32684561077E+02  0.12679410663E+02 -0.20594141463E+02  0.50528847891E+02  0.29999963651E+02 0.  0.
         12    1    1    2    0    0 -0.32684561077E+02 -0.12679410663E+02  0.20594141463E+02  0.40659152109E+02  0.00000000000E+00 0. -1.
         11    1    3    3    0    0  0.11473721110E+02  0.13522045167E+00 -0.97724343924E+00  0.11516056864E+02  0.51100000000E-03 0. -1.
        -11    1    3    3    0    0  0.29776171616E+01  0.14329209198E+02 -0.12871044714E+02  0.19489900782E+02  0.51100000000E-03 0.  1.
        -12    1    3    3    0    0  0.18233222806E+02 -0.17850189874E+01 -0.67458533105E+01  0.19522890246E+02  0.00000000000E+00 0.  1.
</event>
<event>
 7    1  0.2973028E-011  0.5052886E+02  0.7816164E-02  0.1300439E+00
        -11   -1    0    0    0    0  0.00000000000E+00  0.00000000000E+00  0.45593999997E+02  0.45594000000E+02  0.51100000000E-03 0. -1.
         11   -1    0    0    0    0 -0.00000000000E+00 -0.00000000000E+00 -0.45593999997E+02  0.45594000000E+02  0.51100000000E-03 0.  1.
    9900012    2    1    2    0    0 -0.22376297178E+02  0.76647613071E+01 -0.33071417553E+02  0.50528857114E+02  0.29999991684E+02 0.  0.
         12    1    1    2    0    0  0.22376297178E+02 -0.76647613071E+01  0.33071417553E+02  0.40659142886E+02  0.00000000000E+00 0. -1.
         11    1    3    3    0    0 -0.22883442878E+02  0.61696633819E+01 -0.28158956694E+02  0.36805482561E+02  0.51100000000E-03 0.  1.
        -11    1    3    3    0    0 -0.99181738204E+00  0.58167023735E+01  0.12669953759E+01  0.60351475346E+01  0.51100000000E-03 0. -1.
         12    1    3    3    0    0  0.14989630823E+01 -0.43216044483E+01 -0.61794562344E+01  0.76882270181E+01  0.00000000000E+00 0. -1.
</event>
<event>
 7    1  0.2973028E-011  0.5052884E+02  0.7816164E-02  0.1300439E+00
        -11   -1    0    0    0    0  0.00000000000E+00  0.00000000000E+00  0.45593999997E+02  0.45594000000E+02  0.51100000000E-03 0. -1.
         11   -1    0    0    0    0 -0.00000000000E+00 -0.00000000000E+00 -0.45593999997E+02  0.45594000000E+02  0.51100000000E-03 0.  1.
    9900012    2    1    2    0    0  0.39663852612E+02  0.44418963350E+01  0.77598772292E+01  0.50528839388E+02  0.29999937804E+02 0.  0.
         12    1    1    2    0    0 -0.39663852612E+02 -0.44418963350E+01 -0.77598772292E+01  0.40659160612E+02  0.00000000000E+00 0. -1.
         11    1    3    3    0    0  0.12594078067E+02 -0.12541324742E+01  0.10862186343E+02  0.16678451458E+02  0.51100000000E-03 0. -1.
        -11    1    3    3    0    0  0.29506789961E+02  0.65181673298E+01 -0.54447382348E+00  0.30223064225E+02  0.51100000000E-03 0.  1.
        -12    1    3    3    0    0 -0.24370154166E+01 -0.82213852055E+00 -0.25578352906E+01  0.36273237051E+01  0.00000000000E+00 0.  1.
</event>
<event>
 7    1  0.2973028E-011  0.5052887E+02  0.7816164E-02  0.1300439E+00
        -11   -1    0    0    0    0  0.00000000000E+00  0.00000000000E+00  0.45593999997E+02  0.45594000000E+02  0.51100000000E-03 0.  1.
         11   -1    0    0    0    0 -0.00000000000E+00 -0.00000000000E+00 -0.45593999997E+02  0.45594000000E+02  0.51100000000E-03 0. -1.
    9900012    2    1    2    0    0 -0.13833150495E+02 -0.27758528942E+02  0.26292075609E+02  0.50528865461E+02  0.30000017055E+02 0.  0.
         12    1    1    2    0    0  0.13833150495E+02  0.27758528942E+02 -0.26292075609E+02  0.40659134539E+02  0.00000000000E+00 0. -1.
         11    1    3    3    0    0 -0.89710259518E+00 -0.48178167108E+01 -0.20832016454E+01  0.53250239700E+01  0.51100000000E-03 0. -1.
        -11    1    3    3    0    0 -0.13049051664E+02 -0.88235564792E+00  0.11748600050E+02  0.17580839122E+02  0.51100000000E-03 0.  1.
        -12    1    3    3    0    0  0.11300376454E+00 -0.22058356584E+02  0.16626677204E+02  0.27623002369E+02  0.00000000000E+00 0.  1.
</event>
<event>
 7    1  0.2973028E-011  0.5052885E+02  0.7816164E-02  0.1300439E+00
        -11   -1    0    0    0    0  0.00000000000E+00  0.00000000000E+00  0.45593999997E+02  0.45594000000E+02  0.51100000000E-03 0.  1.
         11   -1    0    0    0    0 -0.00000000000E+00 -0.00000000000E+00 -0.45593999997E+02  0.45594000000E+02  0.51100000000E-03 0. -1.
    9900012    2    1    2    0    0 -0.18504315300E+02 -0.26747706743E+02  0.24399119011E+02  0.50528849624E+02  0.29999968918E+02 0.  0.
         12    1    1    2    0    0  0.18504315300E+02  0.26747706743E+02 -0.24399119011E+02  0.40659150376E+02  0.00000000000E+00 0. -1.
         11    1    3    3    0    0  0.27131458120E+01  0.26166687431E+01  0.39536016655E+00  0.37900429326E+01  0.51100000000E-03 0. -1.
        -11    1    3    3    0    0 -0.11115694453E+02 -0.11802164923E+02  0.20567633770E+02  0.26189259616E+02  0.51100000000E-03 0.  1.
         12    1    3    3    0    0 -0.10101766659E+02 -0.17562210564E+02  0.34361250742E+01  0.20549547076E+02  0.00000000000E+00 0. -1.
</event>
<event>
 7    1  0.2973028E-011  0.5052883E+02  0.7816164E-02  0.1300439E+00
        -11   -1    0    0    0    0  0.00000000000E+00  0.00000000000E+00  0.45593999997E+02  0.45594000000E+02  0.51100000000E-03 0. -1.
         11   -1    0    0    0    0 -0.00000000000E+00 -0.00000000000E+00 -0.45593999997E+02  0.45594000000E+02  0.51100000000E-03 0.  1.
    9900012    2    1    2    0    0 -0.23800802570E+02  0.32939038921E+02 -0.13073765529E+01  0.50528834718E+02  0.29999923608E+02 0.  0.
         12    1    1    2    0    0  0.23800802570E+02 -0.32939038921E+02  0.13073765529E+01  0.40659165282E+02  0.00000000000E+00 0. -1.
         11    1    3    3    0    0  0.27593515550E+01  0.14225968098E+02  0.51397644326E+01  0.15375609516E+02  0.51100000000E-03 0. -1.
        -11    1    3    3    0    0 -0.14696964544E+02  0.16305717553E+02 -0.12723779832E+01  0.21988545603E+02  0.51100000000E-03 0.  1.
         12    1    3    3    0    0 -0.11863189581E+02  0.24073532704E+01 -0.51747630023E+01  0.13164679599E+02  0.00000000000E+00 0. -1.
</event>
<event>
 7    1  0.2973028E-011  0.5052884E+02  0.7816164E-02  0.1300439E+00
        -11   -1    0    0    0    0  0.00000000000E+00  0.00000000000E+00  0.45593999997E+02  0.45594000000E+02  0.51100000000E-03 0.  1.
         11   -1    0    0    0    0 -0.00000000000E+00 -0.00000000000E+00 -0.45593999997E+02  0.45594000000E+02  0.51100000000E-03 0. -1.
    9900012    2    1    2    0    0  0.90282973212E+01 -0.87277557801E+01  0.38671479453E+02  0.50528841172E+02  0.29999943226E+02 0.  0.
         12    1    1    2    0    0 -0.90282973212E+01  0.87277557801E+01 -0.38671479453E+02  0.40659158828E+02  0.00000000000E+00 0. -1.
         11    1    3    3    0    0  0.29977786511E+01 -0.32506124609E+01  0.22097668968E+01  0.49433013474E+01  0.51100000000E-03 0. -1.
        -11    1    3    3    0    0 -0.50883457388E+01  0.78177158560E+00  0.31463793637E+02  0.31882169617E+02  0.51100000000E-03 0.  1.
        -12    1    3    3    0    0  0.11118864409E+02 -0.62589149048E+01  0.49979189197E+01  0.13703370208E+02  0.00000000000E+00 0.  1.
</event>
<event>
 7    1  0.2973028E-011  0.5052886E+02  0.7816164E-02  0.1300439E+00
        -11   -1    0    0    0    0  0.00000000000E+00  0.00000000000E+00  0.45593999997E+02  0.45594000000E+02  0.51100000000E-03 0. -1.
         11   -1    0    0    0    0 -0.00000000000E+00 -0.00000000000E+00 -0.45593999997E+02  0.45594000000E+02  0.51100000000E-03 0.  1.
    9900012    2    1    2    0    0 -0.37377973050E+02 -0.30533681265E+01 -0.15707628119E+02  0.50528861945E+02  0.30000006367E+02 0.  0.
         12    1    1    2    0    0  0.37377973050E+02  0.30533681265E+01  0.15707628119E+02  0.40659138055E+02  0.00000000000E+00 0. -1.
         11    1    3    3    0    0  0.35682820596E+01 -0.41098024635E+01 -0.61613178670E+01  0.82210067063E+01  0.51100000000E-03 0. -1.
        -11    1    3    3    0    0 -0.32332716296E+02 -0.90511286920E+00 -0.67541644830E+01  0.33043040273E+02  0.51100000000E-03 0.  1.
         12    1    3    3    0    0 -0.86135388140E+01  0.19615472062E+01 -0.27921457693E+01  0.92648149652E+01  0.00000000000E+00 0. -1.
</event>
<event>
 7    1  0.2973028E-011  0.5052886E+02  0.7816164E-02  0.1300439E+00
        -11   -1    0    0    0    0  0.00000000000E+00  0.00000000000E+00  0.45593999997E+02  0.45594000000E+02  0.51100000000E-03 0. -1.
         11   -1    0    0    0    0 -0.00000000000E+00 -0.00000000000E+00 -0.45593999997E+02  0.45594000000E+02  0.51100000000E-03 0.  1.
    9900012    2    1    2    0    0  0.26830836049E+02  0.22946090503E+02 -0.20168014080E+02  0.50528860506E+02  0.30000001993E+02 0.  0.
         12    1    1    2    0    0 -0.26830836049E+02 -0.22946090503E+02  0.20168014080E+02  0.40659139494E+02  0.00000000000E+00 0. -1.
         11    1    3    3    0    0  0.28299951015E+02  0.86475785049E+01 -0.80549177572E+01  0.30668380163E+02  0.51100000000E-03 0.  1.
        -11    1    3    3    0    0  0.80876976706E+00  0.13030734891E+02 -0.93284660626E+01  0.16046010086E+02  0.51100000000E-03 0. -1.
        -12    1    3    3    0    0 -0.22778847332E+01  0.12677771071E+01 -0.27846302605E+01  0.38144702567E+01  0.00000000000E+00 0.  1.
</event>
<event>
 7    1  0.2973028E-011  0.5052886E+02  0.7816164E-02  0.1300439E+00
        -11   -1    0    0    0    0  0.00000000000E+00  0.00000000000E+00  0.45593999997E+02  0.45594000000E+02  0.51100000000E-03 0. -1.
         11   -1    0    0    0    0 -0.00000000000E+00 -0.00000000000E+00 -0.45593999997E+02  0.45594000000E+02  0.51100000000E-03 0.  1.
    9900012    2    1    2    0    0  0.73487101147E+00 -0.37945612033E+02  0.14586174570E+02  0.50528855930E+02  0.29999988084E+02 0.  0.
         12    1    1    2    0    0 -0.73487101147E+00  0.37945612033E+02 -0.14586174570E+02  0.40659144070E+02  0.00000000000E+00 0. -1.
         11    1    3    3    0    0 -0.87735378798E+01 -0.11841714385E+02  0.71653003108E+01  0.16387272357E+02  0.51100000000E-03 0. -1.
        -11    1    3    3    0    0  0.12317961450E+02 -0.91989579146E+01  0.72653287942E+01  0.17004058449E+02  0.51100000000E-03 0.  1.
        -12    1    3    3    0    0 -0.28095525584E+01 -0.16904939733E+02  0.15554546499E+00  0.17137525123E+02  0.00000000000E+00 0.  1.
</event>
<event>
 7    1  0.2973028E-011  0.5052886E+02  0.7816164E-02  0.1300439E+00
        -11   -1    0    0    0    0  0.00000000000E+00  0.00000000000E+00  0.45593999997E+02  0.45594000000E+02  0.51100000000E-03 0. -1.
         11   -1    0    0    0    0 -0.00000000000E+00 -0.00000000000E+00 -0.45593999997E+02  0.45594000000E+02  0.51100000000E-03 0.  1.
    9900012    2    1    2    0    0 -0.28668940098E+02  0.26423956835E+02  0.11533960479E+02  0.50528857541E+02  0.29999992981E+02 0.  0.
         12    1    1    2    0    0  0.28668940098E+02 -0.26423956835E+02 -0.11533960479E+02  0.40659142459E+02  0.00000000000E+00 0. -1.
         11    1    3    3    0    0 -0.50153044006E+01  0.75637582501E+01  0.94251057935E+01  0.13084201794E+02  0.51100000000E-03 0. -1.
        -11    1    3    3    0    0 -0.14329313980E+02  0.16734244642E+02 -0.80842963154E+01  0.23467424870E+02  0.51100000000E-03 0.  1.
        -12    1    3    3    0    0 -0.93243217174E+01  0.21259539434E+01  0.10193151001E+02  0.13977230877E+02  0.00000000000E+00 0.  1.
</event>
<event>
 7    1  0.2973028E-011  0.5052886E+02  0.7816164E-02  0.1300439E+00
        -11   -1    0    0    0    0  0.00000000000E+00  0.00000000000E+00  0.45593999997E+02  0.45594000000E+02  0.51100000000E-03 0.  1.
         11   -1    0    0    0    0 -0.00000000000E+00 -0.00000000000E+00 -0.45593999997E+02  0.45594000000E+02  0.51100000000E-03 0. -1.
    9900012    2    1    2    0    0 -0.32487397381E+02  0.74226085595E+01  0.23294620189E+02  0.50528862820E+02  0.30000009029E+02 0.  0.
         12    1    1    2    0    0  0.32487397381E+02 -0.74226085595E+01 -0.23294620189E+02  0.40659137180E+02  0.00000000000E+00 0. -1.
         11    1    3    3    0    0 -0.14428076534E+02 -0.10589209966E+02  0.11309844583E+02  0.21171049689E+02  0.51100000000E-03 0. -1.
        -11    1    3    3    0    0 -0.19558310791E+01  0.43140029693E+01  0.54694437787E+01  0.72353792118E+01  0.51100000000E-03 0.  1.
         12    1    3    3    0    0 -0.16103489768E+02  0.13697815556E+02  0.65153318274E+01  0.22122433920E+02  0.00000000000E+00 0. -1.
</event>
<event>
 7    1  0.2973028E-011  0.5052885E+02  0.7816164E-02  0.1300439E+00
        -11   -1    0    0    0    0  0.00000000000E+00  0.00000000000E+00  0.45593999997E+02  0.45594000000E+02  0.51100000000E-03 0.  1.
         11   -1    0    0    0    0 -0.00000000000E+00 -0.00000000000E+00 -0.45593999997E+02  0.45594000000E+02  0.51100000000E-03 0. -1.
    9900012    2    1    2    0    0  0.13373997849E+02  0.28350960252E+02  0.25894505412E+02  0.50528853720E+02  0.29999981368E+02 0.  0.
         12    1    1    2    0    0 -0.13373997849E+02 -0.28350960252E+02 -0.25894505412E+02  0.40659146280E+02  0.00000000000E+00 0. -1.
         11    1    3    3    0    0  0.44441517885E+01  0.79375532727E+01 -0.21337000257E+01  0.93438703510E+01  0.51100000000E-03 0. -1.
        -11    1    3    3    0    0  0.49055019539E+01  0.15749463387E+02  0.30397463283E+02  0.34584900183E+02  0.51100000000E-03 0.  1.
        -12    1    3    3    0    0  0.40243441067E+01  0.46639435926E+01 -0.23692578454E+01  0.66000831860E+01  0.00000000000E+00 0.  1.
</event>
<event>
 7    1  0.2973028E-011  0.5052889E+02  0.7816164E-02  0.1300439E+00
        -11   -1    0    0    0    0  0.00000000000E+00  0.00000000000E+00  0.45593999997E+02  0.45594000000E+02  0.51100000000E-03 0. -1.
         11   -1    0    0    0    0 -0.00000000000E+00 -0.00000000000E+00 -0.45593999997E+02  0.45594000000E+02  0.51100000000E-03 0.  1.
    9900012    2    1    2    0    0  0.37818645097E+02 -0.12007467885E+02 -0.88732055138E+01  0.50528893048E+02  0.30000100910E+02 0.  0.
         12    1    1    2    0    0 -0.37818645097E+02  0.12007467885E+02  0.88732055138E+01  0.40659106952E+02  0.00000000000E+00 0. -1.
         11    1    3    3    0    0 -0.12077519015E+01  0.26870891832E+00  0.75340848809E+00  0.14486178756E+01  0.51100000000E-03 0. -1.
        -11    1    3    3    0    0  0.31209409020E+02 -0.20056056319E+02 -0.73778877120E+01  0.37824672289E+02  0.51100000000E-03 0.  1.
        -12    1    3    3    0    0  0.78169879789E+01  0.77798795157E+01 -0.22487262899E+01  0.11255602883E+02  0.00000000000E+00 0.  1.
</event>
<event>
 7    1  0.2973028E-011  0.5052887E+02  0.7816164E-02  0.1300439E+00
        -11   -1    0    0    0    0  0.00000000000E+00  0.00000000000E+00  0.45593999997E+02  0.45594000000E+02  0.51100000000E-03 0.  1.
         11   -1    0    0    0    0 -0.00000000000E+00 -0.00000000000E+00 -0.45593999997E+02  0.45594000000E+02  0.51100000000E-03 0. -1.
    9900012    2    1    2    0    0 -0.67909705741E+01 -0.11087992495E+02  0.38524071090E+02  0.50528869264E+02  0.30000028614E+02 0.  0.
         12    1    1    2    0    0  0.67909705741E+01  0.11087992495E+02 -0.38524071090E+02  0.40659130736E+02  0.00000000000E+00 0. -1.
         11    1    3    3    0    0  0.48096997990E+01 -0.34872117658E+01  0.17127895104E+02  0.18128945060E+02  0.51100000000E-03 0. -1.
        -11    1    3    3    0    0 -0.16506241508E+02 -0.70512858550E+01  0.20726711637E+02  0.27418483117E+02  0.51100000000E-03 0.  1.
        -12    1    3    3    0    0  0.49055711350E+01 -0.54949487434E+00  0.66946434954E+00  0.49814410859E+01  0.00000000000E+00 0.  1.
</event>
<event>
 7    1  0.2973028E-011  0.5052888E+02  0.7816164E-02  0.1300439E+00
        -11   -1    0    0    0    0  0.00000000000E+00  0.00000000000E+00  0.45593999997E+02  0.45594000000E+02  0.51100000000E-03 0.  1.
         11   -1    0    0    0    0 -0.00000000000E+00 -0.00000000000E+00 -0.45593999997E+02  0.45594000000E+02  0.51100000000E-03 0. -1.
    9900012    2    1    2    0    0 -0.30761087300E+01 -0.31372759443E+02  0.25679796202E+02  0.50528875403E+02  0.30000047276E+02 0.  0.
         12    1    1    2    0    0  0.30761087300E+01  0.31372759443E+02 -0.25679796202E+02  0.40659124597E+02  0.00000000000E+00 0. -1.
         11    1    3    3    0    0 -0.78546116533E+01 -0.22786174415E+01  0.33432215190E+00  0.81852790564E+01  0.51100000000E-03 0. -1.
        -11    1    3    3    0    0 -0.16828269742E+01 -0.27084501223E+02  0.20814123913E+02  0.34199851866E+02  0.51100000000E-03 0.  1.
        -12    1    3    3    0    0  0.64613298975E+01 -0.20096407779E+01  0.45313501370E+01  0.81437444805E+01  0.00000000000E+00 0.  1.
</event>
<event>
 7    1  0.2973028E-011  0.5052888E+02  0.7816164E-02  0.1300439E+00
        -11   -1    0    0    0    0  0.00000000000E+00  0.00000000000E+00  0.45593999997E+02  0.45594000000E+02  0.51100000000E-03 0.  1.
         11   -1    0    0    0    0 -0.00000000000E+00 -0.00000000000E+00 -0.45593999997E+02  0.45594000000E+02  0.51100000000E-03 0. -1.
    9900012    2    1    2    0    0  0.11476384539E+02  0.67641649059E+01  0.38414878554E+02  0.50528877736E+02  0.30000054366E+02 0.  0.
         12    1    1    2    0    0 -0.11476384539E+02 -0.67641649059E+01 -0.38414878554E+02  0.40659122264E+02  0.00000000000E+00 0. -1.
         11    1    3    3    0    0  0.10743855700E+02 -0.74741776537E+00  0.49329394056E+01  0.11845799258E+02  0.51100000000E-03 0.  1.
        -11    1    3    3    0    0  0.29729789894E+00  0.62540036736E+01  0.35619246902E+02  0.36165338352E+02  0.51100000000E-03 0. -1.
         12    1    3    3    0    0  0.43523094050E+00  0.12575789976E+01 -0.21373077540E+01  0.25177401260E+01  0.00000000000E+00 0. -1.
</event>
<event>
 7    1  0.2973028E-011  0.5052886E+02  0.7816164E-02  0.1300439E+00
        -11   -1    0    0    0    0  0.00000000000E+00  0.00000000000E+00  0.45593999997E+02  0.45594000000E+02  0.51100000000E-03 0. -1.
         11   -1    0    0    0    0 -0.00000000000E+00 -0.00000000000E+00 -0.45593999997E+02  0.45594000000E+02  0.51100000000E-03 0.  1.
    9900012    2    1    2    0    0  0.22341091251E+02 -0.32462610246E+02 -0.10011014766E+02  0.50528857868E+02  0.29999993975E+02 0.  0.
         12    1    1    2    0    0 -0.22341091251E+02  0.32462610246E+02  0.10011014766E+02  0.40659142132E+02  0.00000000000E+00 0. -1.
         11    1    3    3    0    0  0.22834502132E+01  0.40879232811E+01 -0.35887746076E+01  0.58995393950E+01  0.51100000000E-03 0. -1.
        -11    1    3    3    0    0  0.14499243752E+02 -0.11823806267E+02 -0.42996998152E+01  0.19196819600E+02  0.51100000000E-03 0.  1.
         12    1    3    3    0    0  0.55583972860E+01 -0.24726727260E+02 -0.21225403436E+01  0.25432498873E+02  0.00000000000E+00 0. -1.
</event>
<event>
 7    1  0.2973028E-011  0.5052887E+02  0.7816164E-02  0.1300439E+00
        -11   -1    0    0    0    0  0.00000000000E+00  0.00000000000E+00  0.45593999997E+02  0.45594000000E+02  0.51100000000E-03 0. -1.
         11   -1    0    0    0    0 -0.00000000000E+00 -0.00000000000E+00 -0.45593999997E+02  0.45594000000E+02  0.51100000000E-03 0.  1.
    9900012    2    1    2    0    0  0.36091594131E+02 -0.18541438481E+02  0.26031551457E+01  0.50528874031E+02  0.30000043105E+02 0.  0.
         12    1    1    2    0    0 -0.36091594131E+02  0.18541438481E+02 -0.26031551457E+01  0.40659125969E+02  0.00000000000E+00 0. -1.
         11    1    3    3    0    0 -0.24612625653E+01 -0.47718747977E+01 -0.62230782454E+01  0.82192034656E+01  0.51100000000E-03 0. -1.
        -11    1    3    3    0    0  0.43994116590E+01 -0.22240437010E+01 -0.80094221047E+00  0.49942669147E+01  0.51100000000E-03 0.  1.
         12    1    3    3    0    0  0.34153445037E+02 -0.11545519982E+02  0.96271756016E+01  0.37315403651E+02  0.00000000000E+00 0. -1.
</event>
<event>
 7    1  0.2973028E-011  0.5052887E+02  0.7816164E-02  0.1300439E+00
        -11   -1    0    0    0    0  0.00000000000E+00  0.00000000000E+00  0.45593999997E+02  0.45594000000E+02  0.51100000000E-03 0. -1.
         11   -1    0    0    0    0 -0.00000000000E+00 -0.00000000000E+00 -0.45593999997E+02  0.45594000000E+02  0.51100000000E-03 0.  1.
    9900012    2    1    2    0    0  0.51296365421E+01 -0.28401981188E+02 -0.28638770548E+02  0.50528869599E+02  0.30000029633E+02 0.  0.
         12    1    1    2    0    0 -0.51296365421E+01  0.28401981188E+02  0.28638770548E+02  0.40659130401E+02  0.00000000000E+00 0. -1.
         11    1    3    3    0    0  0.15738889526E+02 -0.19607600539E+02 -0.20126794411E+02  0.32206497729E+02  0.51100000000E-03 0. -1.
        -11    1    3    3    0    0 -0.69506687999E+01 -0.10063997348E+02 -0.73915271181E+01  0.14290924140E+02  0.51100000000E-03 0.  1.
         12    1    3    3    0    0 -0.36585841840E+01  0.12696166994E+01 -0.11204490186E+01  0.40314477297E+01  0.00000000000E+00 0. -1.
</event>
<event>
 7    1  0.2973028E-011  0.5052887E+02  0.7816164E-02  0.1300439E+00
        -11   -1    0    0    0    0  0.00000000000E+00  0.00000000000E+00  0.45593999997E+02  0.45594000000E+02  0.51100000000E-03 0.  1.
         11   -1    0    0    0    0 -0.00000000000E+00 -0.00000000000E+00 -0.45593999997E+02  0.45594000000E+02  0.51100000000E-03 0. -1.
    9900012    2    1    2    0    0 -0.77313662696E+01 -0.24113744607E+02  0.31810654984E+02  0.50528874654E+02  0.30000044998E+02 0.  0.
         12    1    1    2    0    0  0.77313662696E+01  0.24113744607E+02 -0.31810654984E+02  0.40659125346E+02  0.00000000000E+00 0. -1.
         11    1    3    3    0    0 -0.10166795334E+02 -0.13007581883E+01  0.13252530358E+01  0.10334988877E+02  0.51100000000E-03 0. -1.
        -11    1    3    3    0    0 -0.75966222004E+00 -0.22244846100E+01  0.12349817645E+02  0.12571531912E+02  0.51100000000E-03 0.  1.
         12    1    3    3    0    0  0.31950912841E+01 -0.20588501809E+02  0.18135584303E+02  0.27622353865E+02  0.00000000000E+00 0. -1.
</event>
<event>
 7    1  0.2973028E-011  0.5052886E+02  0.7816164E-02  0.1300439E+00
        -11   -1    0    0    0    0  0.00000000000E+00  0.00000000000E+00  0.45593999997E+02  0.45594000000E+02  0.51100000000E-03 0.  1.
         11   -1    0    0    0    0 -0.00000000000E+00 -0.00000000000E+00 -0.45593999997E+02  0.45594000000E+02  0.51100000000E-03 0. -1.
    9900012    2    1    2    0    0  0.91660357030E+01 -0.36984366453E+02  0.14188236452E+02  0.50528860486E+02  0.30000001932E+02 0.  0.
         12    1    1    2    0    0 -0.91660357030E+01  0.36984366453E+02 -0.14188236452E+02  0.40659139514E+02  0.00000000000E+00 0. -1.
         11    1    3    3    0    0  0.10495050618E+01 -0.43929797372E+01 -0.65632843552E+01  0.79672099028E+01  0.51100000000E-03 0. -1.
        -11    1    3    3    0    0  0.66101355438E+01 -0.28645561819E+02  0.10069620061E+02  0.31075059972E+02  0.51100000000E-03 0.  1.
         12    1    3    3    0    0  0.15063950974E+01 -0.39458248970E+01  0.10681900747E+02  0.11486590611E+02  0.00000000000E+00 0. -1.
</event>
<event>
 7    1  0.2973028E-011  0.5052886E+02  0.7816164E-02  0.1300439E+00
        -11   -1    0    0    0    0  0.00000000000E+00  0.00000000000E+00  0.45593999997E+02  0.45594000000E+02  0.51100000000E-03 0.  1.
         11   -1    0    0    0    0 -0.00000000000E+00 -0.00000000000E+00 -0.45593999997E+02  0.45594000000E+02  0.51100000000E-03 0. -1.
    9900012    2    1    2    0    0 -0.34491582994E+02  0.14218341182E+02 -0.16165870838E+02  0.50528857075E+02  0.29999991566E+02 0.  0.
         12    1    1    2    0    0  0.34491582994E+02 -0.14218341182E+02  0.16165870838E+02  0.40659142925E+02  0.00000000000E+00 0. -1.
         11    1    3    3    0    0  0.97896556440E+00  0.12790622100E+01  0.44699970587E+01  0.47513416715E+01  0.51100000000E-03 0. -1.
        -11    1    3    3    0    0 -0.13958995584E+02  0.13220090122E+02 -0.79667973965E+01  0.20810915442E+02  0.51100000000E-03 0.  1.
         12    1    3    3    0    0 -0.21511552975E+02 -0.28081114998E+00 -0.12669070500E+02  0.24966599962E+02  0.00000000000E+00 0. -1.
</event>
<event>
 7    1  0.2973028E-011  0.5052886E+02  0.7816164E-02  0.1300439E+00
        -11   -1    0    0    0    0  0.00000000000E+00  0.00000000000E+00  0.45593999997E+02  0.45594000000E+02  0.51100000000E-03 0.  1.
         11   -1    0    0    0    0 -0.00000000000E+00 -0.00000000000E+00 -0.45593999997E+02  0.45594000000E+02  0.51100000000E-03 0. -1.
    9900012    2    1    2    0    0 -0.98397122288E+01 -0.10444888704E+02  0.38042738641E+02  0.50528860804E+02  0.30000002901E+02 0.  0.
         12    1    1    2    0    0  0.98397122288E+01  0.10444888704E+02 -0.38042738641E+02  0.40659139196E+02  0.00000000000E+00 0. -1.
         11    1    3    3    0    0  0.57723086391E+01 -0.24700642327E+01  0.16560633942E+00  0.62807794150E+01  0.51100000000E-03 0.  1.
        -11    1    3    3    0    0 -0.13205878470E+02  0.55010158035E+00  0.16733193343E+02  0.21323639408E+02  0.51100000000E-03 0. -1.
        -12    1    3    3    0    0 -0.24061423982E+01 -0.85249260522E+01  0.21143938959E+02  0.22924441981E+02  0.00000000000E+00 0.  1.
</event>
<event>
 7    1  0.2973028E-011  0.5052887E+02  0.7816164E-02  0.1300439E+00
        -11   -1    0    0    0    0  0.00000000000E+00  0.00000000000E+00  0.45593999997E+02  0.45594000000E+02  0.51100000000E-03 0. -1.
         11   -1    0    0    0    0 -0.00000000000E+00 -0.00000000000E+00 -0.45593999997E+02  0.45594000000E+02  0.51100000000E-03 0.  1.
    9900012    2    1    2    0    0 -0.22645970366E+02  0.23947793243E+02 -0.23808154741E+02  0.50528868096E+02  0.30000025065E+02 0.  0.
         12    1    1    2    0    0  0.22645970366E+02 -0.23947793243E+02  0.23808154741E+02  0.40659131904E+02  0.00000000000E+00 0. -1.
         11    1    3    3    0    0 -0.28700205288E+00 -0.18905706392E+01  0.98046442363E+00  0.21489388701E+01  0.51100000000E-03 0. -1.
        -11    1    3    3    0    0 -0.21180904959E+02  0.21896517423E+02 -0.29304454345E+02  0.42271021456E+02  0.51100000000E-03 0.  1.
        -12    1    3    3    0    0 -0.11780633536E+01  0.39418464586E+01  0.45158351807E+01  0.61089077704E+01  0.00000000000E+00 0.  1.
</event>
<event>
 7    1  0.2973028E-011  0.5052886E+02  0.7816164E-02  0.1300439E+00
        -11   -1    0    0    0    0  0.00000000000E+00  0.00000000000E+00  0.45593999997E+02  0.45594000000E+02  0.51100000000E-03 0.  1.
         11   -1    0    0    0    0 -0.00000000000E+00 -0.00000000000E+00 -0.45593999997E+02  0.45594000000E+02  0.51100000000E-03 0. -1.
    9900012    2    1    2    0    0 -0.45868700396E+01 -0.29834729222E+01  0.40289269660E+02  0.50528859119E+02  0.29999997778E+02 0.  0.
         12    1    1    2    0    0  0.45868700396E+01  0.29834729222E+01 -0.40289269660E+02  0.40659140881E+02  0.00000000000E+00 0. -1.
         11    1    3    3    0    0 -0.93830487418E+01  0.29549814441E+01  0.85748091942E+01  0.13049937624E+02  0.51100000000E-03 0. -1.
        -11    1    3    3    0    0  0.11012048461E+02 -0.17548938046E+01  0.11963401225E+02  0.16354443821E+02  0.51100000000E-03 0.  1.
        -12    1    3    3    0    0 -0.62158697589E+01 -0.41835605617E+01  0.19751059241E+02  0.21124477673E+02  0.00000000000E+00 0.  1.
</event>
<event>
 7    1  0.2973028E-011  0.5052891E+02  0.7816164E-02  0.1300439E+00
        -11   -1    0    0    0    0  0.00000000000E+00  0.00000000000E+00  0.45593999997E+02  0.45594000000E+02  0.51100000000E-03 0. -1.
         11   -1    0    0    0    0 -0.00000000000E+00 -0.00000000000E+00 -0.45593999997E+02  0.45594000000E+02  0.51100000000E-03 0.  1.
    9900012    2    1    2    0    0  0.24076816788E+02  0.30612664372E+02 -0.11676188382E+02  0.50528908745E+02  0.30000148619E+02 0.  0.
         12    1    1    2    0    0 -0.24076816788E+02 -0.30612664372E+02  0.11676188382E+02  0.40659091255E+02  0.00000000000E+00 0. -1.
         11    1    3    3    0    0  0.12557002137E+02  0.12336954389E+02  0.83712420417E+01  0.19492471364E+02  0.51100000000E-03 0. -1.
        -11    1    3    3    0    0  0.94009403757E+01  0.60496108154E+01 -0.10966641976E+02  0.15660226929E+02  0.51100000000E-03 0.  1.
         12    1    3    3    0    0  0.21188742748E+01  0.12226099167E+02 -0.90807884477E+01  0.15376210452E+02  0.00000000000E+00 0. -1.
</event>
<event>
 7    1  0.2973028E-011  0.5052886E+02  0.7816164E-02  0.1300439E+00
        -11   -1    0    0    0    0  0.00000000000E+00  0.00000000000E+00  0.45593999997E+02  0.45594000000E+02  0.51100000000E-03 0. -1.
         11   -1    0    0    0    0 -0.00000000000E+00 -0.00000000000E+00 -0.45593999997E+02  0.45594000000E+02  0.51100000000E-03 0.  1.
    9900012    2    1    2    0    0  0.32061289338E+02 -0.22862886214E+02 -0.10125598292E+02  0.50528861042E+02  0.30000003623E+02 0.  0.
         12    1    1    2    0    0 -0.32061289338E+02  0.22862886214E+02  0.10125598292E+02  0.40659138958E+02  0.00000000000E+00 0. -1.
         11    1    3    3    0    0 -0.25068775755E+01 -0.12972689900E+01  0.36171562726E+01  0.45881545062E+01  0.51100000000E-03 0. -1.
        -11    1    3    3    0    0  0.19804792693E+02 -0.54617125897E+01 -0.12522148954E+02  0.24059599596E+02  0.51100000000E-03 0.  1.
        -12    1    3    3    0    0  0.14763374220E+02 -0.16103904634E+02 -0.12206056103E+01  0.21881106939E+02  0.00000000000E+00 0.  1.
</event>
<event>
 7    1  0.3794981E-011  0.5052886E+02  0.7816164E-02  0.1300439E+00
        -11   -1    0    0    0    0  0.00000000000E+00  0.00000000000E+00  0.45593999997E+02  0.45594000000E+02  0.51100000000E-03 0. -1.
         11   -1    0    0    0    0 -0.00000000000E+00 -0.00000000000E+00 -0.45593999997E+02  0.45594000000E+02  0.51100000000E-03 0.  1.
    9900012    2    1    2    0    0 -0.28309356562E+02  0.22586434898E+02 -0.18482390478E+02  0.50528862427E+02  0.30000007834E+02 0.  0.
         12    1    1    2    0    0  0.28309356562E+02 -0.22586434898E+02  0.18482390478E+02  0.40659137573E+02  0.00000000000E+00 0. -1.
         11    1    3    3    0    0 -0.42010370956E+01 -0.30182192655E+01  0.32385203125E+01  0.61029807708E+01  0.51100000000E-03 0. -1.
        -11    1    3    3    0    0 -0.14806733087E+02  0.13924329779E+02 -0.21366917742E+02  0.29490192922E+02  0.51100000000E-03 0.  1.
        -12    1    3    3    0    0 -0.93015863791E+01  0.11680324384E+02 -0.35399304900E+00  0.14935688734E+02  0.00000000000E+00 0.  1.
</event>
<event>
 7    1  0.2973028E-011  0.5052887E+02  0.7816164E-02  0.1300439E+00
        -11   -1    0    0    0    0  0.00000000000E+00  0.00000000000E+00  0.45593999997E+02  0.45594000000E+02  0.51100000000E-03 0.  1.
         11   -1    0    0    0    0 -0.00000000000E+00 -0.00000000000E+00 -0.45593999997E+02  0.45594000000E+02  0.51100000000E-03 0. -1.
    9900012    2    1    2    0    0 -0.86070507633E+00 -0.26312536504E+02  0.30985072837E+02  0.50528866596E+02  0.30000020504E+02 0.  0.
         12    1    1    2    0    0  0.86070507633E+00  0.26312536504E+02 -0.30985072837E+02  0.40659133404E+02  0.00000000000E+00 0. -1.
         11    1    3    3    0    0 -0.36161610281E+00 -0.20823598582E+00 -0.11018277364E+01  0.11781990720E+01  0.51100000000E-03 0. -1.
        -11    1    3    3    0    0 -0.15845473123E+01 -0.94117569860E+01 -0.33895701763E+01  0.10128235088E+02  0.51100000000E-03 0.  1.
        -12    1    3    3    0    0  0.10854583388E+01 -0.16692543532E+02  0.35476470750E+02  0.39222432436E+02  0.00000000000E+00 0.  1.
</event>
<event>
 7    1  0.2973028E-011  0.5052885E+02  0.7816164E-02  0.1300439E+00
        -11   -1    0    0    0    0  0.00000000000E+00  0.00000000000E+00  0.45593999997E+02  0.45594000000E+02  0.51100000000E-03 0.  1.
         11   -1    0    0    0    0 -0.00000000000E+00 -0.00000000000E+00 -0.45593999997E+02  0.45594000000E+02  0.51100000000E-03 0. -1.
    9900012    2    1    2    0    0 -0.22441562256E+02 -0.12717128463E+02  0.31429557057E+02  0.50528854293E+02  0.29999983109E+02 0.  0.
         12    1    1    2    0    0  0.22441562256E+02  0.12717128463E+02 -0.31429557057E+02  0.40659145707E+02  0.00000000000E+00 0. -1.
         11    1    3    3    0    0 -0.44343042797E+01  0.86514959327E+00  0.54089407070E+01  0.70475654020E+01  0.51100000000E-03 0. -1.
        -11    1    3    3    0    0 -0.16965490744E+02 -0.11915859722E+02  0.31471763797E+02  0.37686701976E+02  0.51100000000E-03 0.  1.
        -12    1    3    3    0    0 -0.10417672319E+01 -0.16664183337E+01 -0.54511474464E+01  0.57945869146E+01  0.00000000000E+00 0.  1.
</event>
<event>
 7    1  0.2973028E-011  0.5052887E+02  0.7816164E-02  0.1300439E+00
        -11   -1    0    0    0    0  0.00000000000E+00  0.00000000000E+00  0.45593999997E+02  0.45594000000E+02  0.51100000000E-03 0. -1.
         11   -1    0    0    0    0 -0.00000000000E+00 -0.00000000000E+00 -0.45593999997E+02  0.45594000000E+02  0.51100000000E-03 0.  1.
    9900012    2    1    2    0    0  0.37397974623E+02  0.13168773062E+02 -0.90077736221E+01  0.50528867256E+02  0.30000022512E+02 0.  0.
         12    1    1    2    0    0 -0.37397974623E+02 -0.13168773062E+02  0.90077736221E+01  0.40659132744E+02  0.00000000000E+00 0. -1.
         11    1    3    3    0    0  0.17724019625E+02  0.15459291055E+02 -0.97704791337E+01  0.25467485434E+02  0.51100000000E-03 0. -1.
        -11    1    3    3    0    0  0.22271510398E+02 -0.14524819592E+01  0.76656553085E+00  0.22331983840E+02  0.51100000000E-03 0.  1.
         12    1    3    3    0    0 -0.25975553996E+01 -0.83803603332E+00 -0.38600192584E-02  0.27293979825E+01  0.00000000000E+00 0. -1.
</event>
<event>
 7    1  0.2973028E-011  0.5052885E+02  0.7816164E-02  0.1300439E+00
        -11   -1    0    0    0    0  0.00000000000E+00  0.00000000000E+00  0.45593999997E+02  0.45594000000E+02  0.51100000000E-03 0. -1.
         11   -1    0    0    0    0 -0.00000000000E+00 -0.00000000000E+00 -0.45593999997E+02  0.45594000000E+02  0.51100000000E-03 0.  1.
    9900012    2    1    2    0    0  0.34724750587E+02 -0.20276872462E+02 -0.60172210376E+01  0.50528845937E+02  0.29999957709E+02 0.  0.
         12    1    1    2    0    0 -0.34724750587E+02  0.20276872462E+02  0.60172210376E+01  0.40659154063E+02  0.00000000000E+00 0. -1.
         11    1    3    3    0    0  0.15226154242E+02 -0.49627969275E+01  0.10355245831E+02  0.19070821766E+02  0.51100000000E-03 0. -1.
        -11    1    3    3    0    0  0.12137483660E+02 -0.12083945644E+02 -0.56053279581E+01  0.18021097461E+02  0.51100000000E-03 0.  1.
         12    1    3    3    0    0  0.73611126855E+01 -0.32301298896E+01 -0.10767138911E+02  0.13436926710E+02  0.00000000000E+00 0. -1.
</event>
<event>
 7    1  0.2973028E-011  0.5052885E+02  0.7816164E-02  0.1300439E+00
        -11   -1    0    0    0    0  0.00000000000E+00  0.00000000000E+00  0.45593999997E+02  0.45594000000E+02  0.51100000000E-03 0.  1.
         11   -1    0    0    0    0 -0.00000000000E+00 -0.00000000000E+00 -0.45593999997E+02  0.45594000000E+02  0.51100000000E-03 0. -1.
    9900012    2    1    2    0    0  0.83219180221E+01  0.33104479648E+02  0.22090844359E+02  0.50528852237E+02  0.29999976859E+02 0.  0.
         12    1    1    2    0    0 -0.83219180221E+01 -0.33104479648E+02 -0.22090844359E+02  0.40659147763E+02  0.00000000000E+00 0. -1.
         11    1    3    3    0    0 -0.62113488579E+01  0.12573957675E+02 -0.56551538558E+00  0.14035849606E+02  0.51100000000E-03 0. -1.
        -11    1    3    3    0    0  0.13232813931E+02  0.12216944748E+02  0.82511293686E+01  0.19810154962E+02  0.51100000000E-03 0.  1.
        -12    1    3    3    0    0  0.13004529489E+01  0.83135772254E+01  0.14405230376E+02  0.16682847668E+02  0.00000000000E+00 0.  1.
</event>
<event>
 7    1  0.2973028E-011  0.5052882E+02  0.7816164E-02  0.1300439E+00
        -11   -1    0    0    0    0  0.00000000000E+00  0.00000000000E+00  0.45593999997E+02  0.45594000000E+02  0.51100000000E-03 0.  1.
         11   -1    0    0    0    0 -0.00000000000E+00 -0.00000000000E+00 -0.45593999997E+02  0.45594000000E+02  0.51100000000E-03 0. -1.
    9900012    2    1    2    0    0  0.23226489683E+02 -0.27872045608E+02  0.18353421060E+02  0.50528821283E+02  0.29999882771E+02 0.  0.
         12    1    1    2    0    0 -0.23226489683E+02  0.27872045608E+02 -0.18353421060E+02  0.40659178717E+02  0.00000000000E+00 0. -1.
         11    1    3    3    0    0  0.55340434070E+01  0.44483991373E+01 -0.63601885475E+00  0.71287033576E+01  0.51100000000E-03 0. -1.
        -11    1    3    3    0    0  0.13540329927E+02 -0.15638425145E+02  0.15524773228E+02  0.25863477330E+02  0.51100000000E-03 0.  1.
         12    1    3    3    0    0  0.41521163493E+01 -0.16682019600E+02  0.34646666859E+01  0.17536640595E+02  0.00000000000E+00 0. -1.
</event>
<event>
 7    1  0.2973028E-011  0.5052886E+02  0.7816164E-02  0.1300439E+00
        -11   -1    0    0    0    0  0.00000000000E+00  0.00000000000E+00  0.45593999997E+02  0.45594000000E+02  0.51100000000E-03 0. -1.
         11   -1    0    0    0    0 -0.00000000000E+00 -0.00000000000E+00 -0.45593999997E+02  0.45594000000E+02  0.51100000000E-03 0.  1.
    9900012    2    1    2    0    0  0.23947633500E+02 -0.24288281538E+02 -0.22130429040E+02  0.50528860071E+02  0.30000000670E+02 0.  0.
         12    1    1    2    0    0 -0.23947633500E+02  0.24288281538E+02  0.22130429040E+02  0.40659139929E+02  0.00000000000E+00 0. -1.
         11    1    3    3    0    0  0.99187470162E+01 -0.20287865574E+02 -0.21748552342E+02  0.31352488915E+02  0.51100000000E-03 0.  1.
        -11    1    3    3    0    0  0.76526051631E+01 -0.68289366553E+01  0.39210248929E+01  0.10980490795E+02  0.51100000000E-03 0. -1.
        -12    1    3    3    0    0  0.63762813209E+01  0.28285206919E+01 -0.43029015907E+01  0.81958803607E+01  0.00000000000E+00 0.  1.
</event>
<event>
 7    1  0.2973028E-011  0.5052885E+02  0.7816164E-02  0.1300439E+00
        -11   -1    0    0    0    0  0.00000000000E+00  0.00000000000E+00  0.45593999997E+02  0.45594000000E+02  0.51100000000E-03 0. -1.
         11   -1    0    0    0    0 -0.00000000000E+00 -0.00000000000E+00 -0.45593999997E+02  0.45594000000E+02  0.51100000000E-03 0.  1.
    9900012    2    1    2    0    0 -0.10552100803E+02  0.25286427497E+02 -0.30040238668E+02  0.50528853598E+02  0.29999980996E+02 0.  0.
         12    1    1    2    0    0  0.10552100803E+02 -0.25286427497E+02  0.30040238668E+02  0.40659146402E+02  0.00000000000E+00 0. -1.
         11    1    3    3    0    0  0.46482810866E+00  0.52534792389E+01 -0.25517161779E+01  0.58588706248E+01  0.51100000000E-03 0. -1.
        -11    1    3    3    0    0 -0.17594541444E+02  0.13690016141E+02 -0.89898347779E+01  0.24037503201E+02  0.51100000000E-03 0.  1.
        -12    1    3    3    0    0  0.65776125321E+01  0.63429321171E+01 -0.18498687712E+02  0.20632479772E+02  0.00000000000E+00 0.  1.
</event>
<event>
 7    1  0.2973028E-011  0.5052886E+02  0.7816164E-02  0.1300439E+00
        -11   -1    0    0    0    0  0.00000000000E+00  0.00000000000E+00  0.45593999997E+02  0.45594000000E+02  0.51100000000E-03 0.  1.
         11   -1    0    0    0    0 -0.00000000000E+00 -0.00000000000E+00 -0.45593999997E+02  0.45594000000E+02  0.51100000000E-03 0. -1.
    9900012    2    1    2    0    0 -0.18471917301E+01 -0.24442710011E+02  0.32439291003E+02  0.50528858460E+02  0.29999995775E+02 0.  0.
         12    1    1    2    0    0  0.18471917301E+01  0.24442710011E+02 -0.32439291003E+02  0.40659141540E+02  0.00000000000E+00 0. -1.
         11    1    3    3    0    0  0.12481030922E+01 -0.24170836593E+01 -0.36945161167E+01  0.45879738821E+01  0.51100000000E-03 0. -1.
        -11    1    3    3    0    0 -0.77443605786E+01 -0.22102842818E+02  0.27391155957E+02  0.36038676534E+02  0.51100000000E-03 0.  1.
        -12    1    3    3    0    0  0.46490657563E+01  0.77216466227E-01  0.87426511632E+01  0.99022080442E+01  0.00000000000E+00 0.  1.
</event>
<event>
 7    1  0.2973028E-011  0.5052884E+02  0.7816164E-02  0.1300439E+00
        -11   -1    0    0    0    0  0.00000000000E+00  0.00000000000E+00  0.45593999997E+02  0.45594000000E+02  0.51100000000E-03 0. -1.
         11   -1    0    0    0    0 -0.00000000000E+00 -0.00000000000E+00 -0.45593999997E+02  0.45594000000E+02  0.51100000000E-03 0.  1.
    9900012    2    1    2    0    0 -0.95953011522E+01  0.36680503709E+02 -0.14684626434E+02  0.50528838547E+02  0.29999935247E+02 0.  0.
         12    1    1    2    0    0  0.95953011522E+01 -0.36680503709E+02  0.14684626434E+02  0.40659161453E+02  0.00000000000E+00 0. -1.
         11    1    3    3    0    0  0.21986697620E+01  0.22641666966E+02 -0.50957071390E+01  0.23311916764E+02  0.51100000000E-03 0. -1.
        -11    1    3    3    0    0 -0.15375948926E+02  0.96237099494E+01 -0.11186465334E+02  0.21311325756E+02  0.51100000000E-03 0.  1.
         12    1    3    3    0    0  0.35819780116E+01  0.44151267941E+01  0.15975460389E+01  0.59055960266E+01  0.00000000000E+00 0. -1.
</event>
<event>
 7    1  0.2973028E-011  0.5052885E+02  0.7816164E-02  0.1300439E+00
        -11   -1    0    0    0    0  0.00000000000E+00  0.00000000000E+00  0.45593999997E+02  0.45594000000E+02  0.51100000000E-03 0. -1.
         11   -1    0    0    0    0 -0.00000000000E+00 -0.00000000000E+00 -0.45593999997E+02  0.45594000000E+02  0.51100000000E-03 0.  1.
    9900012    2    1    2    0    0 -0.30769383179E+02  0.15162509921E+02 -0.21829096293E+02  0.50528854740E+02  0.29999984467E+02 0.  0.
         12    1    1    2    0    0  0.30769383179E+02 -0.15162509921E+02  0.21829096293E+02  0.40659145260E+02  0.00000000000E+00 0. -1.
         11    1    3    3    0    0 -0.73028880748E+01 -0.22802646347E+01  0.24814557573E+01  0.80429723345E+01  0.51100000000E-03 0. -1.
        -11    1    3    3    0    0 -0.24876255295E+02  0.18721304772E+02 -0.25498079779E+02  0.40242606806E+02  0.51100000000E-03 0.  1.
        -12    1    3    3    0    0  0.14097601906E+01 -0.12785302158E+01  0.11875277288E+01  0.22432755993E+01  0.00000000000E+00 0.  1.
</event>
<event>
 7    1  0.2973028E-011  0.5052886E+02  0.7816164E-02  0.1300439E+00
        -11   -1    0    0    0    0  0.00000000000E+00  0.00000000000E+00  0.45593999997E+02  0.45594000000E+02  0.51100000000E-03 0.  1.
         11   -1    0    0    0    0 -0.00000000000E+00 -0.00000000000E+00 -0.45593999997E+02  0.45594000000E+02  0.51100000000E-03 0. -1.
    9900012    2    1    2    0    0  0.23362887713E+02  0.19663623148E+01  0.33218585760E+02  0.50528861507E+02  0.30000005038E+02 0.  0.
         12    1    1    2    0    0 -0.23362887713E+02 -0.19663623148E+01 -0.33218585760E+02  0.40659138493E+02  0.00000000000E+00 0. -1.
         11    1    3    3    0    0 -0.60660832901E+01 -0.26003155107E+00  0.55084709384E+01  0.81980628950E+01  0.51100000000E-03 0. -1.
        -11    1    3    3    0    0  0.20641440935E+02  0.60916374671E+01  0.14302450073E+02  0.25840611626E+02  0.51100000000E-03 0.  1.
         12    1    3    3    0    0  0.87875300690E+01 -0.38652436012E+01  0.13407664749E+02  0.16490186986E+02  0.00000000000E+00 0. -1.
</event>
<event>
 7    1  0.2973028E-011  0.5052886E+02  0.7816164E-02  0.1300439E+00
        -11   -1    0    0    0    0  0.00000000000E+00  0.00000000000E+00  0.45593999997E+02  0.45594000000E+02  0.51100000000E-03 0.  1.
         11   -1    0    0    0    0 -0.00000000000E+00 -0.00000000000E+00 -0.45593999997E+02  0.45594000000E+02  0.51100000000E-03 0. -1.
    9900012    2    1    2    0    0  0.20221881119E+02 -0.32127508821E+02  0.14562427362E+02  0.50528860933E+02  0.30000003292E+02 0.  0.
         12    1    1    2    0    0 -0.20221881119E+02  0.32127508821E+02 -0.14562427362E+02  0.40659139067E+02  0.00000000000E+00 0. -1.
         11    1    3    3    0    0  0.11235456526E+02 -0.15176342591E+02 -0.81425936916E+01  0.20563528152E+02  0.51100000000E-03 0. -1.
        -11    1    3    3    0    0  0.73457108989E+01 -0.10348866820E+02  0.13630993541E+02  0.18624244904E+02  0.51100000000E-03 0.  1.
         12    1    3    3    0    0  0.16407136932E+01 -0.66022994104E+01  0.90740275127E+01  0.11341087877E+02  0.00000000000E+00 0. -1.
</event>
<event>
 7    1  0.2973028E-011  0.5052887E+02  0.7816164E-02  0.1300439E+00
        -11   -1    0    0    0    0  0.00000000000E+00  0.00000000000E+00  0.45593999997E+02  0.45594000000E+02  0.51100000000E-03 0.  1.
         11   -1    0    0    0    0 -0.00000000000E+00 -0.00000000000E+00 -0.45593999997E+02  0.45594000000E+02  0.51100000000E-03 0. -1.
    9900012    2    1    2    0    0 -0.75715821546E+00 -0.38060031673E+02 -0.14283762724E+02  0.50528866007E+02  0.30000018716E+02 0.  0.
         12    1    1    2    0    0  0.75715821546E+00  0.38060031673E+02  0.14283762724E+02  0.40659133993E+02  0.00000000000E+00 0. -1.
         11    1    3    3    0    0 -0.36085569710E+01  0.26696102896E+01  0.19383195128E+01  0.48893338305E+01  0.51100000000E-03 0. -1.
        -11    1    3    3    0    0  0.74986494700E+01 -0.21544358692E+02 -0.10305392740E+02  0.25031784897E+02  0.51100000000E-03 0.  1.
         12    1    3    3    0    0 -0.46472507145E+01 -0.19185283270E+02 -0.59166894972E+01  0.20607747280E+02  0.00000000000E+00 0. -1.
</event>
<event>
 7    1  0.2973028E-011  0.5052886E+02  0.7816164E-02  0.1300439E+00
        -11   -1    0    0    0    0  0.00000000000E+00  0.00000000000E+00  0.45593999997E+02  0.45594000000E+02  0.51100000000E-03 0. -1.
         11   -1    0    0    0    0 -0.00000000000E+00 -0.00000000000E+00 -0.45593999997E+02  0.45594000000E+02  0.51100000000E-03 0.  1.
    9900012    2    1    2    0    0 -0.39711861580E+02  0.30394766204E+01 -0.81789778490E+01  0.50528855310E+02  0.29999986201E+02 0.  0.
         12    1    1    2    0    0  0.39711861580E+02 -0.30394766204E+01  0.81789778490E+01  0.40659144690E+02  0.00000000000E+00 0. -1.
         11    1    3    3    0    0 -0.12237444591E+02 -0.59568059244E+01  0.74280726301E+01  0.15505316836E+02  0.51100000000E-03 0. -1.
        -11    1    3    3    0    0 -0.19609725894E+01  0.47249486487E+01 -0.47092063057E+01  0.69532134671E+01  0.51100000000E-03 0.  1.
         12    1    3    3    0    0 -0.25513444399E+02  0.42713338962E+01 -0.10897844173E+02  0.28070325007E+02  0.00000000000E+00 0. -1.
</event>
<event>
 7    1  0.2973028E-011  0.5052885E+02  0.7816164E-02  0.1300439E+00
        -11   -1    0    0    0    0  0.00000000000E+00  0.00000000000E+00  0.45593999997E+02  0.45594000000E+02  0.51100000000E-03 0. -1.
         11   -1    0    0    0    0 -0.00000000000E+00 -0.00000000000E+00 -0.45593999997E+02  0.45594000000E+02  0.51100000000E-03 0.  1.
    9900012    2    1    2    0    0  0.35391543428E+02 -0.51920618561E+01 -0.19329965443E+02  0.50528850765E+02  0.29999972384E+02 0.  0.
         12    1    1    2    0    0 -0.35391543428E+02  0.51920618561E+01  0.19329965443E+02  0.40659149235E+02  0.00000000000E+00 0. -1.
         11    1    3    3    0    0  0.12595957333E+02 -0.71309190325E+01 -0.10782455062E+02  0.18049085429E+02  0.51100000000E-03 0. -1.
        -11    1    3    3    0    0  0.11226820970E+02 -0.55555556318E+01  0.46835235126E+01  0.13373148479E+02  0.51100000000E-03 0.  1.
        -12    1    3    3    0    0  0.11568765125E+02  0.74944128082E+01 -0.13231033893E+02  0.19106616857E+02  0.00000000000E+00 0.  1.
</event>
<event>
 7    1  0.2973028E-011  0.5052886E+02  0.7816164E-02  0.1300439E+00
        -11   -1    0    0    0    0  0.00000000000E+00  0.00000000000E+00  0.45593999997E+02  0.45594000000E+02  0.51100000000E-03 0.  1.
         11   -1    0    0    0    0 -0.00000000000E+00 -0.00000000000E+00 -0.45593999997E+02  0.45594000000E+02  0.51100000000E-03 0. -1.
    9900012    2    1    2    0    0  0.40251247067E+02  0.13212154395E+01  0.55908251493E+01  0.50528858020E+02  0.29999994437E+02 0.  0.
         12    1    1    2    0    0 -0.40251247067E+02 -0.13212154395E+01 -0.55908251493E+01  0.40659141980E+02  0.00000000000E+00 0. -1.
         11    1    3    3    0    0  0.20670905061E+02  0.81537384565E+01 -0.64930206832E+01  0.23150142218E+02  0.51100000000E-03 0. -1.
        -11    1    3    3    0    0  0.21416450529E+02 -0.52537936594E+01  0.11573302941E+02  0.24903976435E+02  0.51100000000E-03 0.  1.
         12    1    3    3    0    0 -0.18361085224E+01 -0.15787293575E+01  0.51054289191E+00  0.24747393670E+01  0.00000000000E+00 0. -1.
</event>
<event>
 7    1  0.2973028E-011  0.5052887E+02  0.7816164E-02  0.1300439E+00
        -11   -1    0    0    0    0  0.00000000000E+00  0.00000000000E+00  0.45593999997E+02  0.45594000000E+02  0.51100000000E-03 0.  1.
         11   -1    0    0    0    0 -0.00000000000E+00 -0.00000000000E+00 -0.45593999997E+02  0.45594000000E+02  0.51100000000E-03 0. -1.
    9900012    2    1    2    0    0  0.30225887210E+02  0.27043214115E+02  0.28679955255E+01  0.50528867132E+02  0.30000022133E+02 0.  0.
         12    1    1    2    0    0 -0.30225887210E+02 -0.27043214115E+02 -0.28679955255E+01  0.40659132868E+02  0.00000000000E+00 0. -1.
         11    1    3    3    0    0  0.29145815486E+02  0.19833328263E+02 -0.53075824297E+01  0.35651225812E+02  0.51100000000E-03 0. -1.
        -11    1    3    3    0    0  0.11187509826E+01  0.67768625527E+01  0.18071088309E+00  0.68709625602E+01  0.51100000000E-03 0.  1.
         12    1    3    3    0    0 -0.38679259112E-01  0.43302329894E+00  0.79948670721E+01  0.80066787599E+01  0.00000000000E+00 0. -1.
</event>
<event>
 7    1  0.2973028E-011  0.5052885E+02  0.7816164E-02  0.1300439E+00
        -11   -1    0    0    0    0  0.00000000000E+00  0.00000000000E+00  0.45593999997E+02  0.45594000000E+02  0.51100000000E-03 0.  1.
         11   -1    0    0    0    0 -0.00000000000E+00 -0.00000000000E+00 -0.45593999997E+02  0.45594000000E+02  0.51100000000E-03 0. -1.
    9900012    2    1    2    0    0 -0.15036170066E+02  0.23580166677E+02  0.29513647730E+02  0.50528854988E+02  0.29999985223E+02 0.  0.
         12    1    1    2    0    0  0.15036170066E+02 -0.23580166677E+02 -0.29513647730E+02  0.40659145012E+02  0.00000000000E+00 0. -1.
         11    1    3    3    0    0 -0.41608733566E+01 -0.54448874975E+01  0.35352488757E+01  0.77108787971E+01  0.51100000000E-03 0. -1.
        -11    1    3    3    0    0 -0.16231490286E+01  0.16351477487E+02  0.20331317824E+02  0.26141306652E+02  0.51100000000E-03 0.  1.
         12    1    3    3    0    0 -0.92521476806E+01  0.12673576687E+02  0.56470810304E+01  0.16676669539E+02  0.00000000000E+00 0. -1.
</event>
<event>
 7    1  0.2973028E-011  0.5052887E+02  0.7816164E-02  0.1300439E+00
        -11   -1    0    0    0    0  0.00000000000E+00  0.00000000000E+00  0.45593999997E+02  0.45594000000E+02  0.51100000000E-03 0.  1.
         11   -1    0    0    0    0 -0.00000000000E+00 -0.00000000000E+00 -0.45593999997E+02  0.45594000000E+02  0.51100000000E-03 0. -1.
    9900012    2    1    2    0    0 -0.21640034022E+02  0.13682239872E+02  0.31585921789E+02  0.50528865532E+02  0.30000017272E+02 0.  0.
         12    1    1    2    0    0  0.21640034022E+02 -0.13682239872E+02 -0.31585921789E+02  0.40659134468E+02  0.00000000000E+00 0. -1.
         11    1    3    3    0    0  0.30925728307E+01 -0.11913165648E+01  0.47753427939E+01  0.58126707227E+01  0.51100000000E-03 0. -1.
        -11    1    3    3    0    0 -0.27981566400E+02  0.15074296812E+02  0.21121765305E+02  0.38161911017E+02  0.51100000000E-03 0.  1.
        -12    1    3    3    0    0  0.32489595470E+01 -0.20074037560E+00  0.56888136901E+01  0.65542837929E+01  0.00000000000E+00 0.  1.
</event>
<event>
 7    1  0.2973028E-011  0.5052878E+02  0.7816164E-02  0.1300439E+00
        -11   -1    0    0    0    0  0.00000000000E+00  0.00000000000E+00  0.45593999997E+02  0.45594000000E+02  0.51100000000E-03 0.  1.
         11   -1    0    0    0    0 -0.00000000000E+00 -0.00000000000E+00 -0.45593999997E+02  0.45594000000E+02  0.51100000000E-03 0. -1.
    9900012    2    1    2    0    0 -0.42628709024E+01 -0.33408799494E+02  0.22778321718E+02  0.50528783428E+02  0.29999767708E+02 0.  0.
         12    1    1    2    0    0  0.42628709024E+01  0.33408799494E+02 -0.22778321718E+02  0.40659216572E+02  0.00000000000E+00 0. -1.
         11    1    3    3    0    0 -0.40025812395E+01  0.18160832775E+01  0.74927695006E+01  0.86867951570E+01  0.51100000000E-03 0.  1.
        -11    1    3    3    0    0 -0.53478156368E+01 -0.32676012823E+02  0.14300891700E+02  0.36067110360E+02  0.51100000000E-03 0. -1.
         12    1    3    3    0    0  0.50875259739E+01 -0.25488699488E+01  0.98466051668E+00  0.57748779108E+01  0.00000000000E+00 0. -1.
</event>
<event>
 7    1  0.2973028E-011  0.5052886E+02  0.7816164E-02  0.1300439E+00
        -11   -1    0    0    0    0  0.00000000000E+00  0.00000000000E+00  0.45593999997E+02  0.45594000000E+02  0.51100000000E-03 0. -1.
         11   -1    0    0    0    0 -0.00000000000E+00 -0.00000000000E+00 -0.45593999997E+02  0.45594000000E+02  0.51100000000E-03 0.  1.
    9900012    2    1    2    0    0 -0.27046480219E+01  0.12281276940E+02 -0.38665503575E+02  0.50528855261E+02  0.29999986052E+02 0.  0.
         12    1    1    2    0    0  0.27046480219E+01 -0.12281276940E+02  0.38665503575E+02  0.40659144739E+02  0.00000000000E+00 0. -1.
         11    1    3    3    0    0  0.32682869213E+01  0.85815342874E+01 -0.15231442988E+01  0.93082973170E+01  0.51100000000E-03 0. -1.
        -11    1    3    3    0    0 -0.36477669501E+00  0.92294504010E+01 -0.25869034907E+02  0.27468578122E+02  0.51100000000E-03 0.  1.
         12    1    3    3    0    0 -0.56081582482E+01 -0.55297077484E+01 -0.11273324369E+02  0.13751979823E+02  0.00000000000E+00 0. -1.
</event>
<event>
 7    1  0.2973028E-011  0.5052886E+02  0.7816164E-02  0.1300439E+00
        -11   -1    0    0    0    0  0.00000000000E+00  0.00000000000E+00  0.45593999997E+02  0.45594000000E+02  0.51100000000E-03 0. -1.
         11   -1    0    0    0    0 -0.00000000000E+00 -0.00000000000E+00 -0.45593999997E+02  0.45594000000E+02  0.51100000000E-03 0.  1.
    9900012    2    1    2    0    0 -0.11108872270E+02 -0.16067495944E+02 -0.35659421296E+02  0.50528858393E+02  0.29999995571E+02 0.  0.
         12    1    1    2    0    0  0.11108872270E+02  0.16067495944E+02  0.35659421296E+02  0.40659141607E+02  0.00000000000E+00 0. -1.
         11    1    3    3    0    0 -0.58758765699E+01  0.30582550622E+01  0.23166259957E+01  0.70175213399E+01  0.51100000000E-03 0. -1.
        -11    1    3    3    0    0 -0.62485043141E+01 -0.17238264625E+02 -0.29217912339E+02  0.34494752864E+02  0.51100000000E-03 0.  1.
        -12    1    3    3    0    0  0.10155086136E+01 -0.18874863819E+01 -0.87581349528E+01  0.90165841891E+01  0.00000000000E+00 0.  1.
</event>
<event>
 7    1  0.2973028E-011  0.5052887E+02  0.7816164E-02  0.1300439E+00
        -11   -1    0    0    0    0  0.00000000000E+00  0.00000000000E+00  0.45593999997E+02  0.45594000000E+02  0.51100000000E-03 0. -1.
         11   -1    0    0    0    0 -0.00000000000E+00 -0.00000000000E+00 -0.45593999997E+02  0.45594000000E+02  0.51100000000E-03 0.  1.
    9900012    2    1    2    0    0  0.12667651919E+02  0.93920897633E+01 -0.37476449595E+02  0.50528867822E+02  0.30000024231E+02 0.  0.
         12    1    1    2    0    0 -0.12667651919E+02 -0.93920897633E+01  0.37476449595E+02  0.40659132178E+02  0.00000000000E+00 0. -1.
         11    1    3    3    0    0  0.44164926915E+01 -0.73154983276E+01 -0.95954131296E+01  0.12848886211E+02  0.51100000000E-03 0. -1.
        -11    1    3    3    0    0  0.13203820895E+02  0.15172698260E+02 -0.21202521479E+02  0.29224964945E+02  0.51100000000E-03 0.  1.
        -12    1    3    3    0    0 -0.49526616678E+01  0.15348898307E+01 -0.66785149863E+01  0.84550166653E+01  0.00000000000E+00 0.  1.
</event>
<event>
 7    1  0.2973028E-011  0.5052886E+02  0.7816164E-02  0.1300439E+00
        -11   -1    0    0    0    0  0.00000000000E+00  0.00000000000E+00  0.45593999997E+02  0.45594000000E+02  0.51100000000E-03 0.  1.
         11   -1    0    0    0    0 -0.00000000000E+00 -0.00000000000E+00 -0.45593999997E+02  0.45594000000E+02  0.51100000000E-03 0. -1.
    9900012    2    1    2    0    0 -0.25368438753E+01 -0.11632999499E+02  0.38876769894E+02  0.50528862139E+02  0.30000006959E+02 0.  0.
         12    1    1    2    0    0  0.25368438753E+01  0.11632999499E+02 -0.38876769894E+02  0.40659137861E+02  0.00000000000E+00 0. -1.
         11    1    3    3    0    0 -0.28508832486E+01  0.89181675427E+00  0.40291984007E+00  0.30141693846E+01  0.51100000000E-03 0. -1.
        -11    1    3    3    0    0  0.87237985333E+01 -0.15810838625E+02  0.19958785687E+02  0.26915430616E+02  0.51100000000E-03 0.  1.
        -12    1    3    3    0    0 -0.84097591600E+01  0.32860223718E+01  0.18515064367E+02  0.20599262139E+02  0.00000000000E+00 0.  1.
</event>
<event>
 7    1  0.2973028E-011  0.5052886E+02  0.7816164E-02  0.1300439E+00
        -11   -1    0    0    0    0  0.00000000000E+00  0.00000000000E+00  0.45593999997E+02  0.45594000000E+02  0.51100000000E-03 0.  1.
         11   -1    0    0    0    0 -0.00000000000E+00 -0.00000000000E+00 -0.45593999997E+02  0.45594000000E+02  0.51100000000E-03 0. -1.
    9900012    2    1    2    0    0  0.11645726120E+02  0.29519078102E+02  0.25419811354E+02  0.50528859353E+02  0.29999998490E+02 0.  0.
         12    1    1    2    0    0 -0.11645726120E+02 -0.29519078102E+02 -0.25419811354E+02  0.40659140647E+02  0.00000000000E+00 0. -1.
         11    1    3    3    0    0  0.88267692489E+01  0.34172824879E+02  0.23565709916E+02  0.42438620379E+02  0.51100000000E-03 0. -1.
        -11    1    3    3    0    0  0.33840236277E+01 -0.55307606446E+01  0.67980914483E+00  0.65194378558E+01  0.51100000000E-03 0.  1.
         12    1    3    3    0    0 -0.56506675672E+00  0.87701386811E+00  0.11742922926E+01  0.15708011182E+01  0.00000000000E+00 0. -1.
</event>
<event>
 7    1  0.2973028E-011  0.5052886E+02  0.7816164E-02  0.1300439E+00
        -11   -1    0    0    0    0  0.00000000000E+00  0.00000000000E+00  0.45593999997E+02  0.45594000000E+02  0.51100000000E-03 0. -1.
         11   -1    0    0    0    0 -0.00000000000E+00 -0.00000000000E+00 -0.45593999997E+02  0.45594000000E+02  0.51100000000E-03 0.  1.
    9900012    2    1    2    0    0  0.91248078591E+01 -0.13363997457E+02 -0.37300231316E+02  0.50528858313E+02  0.29999995329E+02 0.  0.
         12    1    1    2    0    0 -0.91248078591E+01  0.13363997457E+02  0.37300231316E+02  0.40659141687E+02  0.00000000000E+00 0. -1.
         11    1    3    3    0    0 -0.23996701192E+01 -0.92462993247E+01 -0.96278226965E-01  0.95531009437E+01  0.51100000000E-03 0. -1.
        -11    1    3    3    0    0  0.10009299122E+02 -0.63943187009E+00 -0.12714885375E+02  0.16194543908E+02  0.51100000000E-03 0.  1.
         12    1    3    3    0    0  0.15151788566E+01 -0.34782662625E+01 -0.24489067713E+02  0.24781213461E+02  0.00000000000E+00 0. -1.
</event>
<event>
 7    1  0.2973028E-011  0.5052886E+02  0.7816164E-02  0.1300439E+00
        -11   -1    0    0    0    0  0.00000000000E+00  0.00000000000E+00  0.45593999997E+02  0.45594000000E+02  0.51100000000E-03 0. -1.
         11   -1    0    0    0    0 -0.00000000000E+00 -0.00000000000E+00 -0.45593999997E+02  0.45594000000E+02  0.51100000000E-03 0.  1.
    9900012    2    1    2    0    0 -0.21281485633E+02 -0.93298933289E+00 -0.34632261879E+02  0.50528860034E+02  0.30000000561E+02 0.  0.
         12    1    1    2    0    0  0.21281485633E+02  0.93298933289E+00  0.34632261879E+02  0.40659139966E+02  0.00000000000E+00 0. -1.
         11    1    3    3    0    0  0.53729305147E+01  0.10137905711E+01 -0.13470139977E+02  0.14537565990E+02  0.51100000000E-03 0. -1.
        -11    1    3    3    0    0 -0.88629298019E+01 -0.47230160626E+01 -0.12426620594E+02  0.15977462409E+02  0.51100000000E-03 0.  1.
         12    1    3    3    0    0 -0.17791486346E+02  0.27762361586E+01 -0.87355013082E+01  0.20013831635E+02  0.00000000000E+00 0. -1.
</event>
<event>
 7    1  0.2973028E-011  0.5052889E+02  0.7816164E-02  0.1300439E+00
        -11   -1    0    0    0    0  0.00000000000E+00  0.00000000000E+00  0.45593999997E+02  0.45594000000E+02  0.51100000000E-03 0. -1.
         11   -1    0    0    0    0 -0.00000000000E+00 -0.00000000000E+00 -0.45593999997E+02  0.45594000000E+02  0.51100000000E-03 0.  1.
    9900012    2    1    2    0    0 -0.19857354522E+02 -0.87629705818E+01 -0.34381082126E+02  0.50528892900E+02  0.30000100459E+02 0.  0.
         12    1    1    2    0    0  0.19857354522E+02  0.87629705818E+01  0.34381082126E+02  0.40659107100E+02  0.00000000000E+00 0. -1.
         11    1    3    3    0    0  0.18636516117E+01 -0.13872301393E+01  0.14535418578E+01  0.27405088912E+01  0.51100000000E-03 0. -1.
        -11    1    3    3    0    0 -0.19550636134E+02 -0.27589952461E+01 -0.37534787579E+02  0.42411080001E+02  0.51100000000E-03 0.  1.
        -12    1    3    3    0    0 -0.21703699996E+01 -0.46167451964E+01  0.17001635951E+01  0.53773040079E+01  0.00000000000E+00 0.  1.
</event>
<event>
 7    1  0.2973028E-011  0.5052887E+02  0.7816164E-02  0.1300439E+00
        -11   -1    0    0    0    0  0.00000000000E+00  0.00000000000E+00  0.45593999997E+02  0.45594000000E+02  0.51100000000E-03 0.  1.
         11   -1    0    0    0    0 -0.00000000000E+00 -0.00000000000E+00 -0.45593999997E+02  0.45594000000E+02  0.51100000000E-03 0. -1.
    9900012    2    1    2    0    0  0.19943452947E+01 -0.37251002279E+02  0.16172520333E+02  0.50528868211E+02  0.30000025415E+02 0.  0.
         12    1    1    2    0    0 -0.19943452947E+01  0.37251002279E+02 -0.16172520333E+02  0.40659131789E+02  0.00000000000E+00 0. -1.
         11    1    3    3    0    0  0.91069470612E+01 -0.49344379598E+01 -0.20146684609E+01  0.10551969106E+02  0.51100000000E-03 0. -1.
        -11    1    3    3    0    0  0.23292170431E+00 -0.13012891839E+02  0.13590968754E+02  0.18817652310E+02  0.51100000000E-03 0.  1.
         12    1    3    3    0    0 -0.73455234709E+01 -0.19303672479E+02  0.45962200398E+01  0.21159246794E+02  0.00000000000E+00 0. -1.
</event>
<event>
 7    1  0.3113459E-011  0.5052886E+02  0.7816164E-02  0.1300439E+00
        -11   -1    0    0    0    0  0.00000000000E+00  0.00000000000E+00  0.45593999997E+02  0.45594000000E+02  0.51100000000E-03 0. -1.
         11   -1    0    0    0    0 -0.00000000000E+00 -0.00000000000E+00 -0.45593999997E+02  0.45594000000E+02  0.51100000000E-03 0.  1.
    9900012    2    1    2    0    0  0.36779981538E+02  0.11694894883E+02 -0.12791726310E+02  0.50528857483E+02  0.29999992805E+02 0.  0.
         12    1    1    2    0    0 -0.36779981538E+02 -0.11694894883E+02  0.12791726310E+02  0.40659142517E+02  0.00000000000E+00 0. -1.
         11    1    3    3    0    0  0.19990797806E+00  0.85187765784E+00  0.40781877539E+01  0.41710039991E+01  0.51100000000E-03 0. -1.
        -11    1    3    3    0    0  0.35136226095E+02  0.32063411971E+01 -0.12434111666E+02  0.37409118424E+02  0.51100000000E-03 0.  1.
        -12    1    3    3    0    0  0.14438474645E+01  0.76366760277E+01 -0.44358023979E+01  0.89487350596E+01  0.00000000000E+00 0.  1.
</event>
<event>
 7    1  0.2973028E-011  0.5052886E+02  0.7816164E-02  0.1300439E+00
        -11   -1    0    0    0    0  0.00000000000E+00  0.00000000000E+00  0.45593999997E+02  0.45594000000E+02  0.51100000000E-03 0.  1.
         11   -1    0    0    0    0 -0.00000000000E+00 -0.00000000000E+00 -0.45593999997E+02  0.45594000000E+02  0.51100000000E-03 0. -1.
    9900012    2    1    2    0    0  0.13805008830E+02 -0.21287777785E+02  0.31771340632E+02  0.50528857887E+02  0.29999994032E+02 0.  0.
         12    1    1    2    0    0 -0.13805008830E+02  0.21287777785E+02 -0.31771340632E+02  0.40659142113E+02  0.00000000000E+00 0. -1.
         11    1    3    3    0    0  0.28388980208E+01 -0.14852186429E+02  0.27973530590E+02  0.31798823840E+02  0.51100000000E-03 0.  1.
        -11    1    3    3    0    0  0.33068800774E+01 -0.87719264492E+01 -0.94692806335E+00  0.94222514558E+01  0.51100000000E-03 0. -1.
         12    1    3    3    0    0  0.76592307316E+01  0.23363350930E+01  0.47447381059E+01  0.93077825910E+01  0.00000000000E+00 0. -1.
</event>
<event>
 7    1  0.2973028E-011  0.5052890E+02  0.7816164E-02  0.1300439E+00
        -11   -1    0    0    0    0  0.00000000000E+00  0.00000000000E+00  0.45593999997E+02  0.45594000000E+02  0.51100000000E-03 0.  1.
         11   -1    0    0    0    0 -0.00000000000E+00 -0.00000000000E+00 -0.45593999997E+02  0.45594000000E+02  0.51100000000E-03 0. -1.
    9900012    2    1    2    0    0 -0.19614764654E+02 -0.32948015951E+02  0.13522251865E+02  0.50528904547E+02  0.30000135861E+02 0.  0.
         12    1    1    2    0    0  0.19614764654E+02  0.32948015951E+02 -0.13522251865E+02  0.40659095453E+02  0.00000000000E+00 0. -1.
         11    1    3    3    0    0 -0.97882559973E+01 -0.14966173307E+02  0.23313200983E+01  0.18034171802E+02  0.51100000000E-03 0. -1.
        -11    1    3    3    0    0 -0.92644132281E+01  0.28070584732E+01  0.28870789992E+01  0.10101690707E+02  0.51100000000E-03 0.  1.
        -12    1    3    3    0    0 -0.56209542880E+00 -0.20788901117E+02  0.83038527674E+01  0.22393042038E+02  0.00000000000E+00 0.  1.
</event>
<event>
 7    1  0.2973028E-011  0.5052887E+02  0.7816164E-02  0.1300439E+00
        -11   -1    0    0    0    0  0.00000000000E+00  0.00000000000E+00  0.45593999997E+02  0.45594000000E+02  0.51100000000E-03 0.  1.
         11   -1    0    0    0    0 -0.00000000000E+00 -0.00000000000E+00 -0.45593999997E+02  0.45594000000E+02  0.51100000000E-03 0. -1.
    9900012    2    1    2    0    0  0.25010508122E+01 -0.39581165616E+02 -0.89577332653E+01  0.50528869267E+02  0.30000028625E+02 0.  0.
         12    1    1    2    0    0 -0.25010508122E+01  0.39581165616E+02  0.89577332653E+01  0.40659130733E+02  0.00000000000E+00 0. -1.
         11    1    3    3    0    0  0.42403976347E+00  0.21292493240E+01  0.31112880060E+01  0.37938932144E+01  0.51100000000E-03 0. -1.
        -11    1    3    3    0    0 -0.12142930201E+01 -0.36667316608E+02 -0.43495085295E+01  0.36944347869E+02  0.51100000000E-03 0.  1.
        -12    1    3    3    0    0  0.32913040688E+01 -0.50430983318E+01 -0.77195127418E+01  0.97906281835E+01  0.00000000000E+00 0.  1.
</event>
<event>
 7    1  0.2973028E-011  0.5052886E+02  0.7816164E-02  0.1300439E+00
        -11   -1    0    0    0    0  0.00000000000E+00  0.00000000000E+00  0.45593999997E+02  0.45594000000E+02  0.51100000000E-03 0. -1.
         11   -1    0    0    0    0 -0.00000000000E+00 -0.00000000000E+00 -0.45593999997E+02  0.45594000000E+02  0.51100000000E-03 0.  1.
    9900012    2    1    2    0    0  0.29015600521E+02 -0.27921245602E+02  0.56271667100E+01  0.50528855460E+02  0.29999986655E+02 0.  0.
         12    1    1    2    0    0 -0.29015600521E+02  0.27921245602E+02 -0.56271667100E+01  0.40659144540E+02  0.00000000000E+00 0. -1.
         11    1    3    3    0    0  0.12314521131E+02 -0.10692779195E+02  0.12519679864E+02  0.20560285546E+02  0.51100000000E-03 0. -1.
        -11    1    3    3    0    0  0.20009633855E+02 -0.16024358574E+02 -0.63025654034E+01  0.26398633405E+02  0.51100000000E-03 0.  1.
        -12    1    3    3    0    0 -0.33085544651E+01 -0.12041078331E+01 -0.58994775046E+00  0.35699365079E+01  0.00000000000E+00 0.  1.
</event>
<event>
 7    1  0.2973028E-011  0.5052885E+02  0.7816164E-02  0.1300439E+00
        -11   -1    0    0    0    0  0.00000000000E+00  0.00000000000E+00  0.45593999997E+02  0.45594000000E+02  0.51100000000E-03 0.  1.
         11   -1    0    0    0    0 -0.00000000000E+00 -0.00000000000E+00 -0.45593999997E+02  0.45594000000E+02  0.51100000000E-03 0. -1.
    9900012    2    1    2    0    0  0.38498290846E+02 -0.60726879801E+01  0.11583191114E+02  0.50528852767E+02  0.29999978469E+02 0.  0.
         12    1    1    2    0    0 -0.38498290846E+02  0.60726879801E+01 -0.11583191114E+02  0.40659147233E+02  0.00000000000E+00 0. -1.
         11    1    3    3    0    0  0.36425154740E+02  0.38338604479E+00  0.76714470773E+01  0.37226200225E+02  0.51100000000E-03 0. -1.
        -11    1    3    3    0    0  0.55689420684E+01 -0.72144660300E+01  0.31704334367E+01  0.96495224906E+01  0.51100000000E-03 0.  1.
         12    1    3    3    0    0 -0.34958059625E+01  0.75839200509E+00  0.74131060032E+00  0.36531300506E+01  0.00000000000E+00 0. -1.
</event>
<event>
 7    1  0.2973028E-011  0.5052886E+02  0.7816164E-02  0.1300439E+00
        -11   -1    0    0    0    0  0.00000000000E+00  0.00000000000E+00  0.45593999997E+02  0.45594000000E+02  0.51100000000E-03 0.  1.
         11   -1    0    0    0    0 -0.00000000000E+00 -0.00000000000E+00 -0.45593999997E+02  0.45594000000E+02  0.51100000000E-03 0. -1.
    9900012    2    1    2    0    0 -0.47942099668E+01  0.42640397901E+01  0.40149713783E+02  0.50528855869E+02  0.29999987901E+02 0.  0.
         12    1    1    2    0    0  0.47942099668E+01 -0.42640397901E+01 -0.40149713783E+02  0.40659144131E+02  0.00000000000E+00 0. -1.
         11    1    3    3    0    0 -0.10549796655E+02  0.47325461224E+01  0.15516287724E+02  0.19350720587E+02  0.51100000000E-03 0. -1.
        -11    1    3    3    0    0  0.89297995822E+01  0.67582853638E+01  0.15146439628E+02  0.18836941772E+02  0.51100000000E-03 0.  1.
        -12    1    3    3    0    0 -0.31742128943E+01 -0.72267916961E+01  0.94869864315E+01  0.12341193511E+02  0.00000000000E+00 0.  1.
</event>
<event>
 7    1  0.2973028E-011  0.5052886E+02  0.7816164E-02  0.1300439E+00
        -11   -1    0    0    0    0  0.00000000000E+00  0.00000000000E+00  0.45593999997E+02  0.45594000000E+02  0.51100000000E-03 0.  1.
         11   -1    0    0    0    0 -0.00000000000E+00 -0.00000000000E+00 -0.45593999997E+02  0.45594000000E+02  0.51100000000E-03 0. -1.
    9900012    2    1    2    0    0 -0.31171433838E+02 -0.25657647839E+02 -0.48158975009E+01  0.50528855286E+02  0.29999986126E+02 0.  0.
         12    1    1    2    0    0  0.31171433838E+02  0.25657647839E+02  0.48158975009E+01  0.40659144714E+02  0.00000000000E+00 0. -1.
         11    1    3    3    0    0 -0.30741975716E+01 -0.18213677187E+02  0.69603461849E-01  0.18471425833E+02  0.51100000000E-03 0. -1.
        -11    1    3    3    0    0 -0.22130431734E+02 -0.10710367751E+02 -0.56061687091E+01  0.25217000495E+02  0.51100000000E-03 0.  1.
        -12    1    3    3    0    0 -0.59668045323E+01  0.32663970984E+01  0.72066774634E+00  0.68404289582E+01  0.00000000000E+00 0.  1.
</event>
<event>
 7    1  0.2973028E-011  0.5052886E+02  0.7816164E-02  0.1300439E+00
        -11   -1    0    0    0    0  0.00000000000E+00  0.00000000000E+00  0.45593999997E+02  0.45594000000E+02  0.51100000000E-03 0.  1.
         11   -1    0    0    0    0 -0.00000000000E+00 -0.00000000000E+00 -0.45593999997E+02  0.45594000000E+02  0.51100000000E-03 0. -1.
    9900012    2    1    2    0    0 -0.21745268535E+02  0.13039142549E+02  0.31785055361E+02  0.50528859744E+02  0.29999999677E+02 0.  0.
         12    1    1    2    0    0  0.21745268535E+02 -0.13039142549E+02 -0.31785055361E+02  0.40659140256E+02  0.00000000000E+00 0. -1.
         11    1    3    3    0    0 -0.17185920360E+02  0.10739893403E-01  0.50588963543E+01  0.17915032976E+02  0.51100000000E-03 0. -1.
        -11    1    3    3    0    0  0.12797407345E+01  0.99158314115E+01  0.22858756738E+02  0.24949633441E+02  0.51100000000E-03 0.  1.
        -12    1    3    3    0    0 -0.58390889102E+01  0.31125712440E+01  0.38674022681E+01  0.76641933270E+01  0.00000000000E+00 0.  1.
</event>
<event>
 7    1  0.2973028E-011  0.5052886E+02  0.7816164E-02  0.1300439E+00
        -11   -1    0    0    0    0  0.00000000000E+00  0.00000000000E+00  0.45593999997E+02  0.45594000000E+02  0.51100000000E-03 0. -1.
         11   -1    0    0    0    0 -0.00000000000E+00 -0.00000000000E+00 -0.45593999997E+02  0.45594000000E+02  0.51100000000E-03 0.  1.
    9900012    2    1    2    0    0 -0.29666521105E+02  0.19856247876E+02 -0.19462590907E+02  0.50528862048E+02  0.30000006683E+02 0.  0.
         12    1    1    2    0    0  0.29666521105E+02 -0.19856247876E+02  0.19462590907E+02  0.40659137952E+02  0.00000000000E+00 0. -1.
         11    1    3    3    0    0 -0.18948330438E+01 -0.35169938400E+01  0.21228962151E+01  0.45239724287E+01  0.51100000000E-03 0. -1.
        -11    1    3    3    0    0 -0.21638246139E+02  0.15622171355E+02 -0.56919855647E+01  0.27288544002E+02  0.51100000000E-03 0.  1.
        -12    1    3    3    0    0 -0.61334419220E+01  0.77510703610E+01 -0.15893501557E+02  0.18716345618E+02  0.00000000000E+00 0.  1.
</event>
<event>
 7    1  0.2973028E-011  0.5052886E+02  0.7816164E-02  0.1300439E+00
        -11   -1    0    0    0    0  0.00000000000E+00  0.00000000000E+00  0.45593999997E+02  0.45594000000E+02  0.51100000000E-03 0.  1.
         11   -1    0    0    0    0 -0.00000000000E+00 -0.00000000000E+00 -0.45593999997E+02  0.45594000000E+02  0.51100000000E-03 0. -1.
    9900012    2    1    2    0    0 -0.25009760695E+02  0.16678969000E+01  0.32013992190E+02  0.50528859502E+02  0.29999998943E+02 0.  0.
         12    1    1    2    0    0  0.25009760695E+02 -0.16678969000E+01 -0.32013992190E+02  0.40659140498E+02  0.00000000000E+00 0. -1.
         11    1    3    3    0    0  0.38351833635E+01 -0.26481784373E+01  0.81866628740E+01  0.94203465828E+01  0.51100000000E-03 0. -1.
        -11    1    3    3    0    0 -0.15574853205E+02  0.96412010914E+01  0.17958648624E+02  0.25652326824E+02  0.51100000000E-03 0.  1.
        -12    1    3    3    0    0 -0.13270090853E+02 -0.53251257541E+01  0.58686806925E+01  0.15456186095E+02  0.00000000000E+00 0.  1.
</event>
<event>
 7    1  0.2973028E-011  0.5052886E+02  0.7816164E-02  0.1300439E+00
        -11   -1    0    0    0    0  0.00000000000E+00  0.00000000000E+00  0.45593999997E+02  0.45594000000E+02  0.51100000000E-03 0. -1.
         11   -1    0    0    0    0 -0.00000000000E+00 -0.00000000000E+00 -0.45593999997E+02  0.45594000000E+02  0.51100000000E-03 0.  1.
    9900012    2    1    2    0    0 -0.38012665929E+02 -0.11866416859E+02 -0.82092078196E+01  0.50528859415E+02  0.29999998677E+02 0.  0.
         12    1    1    2    0    0  0.38012665929E+02  0.11866416859E+02  0.82092078196E+01  0.40659140585E+02  0.00000000000E+00 0. -1.
         11    1    3    3    0    0 -0.15679154194E+02  0.60165142181E+01 -0.60834364772E+01  0.17861761369E+02  0.51100000000E-03 0. -1.
        -11    1    3    3    0    0 -0.20758525786E+02 -0.20184982226E+02 -0.41093612216E+01  0.29244431097E+02  0.51100000000E-03 0.  1.
        -12    1    3    3    0    0 -0.15749859485E+01  0.23020511488E+01  0.19835898792E+01  0.34226669483E+01  0.00000000000E+00 0.  1.
</event>
<event>
 7    1  0.2973028E-011  0.5052888E+02  0.7816164E-02  0.1300439E+00
        -11   -1    0    0    0    0  0.00000000000E+00  0.00000000000E+00  0.45593999997E+02  0.45594000000E+02  0.51100000000E-03 0. -1.
         11   -1    0    0    0    0 -0.00000000000E+00 -0.00000000000E+00 -0.45593999997E+02  0.45594000000E+02  0.51100000000E-03 0.  1.
    9900012    2    1    2    0    0  0.49752029807E+01  0.33995459807E+02 -0.21742129435E+02  0.50528878950E+02  0.30000058057E+02 0.  0.
         12    1    1    2    0    0 -0.49752029807E+01 -0.33995459807E+02  0.21742129435E+02  0.40659121050E+02  0.00000000000E+00 0. -1.
         11    1    3    3    0    0  0.76293684488E+01  0.97445183278E+01  0.16397306377E+01  0.12484054517E+02  0.51100000000E-03 0. -1.
        -11    1    3    3    0    0  0.21249683573E+00  0.25850196898E+02 -0.17214482074E+02  0.31058271489E+02  0.51100000000E-03 0.  1.
         12    1    3    3    0    0 -0.28666623038E+01 -0.15992554185E+01 -0.61673779984E+01  0.69865529436E+01  0.00000000000E+00 0. -1.
</event>
<event>
 7    1  0.2973028E-011  0.5052887E+02  0.7816164E-02  0.1300439E+00
        -11   -1    0    0    0    0  0.00000000000E+00  0.00000000000E+00  0.45593999997E+02  0.45594000000E+02  0.51100000000E-03 0.  1.
         11   -1    0    0    0    0 -0.00000000000E+00 -0.00000000000E+00 -0.45593999997E+02  0.45594000000E+02  0.51100000000E-03 0. -1.
    9900012    2    1    2    0    0  0.14608419306E+00 -0.25616045817E+02  0.31574705531E+02  0.50528866054E+02  0.30000018857E+02 0.  0.
         12    1    1    2    0    0 -0.14608419306E+00  0.25616045817E+02 -0.31574705531E+02  0.40659133946E+02  0.00000000000E+00 0. -1.
         11    1    3    3    0    0 -0.95091911920E+01 -0.48316582075E+01  0.32841229353E+00  0.10671339797E+02  0.51100000000E-03 0. -1.
        -11    1    3    3    0    0  0.67619040988E+01 -0.82515932643E+01  0.81649766799E+01  0.13434246644E+02  0.51100000000E-03 0.  1.
         12    1    3    3    0    0  0.28933712863E+01 -0.12532794345E+02  0.23081316558E+02  0.26423279613E+02  0.00000000000E+00 0. -1.
</event>
<event>
 7    1  0.2973028E-011  0.5052891E+02  0.7816164E-02  0.1300439E+00
        -11   -1    0    0    0    0  0.00000000000E+00  0.00000000000E+00  0.45593999997E+02  0.45594000000E+02  0.51100000000E-03 0.  1.
         11   -1    0    0    0    0 -0.00000000000E+00 -0.00000000000E+00 -0.45593999997E+02  0.45594000000E+02  0.51100000000E-03 0. -1.
    9900012    2    1    2    0    0 -0.22476678415E+02 -0.90798092681E+01  0.32642268972E+02  0.50528908365E+02  0.30000147467E+02 0.  0.
         12    1    1    2    0    0  0.22476678415E+02  0.90798092681E+01 -0.32642268972E+02  0.40659091635E+02  0.00000000000E+00 0. -1.
         11    1    3    3    0    0  0.53207940174E+01  0.47845762589E+01  0.56374203318E+01  0.91095294725E+01  0.51100000000E-03 0. -1.
        -11    1    3    3    0    0 -0.12569539934E+02 -0.86913843952E+01  0.12100212146E+02  0.19492271061E+02  0.51100000000E-03 0.  1.
         12    1    3    3    0    0 -0.15227932497E+02 -0.51730011317E+01  0.14904636495E+02  0.21927107832E+02  0.00000000000E+00 0. -1.
</event>
<event>
 7    1  0.2973028E-011  0.5052886E+02  0.7816164E-02  0.1300439E+00
        -11   -1    0    0    0    0  0.00000000000E+00  0.00000000000E+00  0.45593999997E+02  0.45594000000E+02  0.51100000000E-03 0. -1.
         11   -1    0    0    0    0 -0.00000000000E+00 -0.00000000000E+00 -0.45593999997E+02  0.45594000000E+02  0.51100000000E-03 0.  1.
    9900012    2    1    2    0    0  0.38539969036E+00 -0.37210653333E+02 -0.16382430131E+02  0.50528864847E+02  0.30000015188E+02 0.  0.
         12    1    1    2    0    0 -0.38539969036E+00  0.37210653333E+02  0.16382430131E+02  0.40659135153E+02  0.00000000000E+00 0. -1.
         11    1    3    3    0    0  0.14590609901E+02 -0.17765256083E+02 -0.51878212601E+01  0.23567004703E+02  0.51100000000E-03 0. -1.
        -11    1    3    3    0    0 -0.98568614740E+01 -0.14484645695E+02 -0.58482504492E+01  0.18470644618E+02  0.51100000000E-03 0.  1.
         12    1    3    3    0    0 -0.43483487366E+01 -0.49607515552E+01 -0.53463584218E+01  0.84912155256E+01  0.00000000000E+00 0. -1.
</event>
<event>
 7    1  0.2973028E-011  0.5052885E+02  0.7816164E-02  0.1300439E+00
        -11   -1    0    0    0    0  0.00000000000E+00  0.00000000000E+00  0.45593999997E+02  0.45594000000E+02  0.51100000000E-03 0.  1.
         11   -1    0    0    0    0 -0.00000000000E+00 -0.00000000000E+00 -0.45593999997E+02  0.45594000000E+02  0.51100000000E-03 0. -1.
    9900012    2    1    2    0    0 -0.17105604769E+02  0.25433532723E+02  0.26715172328E+02  0.50528846863E+02  0.29999960525E+02 0.  0.
         12    1    1    2    0    0  0.17105604769E+02 -0.25433532723E+02 -0.26715172328E+02  0.40659153137E+02  0.00000000000E+00 0. -1.
         11    1    3    3    0    0 -0.15335595050E+02  0.10071604735E+02  0.90090917610E+01  0.20439702349E+02  0.51100000000E-03 0. -1.
        -11    1    3    3    0    0 -0.19764812109E-01  0.19533685753E+02  0.12494515590E+02  0.23187888861E+02  0.51100000000E-03 0.  1.
         12    1    3    3    0    0 -0.17502449066E+01 -0.41717577648E+01  0.52115649768E+01  0.69012556530E+01  0.00000000000E+00 0. -1.
</event>
<event>
 7    1  0.2973028E-011  0.5052887E+02  0.7816164E-02  0.1300439E+00
        -11   -1    0    0    0    0  0.00000000000E+00  0.00000000000E+00  0.45593999997E+02  0.45594000000E+02  0.51100000000E-03 0. -1.
         11   -1    0    0    0    0 -0.00000000000E+00 -0.00000000000E+00 -0.45593999997E+02  0.45594000000E+02  0.51100000000E-03 0.  1.
    9900012    2    1    2    0    0  0.36315742424E+02  0.14969365217E+02 -0.10499987509E+02  0.50528870884E+02  0.30000033539E+02 0.  0.
         12    1    1    2    0    0 -0.36315742424E+02 -0.14969365217E+02  0.10499987509E+02  0.40659129116E+02  0.00000000000E+00 0. -1.
         11    1    3    3    0    0  0.21426915485E+02 -0.55151102438E+01 -0.10469604198E+02  0.24477372419E+02  0.51100000000E-03 0. -1.
        -11    1    3    3    0    0  0.14278483802E+02  0.19061554669E+02  0.15142984812E+01  0.23864430985E+02  0.51100000000E-03 0.  1.
         12    1    3    3    0    0  0.61034313694E+00  0.14229207920E+01 -0.15446817920E+01  0.21870674803E+01  0.00000000000E+00 0. -1.
</event>
<event>
 7    1  0.2973028E-011  0.5052890E+02  0.7816164E-02  0.1300439E+00
        -11   -1    0    0    0    0  0.00000000000E+00  0.00000000000E+00  0.45593999997E+02  0.45594000000E+02  0.51100000000E-03 0. -1.
         11   -1    0    0    0    0 -0.00000000000E+00 -0.00000000000E+00 -0.45593999997E+02  0.45594000000E+02  0.51100000000E-03 0.  1.
    9900012    2    1    2    0    0 -0.17174306568E+02  0.36278482328E+02 -0.64867219352E+01  0.50528897113E+02  0.30000113265E+02 0.  0.
         12    1    1    2    0    0  0.17174306568E+02 -0.36278482328E+02  0.64867219352E+01  0.40659102887E+02  0.00000000000E+00 0. -1.
         11    1    3    3    0    0 -0.27107375902E+01  0.24171206665E+02  0.15234112509E+01  0.24370394170E+02  0.51100000000E-03 0. -1.
        -11    1    3    3    0    0 -0.33014802438E+00  0.43880052612E+01 -0.90061329777E+01  0.10023672948E+02  0.51100000000E-03 0.  1.
         12    1    3    3    0    0 -0.14133420954E+02  0.77192704015E+01  0.99599979161E+00  0.16134829995E+02  0.00000000000E+00 0. -1.
</event>
<event>
 7    1  0.2973028E-011  0.5052884E+02  0.7816164E-02  0.1300439E+00
        -11   -1    0    0    0    0  0.00000000000E+00  0.00000000000E+00  0.45593999997E+02  0.45594000000E+02  0.51100000000E-03 0.  1.
         11   -1    0    0    0    0 -0.00000000000E+00 -0.00000000000E+00 -0.45593999997E+02  0.45594000000E+02  0.51100000000E-03 0. -1.
    9900012    2    1    2    0    0  0.34692433116E+02 -0.21201350250E+02 -0.32413036117E+00  0.50528840780E+02  0.29999942036E+02 0.  0.
         12    1    1    2    0    0 -0.34692433116E+02  0.21201350250E+02  0.32413036117E+00  0.40659159220E+02  0.00000000000E+00 0. -1.
         11    1    3    3    0    0  0.14179867044E+02 -0.13474479103E+02  0.10627460910E+02  0.22261472147E+02  0.51100000000E-03 0. -1.
        -11    1    3    3    0    0  0.11689160421E+02 -0.11386881752E+02 -0.85266545051E+01  0.18411990243E+02  0.51100000000E-03 0.  1.
         12    1    3    3    0    0  0.88234056506E+01  0.36600106051E+01 -0.24249367657E+01  0.98553783906E+01  0.00000000000E+00 0. -1.
</event>
<event>
 7    1  0.2973028E-011  0.5052886E+02  0.7816164E-02  0.1300439E+00
        -11   -1    0    0    0    0  0.00000000000E+00  0.00000000000E+00  0.45593999997E+02  0.45594000000E+02  0.51100000000E-03 0. -1.
         11   -1    0    0    0    0 -0.00000000000E+00 -0.00000000000E+00 -0.45593999997E+02  0.45594000000E+02  0.51100000000E-03 0.  1.
    9900012    2    1    2    0    0  0.29940760438E+01 -0.30864149305E+02 -0.26298393710E+02  0.50528859387E+02  0.29999998592E+02 0.  0.
         12    1    1    2    0    0 -0.29940760438E+01  0.30864149305E+02  0.26298393710E+02  0.40659140613E+02  0.00000000000E+00 0. -1.
         11    1    3    3    0    0  0.31523180924E+01 -0.99582112979E+01 -0.12525331374E+02  0.16309108127E+02  0.51100000000E-03 0. -1.
        -11    1    3    3    0    0 -0.10038512579E+02 -0.30719218312E+01 -0.74529901200E+01  0.12874606811E+02  0.51100000000E-03 0.  1.
        -12    1    3    3    0    0  0.98802705306E+01 -0.17834016176E+02 -0.63200722161E+01  0.21345144449E+02  0.00000000000E+00 0.  1.
</event>
<event>
 7    1  0.2973028E-011  0.5052886E+02  0.7816164E-02  0.1300439E+00
        -11   -1    0    0    0    0  0.00000000000E+00  0.00000000000E+00  0.45593999997E+02  0.45594000000E+02  0.51100000000E-03 0. -1.
         11   -1    0    0    0    0 -0.00000000000E+00 -0.00000000000E+00 -0.45593999997E+02  0.45594000000E+02  0.51100000000E-03 0.  1.
    9900012    2    1    2    0    0 -0.38800857618E+02 -0.17690371857E+01  0.12022045931E+02  0.50528860403E+02  0.30000001680E+02 0.  0.
         12    1    1    2    0    0  0.38800857618E+02  0.17690371857E+01 -0.12022045931E+02  0.40659139597E+02  0.00000000000E+00 0. -1.
         11    1    3    3    0    0 -0.13718517041E+02  0.91350437013E+00  0.14875559923E+02  0.20256220855E+02  0.51100000000E-03 0. -1.
        -11    1    3    3    0    0 -0.25608421066E+02  0.16996649759E+01 -0.17571986611E+01  0.25724848647E+02  0.51100000000E-03 0.  1.
         12    1    3    3    0    0  0.52608048943E+00 -0.43822065317E+01 -0.10963153311E+01  0.45477909004E+01  0.00000000000E+00 0. -1.
</event>
<event>
 7    1  0.2973028E-011  0.5052886E+02  0.7816164E-02  0.1300439E+00
        -11   -1    0    0    0    0  0.00000000000E+00  0.00000000000E+00  0.45593999997E+02  0.45594000000E+02  0.51100000000E-03 0.  1.
         11   -1    0    0    0    0 -0.00000000000E+00 -0.00000000000E+00 -0.45593999997E+02  0.45594000000E+02  0.51100000000E-03 0. -1.
    9900012    2    1    2    0    0  0.99182247216E+01 -0.27205569492E+02  0.28542102294E+02  0.50528858392E+02  0.29999995567E+02 0.  0.
         12    1    1    2    0    0 -0.99182247216E+01  0.27205569492E+02 -0.28542102294E+02  0.40659141608E+02  0.00000000000E+00 0. -1.
         11    1    3    3    0    0  0.97814574333E+01 -0.10141916467E+02  0.49969085603E+01  0.14950066039E+02  0.51100000000E-03 0. -1.
        -11    1    3    3    0    0 -0.47924375767E+01 -0.67431223855E+01  0.22641984972E+02  0.24105946178E+02  0.51100000000E-03 0.  1.
        -12    1    3    3    0    0  0.49292048650E+01 -0.10320530639E+02  0.90320876182E+00  0.11472846175E+02  0.00000000000E+00 0.  1.
</event>
<event>
 7    1  0.2973028E-011  0.5052886E+02  0.7816164E-02  0.1300439E+00
        -11   -1    0    0    0    0  0.00000000000E+00  0.00000000000E+00  0.45593999997E+02  0.45594000000E+02  0.51100000000E-03 0.  1.
         11   -1    0    0    0    0 -0.00000000000E+00 -0.00000000000E+00 -0.45593999997E+02  0.45594000000E+02  0.51100000000E-03 0. -1.
    9900012    2    1    2    0    0  0.20815799207E+02  0.27740813623E+02  0.21220640830E+02  0.50528857924E+02  0.29999994147E+02 0.  0.
         12    1    1    2    0    0 -0.20815799207E+02 -0.27740813623E+02 -0.21220640830E+02  0.40659142076E+02  0.00000000000E+00 0. -1.
         11    1    3    3    0    0  0.19876729448E+02  0.10098445474E+02  0.22025890970E+01  0.22403445572E+02  0.51100000000E-03 0. -1.
        -11    1    3    3    0    0  0.20702074222E+01  0.10471317046E+02  0.17813161509E+02  0.20766390217E+02  0.51100000000E-03 0.  1.
         12    1    3    3    0    0 -0.11311376625E+01  0.71710511026E+01  0.12048902236E+01  0.73590221347E+01  0.00000000000E+00 0. -1.
</event>
<event>
 7    1  0.2973028E-011  0.5052886E+02  0.7816164E-02  0.1300439E+00
        -11   -1    0    0    0    0  0.00000000000E+00  0.00000000000E+00  0.45593999997E+02  0.45594000000E+02  0.51100000000E-03 0.  1.
         11   -1    0    0    0    0 -0.00000000000E+00 -0.00000000000E+00 -0.45593999997E+02  0.45594000000E+02  0.51100000000E-03 0. -1.
    9900012    2    1    2    0    0  0.15054467700E+02  0.16520503472E+02  0.33964707558E+02  0.50528863361E+02  0.30000010674E+02 0.  0.
         12    1    1    2    0    0 -0.15054467700E+02 -0.16520503472E+02 -0.33964707558E+02  0.40659136639E+02  0.00000000000E+00 0. -1.
         11    1    3    3    0    0 -0.25697421843E+01 -0.21919946911E+01  0.55766850897E+00  0.34233623890E+01  0.51100000000E-03 0. -1.
        -11    1    3    3    0    0  0.18729669961E+02  0.64827347146E+01  0.14487330157E+02  0.24550134858E+02  0.51100000000E-03 0.  1.
        -12    1    3    3    0    0 -0.11054600765E+01  0.12229763449E+02  0.18919708892E+02  0.22555366114E+02  0.00000000000E+00 0.  1.
</event>
<event>
 7    1  0.2973028E-011  0.5052886E+02  0.7816164E-02  0.1300439E+00
        -11   -1    0    0    0    0  0.00000000000E+00  0.00000000000E+00  0.45593999997E+02  0.45594000000E+02  0.51100000000E-03 0. -1.
         11   -1    0    0    0    0 -0.00000000000E+00 -0.00000000000E+00 -0.45593999997E+02  0.45594000000E+02  0.51100000000E-03 0.  1.
    9900012    2    1    2    0    0  0.11409922373E+02 -0.38813495009E+02 -0.40610259990E+01  0.50528860123E+02  0.30000000830E+02 0.  0.
         12    1    1    2    0    0 -0.11409922373E+02  0.38813495009E+02  0.40610259990E+01  0.40659139877E+02  0.00000000000E+00 0. -1.
         11    1    3    3    0    0  0.11612839925E+02 -0.17802571594E+01  0.37173642006E+01  0.12322587535E+02  0.51100000000E-03 0. -1.
        -11    1    3    3    0    0  0.18390510470E+01 -0.24241836737E+02 -0.34854740837E+01  0.24560075061E+02  0.51100000000E-03 0.  1.
        -12    1    3    3    0    0 -0.20419685992E+01 -0.12791401112E+02 -0.42929161159E+01  0.13646197527E+02  0.00000000000E+00 0.  1.
</event>
<event>
 7    1  0.2973028E-011  0.5052877E+02  0.7816164E-02  0.1300439E+00
        -11   -1    0    0    0    0  0.00000000000E+00  0.00000000000E+00  0.45593999997E+02  0.45594000000E+02  0.51100000000E-03 0.  1.
         11   -1    0    0    0    0 -0.00000000000E+00 -0.00000000000E+00 -0.45593999997E+02  0.45594000000E+02  0.51100000000E-03 0. -1.
    9900012    2    1    2    0    0  0.22673014686E+02  0.47945266958E+01  0.33408386406E+02  0.50528765336E+02  0.29999712714E+02 0.  0.
         12    1    1    2    0    0 -0.22673014686E+02 -0.47945266958E+01 -0.33408386406E+02  0.40659234664E+02  0.00000000000E+00 0. -1.
         11    1    3    3    0    0  0.40277154770E+01  0.96781779857E+00 -0.24504047572E+00  0.41496033968E+01  0.51100000000E-03 0. -1.
        -11    1    3    3    0    0  0.92320492217E+01  0.29361652517E+01  0.35454189737E+02  0.36753929985E+02  0.51100000000E-03 0.  1.
        -12    1    3    3    0    0  0.94132499875E+01  0.89054364549E+00 -0.18007628547E+01  0.96252319541E+01  0.00000000000E+00 0.  1.
</event>
<event>
 7    1  0.2973028E-011  0.5052875E+02  0.7816164E-02  0.1300439E+00
        -11   -1    0    0    0    0  0.00000000000E+00  0.00000000000E+00  0.45593999997E+02  0.45594000000E+02  0.51100000000E-03 0.  1.
         11   -1    0    0    0    0 -0.00000000000E+00 -0.00000000000E+00 -0.45593999997E+02  0.45594000000E+02  0.51100000000E-03 0. -1.
    9900012    2    1    2    0    0  0.24041120947E+02 -0.27381886604E+02  0.18039725444E+02  0.50528746386E+02  0.29999655113E+02 0.  0.
         12    1    1    2    0    0 -0.24041120947E+02  0.27381886604E+02 -0.18039725444E+02  0.40659253614E+02  0.00000000000E+00 0. -1.
         11    1    3    3    0    0 -0.15897834233E+01 -0.37104801504E+01  0.45687111061E+01  0.60965724560E+01  0.51100000000E-03 0. -1.
        -11    1    3    3    0    0  0.21233732689E+02 -0.26585386638E+02  0.49104357609E+01  0.34376831824E+02  0.51100000000E-03 0.  1.
        -12    1    3    3    0    0  0.43971716810E+01  0.29139801849E+01  0.85605785766E+01  0.10055342106E+02  0.00000000000E+00 0.  1.
</event>
<event>
 7    1  0.2973028E-011  0.5052886E+02  0.7816164E-02  0.1300439E+00
        -11   -1    0    0    0    0  0.00000000000E+00  0.00000000000E+00  0.45593999997E+02  0.45594000000E+02  0.51100000000E-03 0.  1.
         11   -1    0    0    0    0 -0.00000000000E+00 -0.00000000000E+00 -0.45593999997E+02  0.45594000000E+02  0.51100000000E-03 0. -1.
    9900012    2    1    2    0    0  0.30626538705E+02  0.25885143190E+02  0.67186372346E+01  0.50528860839E+02  0.30000003006E+02 0.  0.
         12    1    1    2    0    0 -0.30626538705E+02 -0.25885143190E+02 -0.67186372346E+01  0.40659139161E+02  0.00000000000E+00 0. -1.
         11    1    3    3    0    0  0.33497422377E+02  0.13821655945E+02  0.12272516596E+01  0.36257711260E+02  0.51100000000E-03 0. -1.
        -11    1    3    3    0    0 -0.65024305466E+00  0.92372074428E+01  0.24913704164E+01  0.95893557752E+01  0.51100000000E-03 0.  1.
         12    1    3    3    0    0 -0.22206406166E+01  0.28262798021E+01  0.30000151586E+01  0.46817938037E+01  0.00000000000E+00 0. -1.
</event>
<event>
 7    1  0.2973028E-011  0.5052886E+02  0.7816164E-02  0.1300439E+00
        -11   -1    0    0    0    0  0.00000000000E+00  0.00000000000E+00  0.45593999997E+02  0.45594000000E+02  0.51100000000E-03 0.  1.
         11   -1    0    0    0    0 -0.00000000000E+00 -0.00000000000E+00 -0.45593999997E+02  0.45594000000E+02  0.51100000000E-03 0. -1.
    9900012    2    1    2    0    0  0.35821427623E+02  0.82962574105E+01  0.17354060368E+02  0.50528856192E+02  0.29999988880E+02 0.  0.
         12    1    1    2    0    0 -0.35821427623E+02 -0.82962574105E+01 -0.17354060368E+02  0.40659143808E+02  0.00000000000E+00 0. -1.
         11    1    3    3    0    0  0.20797849864E+02  0.10753489014E+02 -0.13831269914E+01  0.23454234702E+02  0.51100000000E-03 0. -1.
        -11    1    3    3    0    0  0.33684657354E+00 -0.43316992252E+01  0.67362332529E+01  0.80158544455E+01  0.51100000000E-03 0.  1.
         12    1    3    3    0    0  0.14686731186E+02  0.18744676221E+01  0.12000954106E+02  0.19058767044E+02  0.00000000000E+00 0. -1.
</event>
<event>
 7    1  0.2973028E-011  0.5052887E+02  0.7816164E-02  0.1300439E+00
        -11   -1    0    0    0    0  0.00000000000E+00  0.00000000000E+00  0.45593999997E+02  0.45594000000E+02  0.51100000000E-03 0.  1.
         11   -1    0    0    0    0 -0.00000000000E+00 -0.00000000000E+00 -0.45593999997E+02  0.45594000000E+02  0.51100000000E-03 0. -1.
    9900012    2    1    2    0    0  0.11464997154E+02  0.30081013689E+02  0.24836487222E+02  0.50528872590E+02  0.30000038723E+02 0.  0.
         12    1    1    2    0    0 -0.11464997154E+02 -0.30081013689E+02 -0.24836487222E+02  0.40659127410E+02  0.00000000000E+00 0. -1.
         11    1    3    3    0    0  0.13536680008E+02  0.10842758916E+02 -0.14860507687E+01  0.17407339650E+02  0.51100000000E-03 0. -1.
        -11    1    3    3    0    0  0.25118193510E+00  0.16096730166E+02  0.22402526687E+02  0.27586971864E+02  0.51100000000E-03 0.  1.
         12    1    3    3    0    0 -0.23228647889E+01  0.31415246068E+01  0.39200113029E+01  0.55345610754E+01  0.00000000000E+00 0. -1.
</event>
<event>
 7    1  0.2973028E-011  0.5052886E+02  0.7816164E-02  0.1300439E+00
        -11   -1    0    0    0    0  0.00000000000E+00  0.00000000000E+00  0.45593999997E+02  0.45594000000E+02  0.51100000000E-03 0.  1.
         11   -1    0    0    0    0 -0.00000000000E+00 -0.00000000000E+00 -0.45593999997E+02  0.45594000000E+02  0.51100000000E-03 0. -1.
    9900012    2    1    2    0    0  0.64442186328E+01  0.31485405390E+02  0.24905960088E+02  0.50528861368E+02  0.30000004615E+02 0.  0.
         12    1    1    2    0    0 -0.64442186328E+01 -0.31485405390E+02 -0.24905960088E+02  0.40659138632E+02  0.00000000000E+00 0. -1.
         11    1    3    3    0    0  0.35179241736E+01 -0.35554055443E+01  0.11164415080E+02  0.12233595686E+02  0.51100000000E-03 0. -1.
        -11    1    3    3    0    0  0.46720402340E+01  0.23990738831E+02  0.79766324825E+01  0.25710118156E+02  0.51100000000E-03 0.  1.
        -12    1    3    3    0    0 -0.17457457748E+01  0.11050072104E+02  0.57649125255E+01  0.12585147526E+02  0.00000000000E+00 0.  1.
</event>
<event>
 7    1  0.2973028E-011  0.5052883E+02  0.7816164E-02  0.1300439E+00
        -11   -1    0    0    0    0  0.00000000000E+00  0.00000000000E+00  0.45593999997E+02  0.45594000000E+02  0.51100000000E-03 0.  1.
         11   -1    0    0    0    0 -0.00000000000E+00 -0.00000000000E+00 -0.45593999997E+02  0.45594000000E+02  0.51100000000E-03 0. -1.
    9900012    2    1    2    0    0  0.25921675769E+01 -0.24012452540E+01  0.40505341148E+02  0.50528831624E+02  0.29999914203E+02 0.  0.
         12    1    1    2    0    0 -0.25921675769E+01  0.24012452540E+01 -0.40505341148E+02  0.40659168376E+02  0.00000000000E+00 0. -1.
         11    1    3    3    0    0  0.19737210881E+01 -0.18508862164E+01  0.30218913519E+02  0.30339810303E+02  0.51100000000E-03 0. -1.
        -11    1    3    3    0    0  0.86789458494E+01  0.49003521321E+00  0.27825039793E+01  0.91272429694E+01  0.51100000000E-03 0.  1.
         12    1    3    3    0    0 -0.80604993606E+01 -0.10403942508E+01  0.75039236503E+01  0.11061778351E+02  0.00000000000E+00 0. -1.
</event>
<event>
 7    1  0.2973028E-011  0.5052892E+02  0.7816164E-02  0.1300439E+00
        -11   -1    0    0    0    0  0.00000000000E+00  0.00000000000E+00  0.45593999997E+02  0.45594000000E+02  0.51100000000E-03 0.  1.
         11   -1    0    0    0    0 -0.00000000000E+00 -0.00000000000E+00 -0.45593999997E+02  0.45594000000E+02  0.51100000000E-03 0. -1.
    9900012    2    1    2    0    0 -0.12774558382E+01 -0.27694621695E+02  0.29741163708E+02  0.50528920042E+02  0.30000182960E+02 0.  0.
         12    1    1    2    0    0  0.12774558382E+01  0.27694621695E+02 -0.29741163708E+02  0.40659079958E+02  0.00000000000E+00 0. -1.
         11    1    3    3    0    0 -0.12010679970E+02 -0.82427367124E+01  0.35821347597E+01  0.15001027683E+02  0.51100000000E-03 0. -1.
        -11    1    3    3    0    0  0.49071896596E+01 -0.12791614686E+02  0.21587155672E+02  0.25567776730E+02  0.51100000000E-03 0.  1.
         12    1    3    3    0    0  0.58260344721E+01 -0.66602702969E+01  0.45718732766E+01  0.99601156296E+01  0.00000000000E+00 0. -1.
</event>
<event>
 7    1  0.2973028E-011  0.5052885E+02  0.7816164E-02  0.1300439E+00
        -11   -1    0    0    0    0  0.00000000000E+00  0.00000000000E+00  0.45593999997E+02  0.45594000000E+02  0.51100000000E-03 0.  1.
         11   -1    0    0    0    0 -0.00000000000E+00 -0.00000000000E+00 -0.45593999997E+02  0.45594000000E+02  0.51100000000E-03 0. -1.
    9900012    2    1    2    0    0 -0.20150476391E+02 -0.35111521382E+02 -0.37822758270E+01  0.50528852900E+02  0.29999978874E+02 0.  0.
         12    1    1    2    0    0  0.20150476391E+02  0.35111521382E+02  0.37822758270E+01  0.40659147100E+02  0.00000000000E+00 0. -1.
         11    1    3    3    0    0  0.30288256995E+01 -0.21385399885E+02  0.17292622065E+01  0.21667936251E+02  0.51100000000E-03 0. -1.
        -11    1    3    3    0    0 -0.13506860263E+02 -0.11341005832E+02 -0.34813806622E+00  0.17640149880E+02  0.51100000000E-03 0.  1.
         12    1    3    3    0    0 -0.96724418276E+01 -0.23851156653E+01 -0.51633999673E+01  0.11220766768E+02  0.00000000000E+00 0. -1.
</event>
<event>
 7    1  0.2973028E-011  0.5052888E+02  0.7816164E-02  0.1300439E+00
        -11   -1    0    0    0    0  0.00000000000E+00  0.00000000000E+00  0.45593999997E+02  0.45594000000E+02  0.51100000000E-03 0.  1.
         11   -1    0    0    0    0 -0.00000000000E+00 -0.00000000000E+00 -0.45593999997E+02  0.45594000000E+02  0.51100000000E-03 0. -1.
    9900012    2    1    2    0    0  0.16324424000E+02  0.99261779798E+01  0.35890786241E+02  0.50528875990E+02  0.30000049060E+02 0.  0.
         12    1    1    2    0    0 -0.16324424000E+02 -0.99261779798E+01 -0.35890786241E+02  0.40659124010E+02  0.00000000000E+00 0. -1.
         11    1    3    3    0    0  0.45565377316E+01  0.16240953248E+00  0.30658699629E+01  0.54943581833E+01  0.51100000000E-03 0. -1.
        -11    1    3    3    0    0  0.85280791040E+01  0.46264760037E+01  0.36612845662E+02  0.37876547904E+02  0.51100000000E-03 0.  1.
        -12    1    3    3    0    0  0.32398071646E+01  0.51372924436E+01 -0.37879293835E+01  0.71579699028E+01  0.00000000000E+00 0.  1.
</event>
<event>
 7    1  0.2973028E-011  0.5052886E+02  0.7816164E-02  0.1300439E+00
        -11   -1    0    0    0    0  0.00000000000E+00  0.00000000000E+00  0.45593999997E+02  0.45594000000E+02  0.51100000000E-03 0.  1.
         11   -1    0    0    0    0 -0.00000000000E+00 -0.00000000000E+00 -0.45593999997E+02  0.45594000000E+02  0.51100000000E-03 0. -1.
    9900012    2    1    2    0    0  0.14379751677E+02  0.38029742536E+02  0.35635250212E+00  0.50528861264E+02  0.30000004299E+02 0.  0.
         12    1    1    2    0    0 -0.14379751677E+02 -0.38029742536E+02 -0.35635250212E+00  0.40659138736E+02  0.00000000000E+00 0. -1.
         11    1    3    3    0    0 -0.61009447656E+01  0.18209931470E+02 -0.38026675664E+01  0.19577625292E+02  0.51100000000E-03 0. -1.
        -11    1    3    3    0    0  0.18982890470E+02  0.13252691785E+02  0.22830345260E+00  0.23152453279E+02  0.51100000000E-03 0.  1.
         12    1    3    3    0    0  0.14978059729E+01  0.65671192808E+01  0.39307166159E+01  0.77987826931E+01  0.00000000000E+00 0. -1.
</event>
<event>
 7    1  0.2973028E-011  0.5052885E+02  0.7816164E-02  0.1300439E+00
        -11   -1    0    0    0    0  0.00000000000E+00  0.00000000000E+00  0.45593999997E+02  0.45594000000E+02  0.51100000000E-03 0.  1.
         11   -1    0    0    0    0 -0.00000000000E+00 -0.00000000000E+00 -0.45593999997E+02  0.45594000000E+02  0.51100000000E-03 0. -1.
    9900012    2    1    2    0    0  0.16479298783E+02  0.36646367036E+02  0.62163443364E+01  0.50528850449E+02  0.29999971426E+02 0.  0.
         12    1    1    2    0    0 -0.16479298783E+02 -0.36646367036E+02 -0.62163443364E+01  0.40659149551E+02  0.00000000000E+00 0. -1.
         11    1    3    3    0    0  0.26844468851E+01 -0.13685595292E+01  0.22088308773E+01  0.37360600062E+01  0.51100000000E-03 0. -1.
        -11    1    3    3    0    0  0.18332077543E+02  0.32404087893E+02 -0.21706325150E+01  0.37293452844E+02  0.51100000000E-03 0.  1.
        -12    1    3    3    0    0 -0.45372256452E+01  0.56108386714E+01  0.61781459741E+01  0.94993375995E+01  0.00000000000E+00 0.  1.
</event>
<event>
 7    1  0.2973028E-011  0.5052887E+02  0.7816164E-02  0.1300439E+00
        -11   -1    0    0    0    0  0.00000000000E+00  0.00000000000E+00  0.45593999997E+02  0.45594000000E+02  0.51100000000E-03 0. -1.
         11   -1    0    0    0    0 -0.00000000000E+00 -0.00000000000E+00 -0.45593999997E+02  0.45594000000E+02  0.51100000000E-03 0.  1.
    9900012    2    1    2    0    0  0.25298772997E+02 -0.13959252795E+02 -0.28605520596E+02  0.50528874796E+02  0.30000045430E+02 0.  0.
         12    1    1    2    0    0 -0.25298772997E+02  0.13959252795E+02  0.28605520596E+02  0.40659125204E+02  0.00000000000E+00 0. -1.
         11    1    3    3    0    0  0.25450110838E+02 -0.26115226017E+01 -0.19110205613E+02  0.31933182597E+02  0.51100000000E-03 0. -1.
        -11    1    3    3    0    0 -0.24700948107E+01 -0.12721377780E+02 -0.62806535673E+01  0.14400744095E+02  0.51100000000E-03 0.  1.
        -12    1    3    3    0    0  0.23187569703E+01  0.13736475859E+01 -0.32146614158E+01  0.41949481041E+01  0.00000000000E+00 0.  1.
</event>
<event>
 7    1  0.2973028E-011  0.5052888E+02  0.7816164E-02  0.1300439E+00
        -11   -1    0    0    0    0  0.00000000000E+00  0.00000000000E+00  0.45593999997E+02  0.45594000000E+02  0.51100000000E-03 0. -1.
         11   -1    0    0    0    0 -0.00000000000E+00 -0.00000000000E+00 -0.45593999997E+02  0.45594000000E+02  0.51100000000E-03 0.  1.
    9900012    2    1    2    0    0 -0.42135169288E+01 -0.13051142490E+02 -0.38276341005E+02  0.50528876474E+02  0.30000050529E+02 0.  0.
         12    1    1    2    0    0  0.42135169288E+01  0.13051142490E+02  0.38276341005E+02  0.40659123526E+02  0.00000000000E+00 0. -1.
         11    1    3    3    0    0  0.50782850428E+01 -0.87488885104E+00 -0.12188587445E+02  0.13233143000E+02  0.51100000000E-03 0. -1.
        -11    1    3    3    0    0 -0.15912035497E+02 -0.12141933490E+02 -0.19010167617E+02  0.27604454271E+02  0.51100000000E-03 0.  1.
        -12    1    3    3    0    0  0.66202335255E+01 -0.34320149404E-01 -0.70775859425E+01  0.96912792024E+01  0.00000000000E+00 0.  1.
</event>
<event>
 7    1  0.2973028E-011  0.5052886E+02  0.7816164E-02  0.1300439E+00
        -11   -1    0    0    0    0  0.00000000000E+00  0.00000000000E+00  0.45593999997E+02  0.45594000000E+02  0.51100000000E-03 0.  1.
         11   -1    0    0    0    0 -0.00000000000E+00 -0.00000000000E+00 -0.45593999997E+02  0.45594000000E+02  0.51100000000E-03 0. -1.
    9900012    2    1    2    0    0  0.66191406869E+01  0.19296657913E+02  0.35170890292E+02  0.50528861372E+02  0.30000004627E+02 0.  0.
         12    1    1    2    0    0 -0.66191406869E+01 -0.19296657913E+02 -0.35170890292E+02  0.40659138628E+02  0.00000000000E+00 0. -1.
         11    1    3    3    0    0  0.49633401685E+01  0.28383961767E+01  0.14882836263E+02  0.15943338859E+02  0.51100000000E-03 0. -1.
        -11    1    3    3    0    0 -0.74233867511E+01  0.69856947401E+01 -0.27008536613E+00  0.10197036247E+02  0.51100000000E-03 0.  1.
        -12    1    3    3    0    0  0.90791872695E+01  0.94725669958E+01  0.20558139395E+02  0.24388486266E+02  0.00000000000E+00 0.  1.
</event>
<event>
 7    1  0.2973028E-011  0.5052887E+02  0.7816164E-02  0.1300439E+00
        -11   -1    0    0    0    0  0.00000000000E+00  0.00000000000E+00  0.45593999997E+02  0.45594000000E+02  0.51100000000E-03 0.  1.
         11   -1    0    0    0    0 -0.00000000000E+00 -0.00000000000E+00 -0.45593999997E+02  0.45594000000E+02  0.51100000000E-03 0. -1.
    9900012    2    1    2    0    0  0.17960814783E+02  0.32534177275E+02  0.16495503848E+02  0.50528865653E+02  0.30000017639E+02 0.  0.
         12    1    1    2    0    0 -0.17960814783E+02 -0.32534177275E+02 -0.16495503848E+02  0.40659134347E+02  0.00000000000E+00 0. -1.
         11    1    3    3    0    0 -0.70984621091E+00  0.25312161398E+01  0.62473263806E+01  0.67779070484E+01  0.51100000000E-03 0. -1.
        -11    1    3    3    0    0  0.13888903912E+02  0.24481041316E+02 -0.33198880561E+01  0.28341571812E+02  0.51100000000E-03 0.  1.
        -12    1    3    3    0    0  0.47817570813E+01  0.55219198194E+01  0.13568065524E+02  0.15409386793E+02  0.00000000000E+00 0.  1.
</event>
<event>
 7    1  0.2973028E-011  0.5052885E+02  0.7816164E-02  0.1300439E+00
        -11   -1    0    0    0    0  0.00000000000E+00  0.00000000000E+00  0.45593999997E+02  0.45594000000E+02  0.51100000000E-03 0.  1.
         11   -1    0    0    0    0 -0.00000000000E+00 -0.00000000000E+00 -0.45593999997E+02  0.45594000000E+02  0.51100000000E-03 0. -1.
    9900012    2    1    2    0    0 -0.23435210975E+02  0.89068096888E+01  0.32009786821E+02  0.50528845746E+02  0.29999957129E+02 0.  0.
         12    1    1    2    0    0  0.23435210975E+02 -0.89068096888E+01 -0.32009786821E+02  0.40659154254E+02  0.00000000000E+00 0. -1.
         11    1    3    3    0    0  0.35487456323E+01  0.48150147249E+01  0.80415401717E+00  0.60352817919E+01  0.51100000000E-03 0. -1.
        -11    1    3    3    0    0 -0.10122546130E+02 -0.38402146272E+01  0.20020586992E+02  0.22760428210E+02  0.51100000000E-03 0.  1.
        -12    1    3    3    0    0 -0.16861410477E+02  0.79320095911E+01  0.11185045812E+02  0.21733135744E+02  0.00000000000E+00 0.  1.
</event>
<event>
 7    1  0.2973028E-011  0.5052889E+02  0.7816164E-02  0.1300439E+00
        -11   -1    0    0    0    0  0.00000000000E+00  0.00000000000E+00  0.45593999997E+02  0.45594000000E+02  0.51100000000E-03 0. -1.
         11   -1    0    0    0    0 -0.00000000000E+00 -0.00000000000E+00 -0.45593999997E+02  0.45594000000E+02  0.51100000000E-03 0.  1.
    9900012    2    1    2    0    0  0.34493596328E+02 -0.20670209410E+02  0.60081493413E+01  0.50528885361E+02  0.30000077545E+02 0.  0.
         12    1    1    2    0    0 -0.34493596328E+02  0.20670209410E+02 -0.60081493413E+01  0.40659114639E+02  0.00000000000E+00 0. -1.
         11    1    3    3    0    0 -0.43983407244E+01 -0.18492770884E+00  0.28975454084E+00  0.44117521849E+01  0.51100000000E-03 0. -1.
        -11    1    3    3    0    0  0.32261694123E+02 -0.21754246070E+02  0.37821729346E+01  0.39094359723E+02  0.51100000000E-03 0.  1.
        -12    1    3    3    0    0  0.66302429289E+01  0.12689643688E+01  0.19362218659E+01  0.70227734536E+01  0.00000000000E+00 0.  1.
</event>
<event>
 7    1  0.2973028E-011  0.5052886E+02  0.7816164E-02  0.1300439E+00
        -11   -1    0    0    0    0  0.00000000000E+00  0.00000000000E+00  0.45593999997E+02  0.45594000000E+02  0.51100000000E-03 0. -1.
         11   -1    0    0    0    0 -0.00000000000E+00 -0.00000000000E+00 -0.45593999997E+02  0.45594000000E+02  0.51100000000E-03 0.  1.
    9900012    2    1    2    0    0 -0.25173020849E+02 -0.13087414555E+02 -0.29123943692E+02  0.50528862103E+02  0.30000006848E+02 0.  0.
         12    1    1    2    0    0  0.25173020849E+02  0.13087414555E+02  0.29123943692E+02  0.40659137897E+02  0.00000000000E+00 0. -1.
         11    1    3    3    0    0 -0.10239333397E+02  0.72650795876E+01 -0.41833863223E+01  0.13233519986E+02  0.51100000000E-03 0. -1.
        -11    1    3    3    0    0 -0.34115305353E+01 -0.93880024039E+01 -0.34678904804E+01  0.10573523272E+02  0.51100000000E-03 0.  1.
         12    1    3    3    0    0 -0.11522156916E+02 -0.10964491739E+02 -0.21472666889E+02  0.26721818846E+02  0.00000000000E+00 0. -1.
</event>
<event>
 7    1  0.2973028E-011  0.5052886E+02  0.7816164E-02  0.1300439E+00
        -11   -1    0    0    0    0  0.00000000000E+00  0.00000000000E+00  0.45593999997E+02  0.45594000000E+02  0.51100000000E-03 0.  1.
         11   -1    0    0    0    0 -0.00000000000E+00 -0.00000000000E+00 -0.45593999997E+02  0.45594000000E+02  0.51100000000E-03 0. -1.
    9900012    2    1    2    0    0 -0.48715894846E+01 -0.30888058522E+02  0.25987705349E+02  0.50528863602E+02  0.30000011405E+02 0.  0.
         12    1    1    2    0    0  0.48715894846E+01  0.30888058522E+02 -0.25987705349E+02  0.40659136398E+02  0.00000000000E+00 0. -1.
         11    1    3    3    0    0  0.44142268381E+01 -0.32325091518E+01 -0.54436026626E+00  0.54982581201E+01  0.51100000000E-03 0. -1.
        -11    1    3    3    0    0 -0.28463002075E+01 -0.28945841059E+02  0.24838963915E+02  0.38248362947E+02  0.51100000000E-03 0.  1.
        -12    1    3    3    0    0 -0.64395161152E+01  0.12902916889E+01  0.16931016999E+01  0.67822425352E+01  0.00000000000E+00 0.  1.
</event>
<event>
 7    1  0.2973028E-011  0.5052886E+02  0.7816164E-02  0.1300439E+00
        -11   -1    0    0    0    0  0.00000000000E+00  0.00000000000E+00  0.45593999997E+02  0.45594000000E+02  0.51100000000E-03 0. -1.
         11   -1    0    0    0    0 -0.00000000000E+00 -0.00000000000E+00 -0.45593999997E+02  0.45594000000E+02  0.51100000000E-03 0.  1.
    9900012    2    1    2    0    0  0.18247668510E+02 -0.61149542457E+01 -0.35816135811E+02  0.50528860118E+02  0.30000000816E+02 0.  0.
         12    1    1    2    0    0 -0.18247668510E+02  0.61149542457E+01  0.35816135811E+02  0.40659139882E+02  0.00000000000E+00 0. -1.
         11    1    3    3    0    0 -0.60543291717E+01 -0.21586487237E+01 -0.34800267402E+01  0.73092579928E+01  0.51100000000E-03 0. -1.
        -11    1    3    3    0    0  0.15789054570E+02 -0.90143157756E+01 -0.24923967152E+02  0.30850547353E+02  0.51100000000E-03 0.  1.
        -12    1    3    3    0    0  0.85129431111E+01  0.50580102537E+01 -0.74121419185E+01  0.12369054772E+02  0.00000000000E+00 0.  1.
</event>
<event>
 7    1  0.2973028E-011  0.5052888E+02  0.7816164E-02  0.1300439E+00
        -11   -1    0    0    0    0  0.00000000000E+00  0.00000000000E+00  0.45593999997E+02  0.45594000000E+02  0.51100000000E-03 0.  1.
         11   -1    0    0    0    0 -0.00000000000E+00 -0.00000000000E+00 -0.45593999997E+02  0.45594000000E+02  0.51100000000E-03 0. -1.
    9900012    2    1    2    0    0  0.17732815040E+02 -0.11012392262E+00  0.36588241364E+02  0.50528877252E+02  0.30000052895E+02 0.  0.
         12    1    1    2    0    0 -0.17732815040E+02  0.11012392262E+00 -0.36588241364E+02  0.40659122748E+02  0.00000000000E+00 0. -1.
         11    1    3    3    0    0 -0.29586799226E+01  0.36340212832E+01  0.15860377885E+02  0.16538182623E+02  0.51100000000E-03 0. -1.
        -11    1    3    3    0    0  0.16847415089E+02 -0.69652474882E+01  0.72662523560E+01  0.19625200414E+02  0.51100000000E-03 0.  1.
         12    1    3    3    0    0  0.38440798744E+01  0.32211022824E+01  0.13461611123E+02  0.14365494215E+02  0.00000000000E+00 0. -1.
</event>
<event>
 7    1  0.2973028E-011  0.5052883E+02  0.7816164E-02  0.1300439E+00
        -11   -1    0    0    0    0  0.00000000000E+00  0.00000000000E+00  0.45593999997E+02  0.45594000000E+02  0.51100000000E-03 0. -1.
         11   -1    0    0    0    0 -0.00000000000E+00 -0.00000000000E+00 -0.45593999997E+02  0.45594000000E+02  0.51100000000E-03 0.  1.
    9900012    2    1    2    0    0 -0.12317214933E+02  0.25911691465E+02 -0.28810385625E+02  0.50528833037E+02  0.29999918498E+02 0.  0.
         12    1    1    2    0    0  0.12317214933E+02 -0.25911691465E+02  0.28810385625E+02  0.40659166963E+02  0.00000000000E+00 0. -1.
         11    1    3    3    0    0 -0.79251760428E+00 -0.42659815829E+00 -0.67054133019E+01  0.67655478678E+01  0.51100000000E-03 0. -1.
        -11    1    3    3    0    0 -0.15905677979E+02  0.13610983926E+02 -0.41807733760E+01  0.21347794774E+02  0.51100000000E-03 0.  1.
        -12    1    3    3    0    0  0.43809806501E+01  0.12727305697E+02 -0.17924198947E+02  0.22415490395E+02  0.00000000000E+00 0.  1.
</event>
<event>
 7    1  0.2973028E-011  0.5052886E+02  0.7816164E-02  0.1300439E+00
        -11   -1    0    0    0    0  0.00000000000E+00  0.00000000000E+00  0.45593999997E+02  0.45594000000E+02  0.51100000000E-03 0. -1.
         11   -1    0    0    0    0 -0.00000000000E+00 -0.00000000000E+00 -0.45593999997E+02  0.45594000000E+02  0.51100000000E-03 0.  1.
    9900012    2    1    2    0    0  0.47042685609E-01  0.72796668941E+01 -0.40002124225E+02  0.50528859507E+02  0.29999998957E+02 0.  0.
         12    1    1    2    0    0 -0.47042685609E-01 -0.72796668941E+01  0.40002124225E+02  0.40659140493E+02  0.00000000000E+00 0. -1.
         11    1    3    3    0    0 -0.84948180511E+00 -0.12830042308E-01  0.25653318133E+01  0.27023529600E+01  0.51100000000E-03 0. -1.
        -11    1    3    3    0    0 -0.20368702702E+01  0.11188355570E+02 -0.41230101371E+02  0.42769725276E+02  0.51100000000E-03 0.  1.
        -12    1    3    3    0    0  0.29333947609E+01 -0.38958586334E+01 -0.13373546679E+01  0.50567812710E+01  0.00000000000E+00 0.  1.
</event>
<event>
 7    1  0.2973028E-011  0.5052886E+02  0.7816164E-02  0.1300439E+00
        -11   -1    0    0    0    0  0.00000000000E+00  0.00000000000E+00  0.45593999997E+02  0.45594000000E+02  0.51100000000E-03 0.  1.
         11   -1    0    0    0    0 -0.00000000000E+00 -0.00000000000E+00 -0.45593999997E+02  0.45594000000E+02  0.51100000000E-03 0. -1.
    9900012    2    1    2    0    0 -0.32413677671E+02 -0.23215143360E+02  0.79734877842E+01  0.50528857254E+02  0.29999992110E+02 0.  0.
         12    1    1    2    0    0  0.32413677671E+02  0.23215143360E+02 -0.79734877842E+01  0.40659142746E+02  0.00000000000E+00 0. -1.
         11    1    3    3    0    0 -0.60867151020E+01  0.58273339361E+01  0.67244000036E+01  0.10780699291E+02  0.51100000000E-03 0. -1.
        -11    1    3    3    0    0 -0.14219652875E+02 -0.18648006258E+02 -0.17323097101E+01  0.23514837071E+02  0.51100000000E-03 0.  1.
         12    1    3    3    0    0 -0.12107309694E+02 -0.10394471038E+02  0.29813974907E+01  0.16233320892E+02  0.00000000000E+00 0. -1.
</event>
<event>
 7    1  0.2973028E-011  0.5052886E+02  0.7816164E-02  0.1300439E+00
        -11   -1    0    0    0    0  0.00000000000E+00  0.00000000000E+00  0.45593999997E+02  0.45594000000E+02  0.51100000000E-03 0.  1.
         11   -1    0    0    0    0 -0.00000000000E+00 -0.00000000000E+00 -0.45593999997E+02  0.45594000000E+02  0.51100000000E-03 0. -1.
    9900012    2    1    2    0    0 -0.12380729200E+02  0.27735047273E+02  0.27030538643E+02  0.50528864223E+02  0.30000013293E+02 0.  0.
         12    1    1    2    0    0  0.12380729200E+02 -0.27735047273E+02 -0.27030538643E+02  0.40659135777E+02  0.00000000000E+00 0. -1.
         11    1    3    3    0    0 -0.20520158815E+01  0.50528390383E+01 -0.29278261306E+01  0.61898398717E+01  0.51100000000E-03 0. -1.
        -11    1    3    3    0    0  0.55081622636E+01  0.11107967582E+02  0.16104729091E+02  0.20324593346E+02  0.51100000000E-03 0.  1.
        -12    1    3    3    0    0 -0.15836875582E+02  0.11574240653E+02  0.13853635683E+02  0.24014431005E+02  0.00000000000E+00 0.  1.
</event>
<event>
 7    1  0.2973028E-011  0.5052886E+02  0.7816164E-02  0.1300439E+00
        -11   -1    0    0    0    0  0.00000000000E+00  0.00000000000E+00  0.45593999997E+02  0.45594000000E+02  0.51100000000E-03 0.  1.
         11   -1    0    0    0    0 -0.00000000000E+00 -0.00000000000E+00 -0.45593999997E+02  0.45594000000E+02  0.51100000000E-03 0. -1.
    9900012    2    1    2    0    0  0.25590651250E+02  0.25044281389E+02  0.19263131186E+02  0.50528859764E+02  0.29999999738E+02 0.  0.
         12    1    1    2    0    0 -0.25590651250E+02 -0.25044281389E+02 -0.19263131186E+02  0.40659140236E+02  0.00000000000E+00 0. -1.
         11    1    3    3    0    0  0.29527294117E+02  0.26572289321E+02  0.13725766070E+02  0.42027899211E+02  0.51100000000E-03 0. -1.
        -11    1    3    3    0    0 -0.38476752049E+01 -0.16614102682E+01  0.14864063151E+01  0.44468294949E+01  0.51100000000E-03 0.  1.
         12    1    3    3    0    0 -0.88967662550E-01  0.13340233611E+00  0.40509588010E+01  0.40541310580E+01  0.00000000000E+00 0. -1.
</event>
<event>
 7    1  0.2973028E-011  0.5052888E+02  0.7816164E-02  0.1300439E+00
        -11   -1    0    0    0    0  0.00000000000E+00  0.00000000000E+00  0.45593999997E+02  0.45594000000E+02  0.51100000000E-03 0.  1.
         11   -1    0    0    0    0 -0.00000000000E+00 -0.00000000000E+00 -0.45593999997E+02  0.45594000000E+02  0.51100000000E-03 0. -1.
    9900012    2    1    2    0    0  0.23873780891E+02 -0.82338194464E+01  0.31865514232E+02  0.50528878096E+02  0.30000055461E+02 0.  0.
         12    1    1    2    0    0 -0.23873780891E+02  0.82338194464E+01 -0.31865514232E+02  0.40659121904E+02  0.00000000000E+00 0. -1.
         11    1    3    3    0    0  0.81598369829E+01  0.10502137952E+02  0.10739542272E+02  0.17094315126E+02  0.51100000000E-03 0. -1.
        -11    1    3    3    0    0  0.16614619392E+02 -0.18651420174E+02  0.20668717476E+02  0.32420933584E+02  0.51100000000E-03 0.  1.
        -12    1    3    3    0    0 -0.90067548447E+00 -0.84537224177E-01  0.45725448426E+00  0.10136293869E+01  0.00000000000E+00 0.  1.
</event>
<event>
 7    1  0.2973028E-011  0.5052886E+02  0.7816164E-02  0.1300439E+00
        -11   -1    0    0    0    0  0.00000000000E+00  0.00000000000E+00  0.45593999997E+02  0.45594000000E+02  0.51100000000E-03 0.  1.
         11   -1    0    0    0    0 -0.00000000000E+00 -0.00000000000E+00 -0.45593999997E+02  0.45594000000E+02  0.51100000000E-03 0. -1.
    9900012    2    1    2    0    0  0.34972752444E+02 -0.19668192027E+02  0.65752840765E+01  0.50528861399E+02  0.30000004708E+02 0.  0.
         12    1    1    2    0    0 -0.34972752444E+02  0.19668192027E+02 -0.65752840765E+01  0.40659138601E+02  0.00000000000E+00 0. -1.
         11    1    3    3    0    0  0.25339453763E+02 -0.12339888039E+02  0.14346478170E+02  0.31625657147E+02  0.51100000000E-03 0.  1.
        -11    1    3    3    0    0  0.10162355259E+02 -0.95735421379E+01 -0.86621082873E+01  0.16430407594E+02  0.51100000000E-03 0. -1.
        -12    1    3    3    0    0 -0.52905657836E+00  0.22452381494E+01  0.89091419366E+00  0.24727966579E+01  0.00000000000E+00 0.  1.
</event>
<event>
 7    1  0.2973028E-011  0.5052886E+02  0.7816164E-02  0.1300439E+00
        -11   -1    0    0    0    0  0.00000000000E+00  0.00000000000E+00  0.45593999997E+02  0.45594000000E+02  0.51100000000E-03 0. -1.
         11   -1    0    0    0    0 -0.00000000000E+00 -0.00000000000E+00 -0.45593999997E+02  0.45594000000E+02  0.51100000000E-03 0.  1.
    9900012    2    1    2    0    0  0.14908852918E+02 -0.12916131379E+01 -0.37805071451E+02  0.50528860963E+02  0.30000003382E+02 0.  0.
         12    1    1    2    0    0 -0.14908852918E+02  0.12916131379E+01  0.37805071451E+02  0.40659139037E+02  0.00000000000E+00 0. -1.
         11    1    3    3    0    0  0.16715759690E+01  0.13183149095E+02 -0.12924339028E+02  0.18537209225E+02  0.51100000000E-03 0. -1.
        -11    1    3    3    0    0  0.56220845024E+01 -0.32903929485E+01 -0.69082949430E+01  0.94952124351E+01  0.51100000000E-03 0.  1.
         12    1    3    3    0    0  0.76151924463E+01 -0.11184369285E+02 -0.17972437481E+02  0.22496439302E+02  0.00000000000E+00 0. -1.
</event>
<event>
 7    1  0.2973028E-011  0.5052886E+02  0.7816164E-02  0.1300439E+00
        -11   -1    0    0    0    0  0.00000000000E+00  0.00000000000E+00  0.45593999997E+02  0.45594000000E+02  0.51100000000E-03 0.  1.
         11   -1    0    0    0    0 -0.00000000000E+00 -0.00000000000E+00 -0.45593999997E+02  0.45594000000E+02  0.51100000000E-03 0. -1.
    9900012    2    1    2    0    0  0.15755836247E+02 -0.37443296999E+02  0.17084503005E+01  0.50528859964E+02  0.30000000347E+02 0.  0.
         12    1    1    2    0    0 -0.15755836247E+02  0.37443296999E+02 -0.17084503005E+01  0.40659140036E+02  0.00000000000E+00 0. -1.
         11    1    3    3    0    0 -0.54534485228E+01 -0.56671125574E+01  0.30692762884E+01  0.84425542773E+01  0.51100000000E-03 0. -1.
        -11    1    3    3    0    0  0.16934728646E+02 -0.28064386528E+02 -0.76145165699E+01  0.33650790308E+02  0.51100000000E-03 0.  1.
        -12    1    3    3    0    0  0.42745561233E+01 -0.37117979141E+01  0.62536905820E+01  0.84355153786E+01  0.00000000000E+00 0.  1.
</event>
<event>
 7    1  0.2973028E-011  0.5052886E+02  0.7816164E-02  0.1300439E+00
        -11   -1    0    0    0    0  0.00000000000E+00  0.00000000000E+00  0.45593999997E+02  0.45594000000E+02  0.51100000000E-03 0. -1.
         11   -1    0    0    0    0 -0.00000000000E+00 -0.00000000000E+00 -0.45593999997E+02  0.45594000000E+02  0.51100000000E-03 0.  1.
    9900012    2    1    2    0    0  0.10528195635E+02  0.35148830391E+02 -0.17518056459E+02  0.50528862241E+02  0.30000007268E+02 0.  0.
         12    1    1    2    0    0 -0.10528195635E+02 -0.35148830391E+02  0.17518056459E+02  0.40659137759E+02  0.00000000000E+00 0. -1.
         11    1    3    3    0    0  0.67373395208E+01 -0.31490315616E+01 -0.10987287083E+01  0.75176690955E+01  0.51100000000E-03 0. -1.
        -11    1    3    3    0    0  0.64168619997E+01  0.28282330083E+02 -0.14704860070E+02  0.32516137882E+02  0.51100000000E-03 0.  1.
        -12    1    3    3    0    0 -0.26260058855E+01  0.10015531870E+02 -0.17144676810E+01  0.10495055263E+02  0.00000000000E+00 0.  1.
</event>
<event>
 7    1  0.2973028E-011  0.5052886E+02  0.7816164E-02  0.1300439E+00
        -11   -1    0    0    0    0  0.00000000000E+00  0.00000000000E+00  0.45593999997E+02  0.45594000000E+02  0.51100000000E-03 0. -1.
         11   -1    0    0    0    0 -0.00000000000E+00 -0.00000000000E+00 -0.45593999997E+02  0.45594000000E+02  0.51100000000E-03 0.  1.
    9900012    2    1    2    0    0  0.13496462132E+02 -0.16371076960E+02 -0.34684271908E+02  0.50528863650E+02  0.30000011550E+02 0.  0.
         12    1    1    2    0    0 -0.13496462132E+02  0.16371076960E+02  0.34684271908E+02  0.40659136350E+02  0.00000000000E+00 0. -1.
         11    1    3    3    0    0  0.14356258090E+02  0.16464382741E+01 -0.18255021067E+02  0.23282154105E+02  0.51100000000E-03 0. -1.
        -11    1    3    3    0    0 -0.13038848449E+01 -0.16211981540E+02 -0.18386049096E+02  0.24547408473E+02  0.51100000000E-03 0.  1.
         12    1    3    3    0    0  0.44408888764E+00 -0.18055336947E+01  0.19567982553E+01  0.26993010715E+01  0.00000000000E+00 0. -1.
</event>
<event>
 7    1  0.2973028E-011  0.5052885E+02  0.7816164E-02  0.1300439E+00
        -11   -1    0    0    0    0  0.00000000000E+00  0.00000000000E+00  0.45593999997E+02  0.45594000000E+02  0.51100000000E-03 0. -1.
         11   -1    0    0    0    0 -0.00000000000E+00 -0.00000000000E+00 -0.45593999997E+02  0.45594000000E+02  0.51100000000E-03 0.  1.
    9900012    2    1    2    0    0  0.30658167163E+02  0.26706578097E+02 -0.41338360226E-01  0.50528852981E+02  0.29999979121E+02 0.  0.
         12    1    1    2    0    0 -0.30658167163E+02 -0.26706578097E+02  0.41338360226E-01  0.40659147019E+02  0.00000000000E+00 0. -1.
         11    1    3    3    0    0 -0.25249346552E+01 -0.32966581129E+01  0.51925615755E+00  0.41848389389E+01  0.51100000000E-03 0. -1.
        -11    1    3    3    0    0  0.25983480742E+02  0.29214871897E+02 -0.46010681250E+00  0.39100661247E+02  0.51100000000E-03 0.  1.
         12    1    3    3    0    0  0.71996210765E+01  0.78836431340E+00 -0.10048770528E+00  0.72433527951E+01  0.00000000000E+00 0. -1.
</event>
<event>
 7    1  0.2973028E-011  0.5052887E+02  0.7816164E-02  0.1300439E+00
        -11   -1    0    0    0    0  0.00000000000E+00  0.00000000000E+00  0.45593999997E+02  0.45594000000E+02  0.51100000000E-03 0.  1.
         11   -1    0    0    0    0 -0.00000000000E+00 -0.00000000000E+00 -0.45593999997E+02  0.45594000000E+02  0.51100000000E-03 0. -1.
    9900012    2    1    2    0    0 -0.19997170640E+02 -0.25310512248E+02  0.24751896302E+02  0.50528865301E+02  0.30000016570E+02 0.  0.
         12    1    1    2    0    0  0.19997170640E+02  0.25310512248E+02 -0.24751896302E+02  0.40659134699E+02  0.00000000000E+00 0. -1.
         11    1    3    3    0    0 -0.72386904586E+00  0.55564564327E+01  0.98574183508E+00  0.56894535512E+01  0.51100000000E-03 0. -1.
        -11    1    3    3    0    0 -0.95590259678E+01 -0.65709845936E+01  0.97661526360E+01  0.15163461134E+02  0.51100000000E-03 0.  1.
         12    1    3    3    0    0 -0.97142756261E+01 -0.24295984088E+02  0.14000001831E+02  0.29675950617E+02  0.00000000000E+00 0. -1.
</event>
<event>
 7    1  0.2973028E-011  0.5052888E+02  0.7816164E-02  0.1300439E+00
        -11   -1    0    0    0    0  0.00000000000E+00  0.00000000000E+00  0.45593999997E+02  0.45594000000E+02  0.51100000000E-03 0.  1.
         11   -1    0    0    0    0 -0.00000000000E+00 -0.00000000000E+00 -0.45593999997E+02  0.45594000000E+02  0.51100000000E-03 0. -1.
    9900012    2    1    2    0    0 -0.29340840019E+02 -0.18352013715E+02  0.21342041616E+02  0.50528879980E+02  0.30000061188E+02 0.  0.
         12    1    1    2    0    0  0.29340840019E+02  0.18352013715E+02 -0.21342041616E+02  0.40659120020E+02  0.00000000000E+00 0. -1.
         11    1    3    3    0    0 -0.43066911177E+01 -0.44959919798E+01 -0.72518222026E+01  0.95577433416E+01  0.51100000000E-03 0. -1.
        -11    1    3    3    0    0 -0.10723658169E+02 -0.77111608993E+01  0.17139751934E+02  0.21638621573E+02  0.51100000000E-03 0.  1.
         12    1    3    3    0    0 -0.14310490733E+02 -0.61448608356E+01  0.11454111885E+02  0.19332515066E+02  0.00000000000E+00 0. -1.
</event>
<event>
 7    1  0.2973028E-011  0.5052888E+02  0.7816164E-02  0.1300439E+00
        -11   -1    0    0    0    0  0.00000000000E+00  0.00000000000E+00  0.45593999997E+02  0.45594000000E+02  0.51100000000E-03 0. -1.
         11   -1    0    0    0    0 -0.00000000000E+00 -0.00000000000E+00 -0.45593999997E+02  0.45594000000E+02  0.51100000000E-03 0.  1.
    9900012    2    1    2    0    0  0.38919327847E+02 -0.21466853828E+01 -0.11568998700E+02  0.50528879632E+02  0.30000060129E+02 0.  0.
         12    1    1    2    0    0 -0.38919327847E+02  0.21466853828E+01  0.11568998700E+02  0.40659120368E+02  0.00000000000E+00 0. -1.
         11    1    3    3    0    0  0.24911855221E+02  0.11077298134E+02 -0.12561352774E+02  0.30018238594E+02  0.51100000000E-03 0.  1.
        -11    1    3    3    0    0  0.11254369350E+02 -0.65620992142E+01 -0.89767304911E+00  0.13058629052E+02  0.51100000000E-03 0. -1.
         12    1    3    3    0    0  0.27531032754E+01 -0.66618843026E+01  0.18900271230E+01  0.74520119855E+01  0.00000000000E+00 0. -1.
</event>
<event>
 7    1  0.2973028E-011  0.5052885E+02  0.7816164E-02  0.1300439E+00
        -11   -1    0    0    0    0  0.00000000000E+00  0.00000000000E+00  0.45593999997E+02  0.45594000000E+02  0.51100000000E-03 0. -1.
         11   -1    0    0    0    0 -0.00000000000E+00 -0.00000000000E+00 -0.45593999997E+02  0.45594000000E+02  0.51100000000E-03 0.  1.
    9900012    2    1    2    0    0 -0.38169657677E+02  0.11817998431E+02  0.75218494911E+01  0.50528854979E+02  0.29999985193E+02 0.  0.
         12    1    1    2    0    0  0.38169657677E+02 -0.11817998431E+02 -0.75218494911E+01  0.40659145021E+02  0.00000000000E+00 0. -1.
         11    1    3    3    0    0 -0.16607403026E+02  0.12820853484E+02  0.20766857952E+01  0.21082996549E+02  0.51100000000E-03 0. -1.
        -11    1    3    3    0    0 -0.72670570191E+01 -0.93118166731E+01 -0.63476679262E+00  0.11828904286E+02  0.51100000000E-03 0.  1.
        -12    1    3    3    0    0 -0.14295197632E+02  0.83089616198E+01  0.60799304885E+01  0.17616954143E+02  0.00000000000E+00 0.  1.
</event>
<event>
 7    1  0.2973028E-011  0.5052886E+02  0.7816164E-02  0.1300439E+00
        -11   -1    0    0    0    0  0.00000000000E+00  0.00000000000E+00  0.45593999997E+02  0.45594000000E+02  0.51100000000E-03 0. -1.
         11   -1    0    0    0    0 -0.00000000000E+00 -0.00000000000E+00 -0.45593999997E+02  0.45594000000E+02  0.51100000000E-03 0.  1.
    9900012    2    1    2    0    0 -0.41188307982E+01 -0.30438178951E+02 -0.26640541202E+02  0.50528856619E+02  0.29999990178E+02 0.  0.
         12    1    1    2    0    0  0.41188307982E+01  0.30438178951E+02  0.26640541202E+02  0.40659143381E+02  0.00000000000E+00 0. -1.
         11    1    3    3    0    0  0.74773276989E+00 -0.19821956236E+02  0.73891993957E+00  0.19849812499E+02  0.51100000000E-03 0. -1.
        -11    1    3    3    0    0 -0.37705003399E+01 -0.11274606921E+02 -0.20636516833E+02  0.23815945526E+02  0.51100000000E-03 0.  1.
         12    1    3    3    0    0 -0.10960632282E+01  0.65838420608E+00 -0.67429443086E+01  0.68630985941E+01  0.00000000000E+00 0. -1.
</event>
<event>
 7    1  0.2973028E-011  0.5052886E+02  0.7816164E-02  0.1300439E+00
        -11   -1    0    0    0    0  0.00000000000E+00  0.00000000000E+00  0.45593999997E+02  0.45594000000E+02  0.51100000000E-03 0.  1.
         11   -1    0    0    0    0 -0.00000000000E+00 -0.00000000000E+00 -0.45593999997E+02  0.45594000000E+02  0.51100000000E-03 0. -1.
    9900012    2    1    2    0    0 -0.38556321932E+02  0.58824541296E+01  0.11487937668E+02  0.50528856633E+02  0.29999990221E+02 0.  0.
         12    1    1    2    0    0  0.38556321932E+02 -0.58824541296E+01 -0.11487937668E+02  0.40659143367E+02  0.00000000000E+00 0. -1.
         11    1    3    3    0    0  0.31927862037E+01  0.28433407495E+01 -0.37211911594E+01  0.56679567982E+01  0.51100000000E-03 0. -1.
        -11    1    3    3    0    0 -0.26496113663E+02  0.99922002529E-01  0.11537502613E+02  0.28899273182E+02  0.51100000000E-03 0.  1.
         12    1    3    3    0    0 -0.15252994472E+02  0.29391913776E+01  0.36716262150E+01  0.15961626652E+02  0.00000000000E+00 0. -1.
</event>
<event>
 7    1  0.2973028E-011  0.5052886E+02  0.7816164E-02  0.1300439E+00
        -11   -1    0    0    0    0  0.00000000000E+00  0.00000000000E+00  0.45593999997E+02  0.45594000000E+02  0.51100000000E-03 0.  1.
         11   -1    0    0    0    0 -0.00000000000E+00 -0.00000000000E+00 -0.45593999997E+02  0.45594000000E+02  0.51100000000E-03 0. -1.
    9900012    2    1    2    0    0  0.19236822815E+02  0.32675418325E+02  0.14677431512E+02  0.50528864366E+02  0.30000013726E+02 0.  0.
         12    1    1    2    0    0 -0.19236822815E+02 -0.32675418325E+02 -0.14677431512E+02  0.40659135634E+02  0.00000000000E+00 0. -1.
         11    1    3    3    0    0  0.12591274866E+02  0.15851233786E+02  0.18345979717E+02  0.27319897279E+02  0.51100000000E-03 0.  1.
        -11    1    3    3    0    0  0.16891444802E+01  0.21705054941E+01 -0.68804957199E+01  0.74098262319E+01  0.51100000000E-03 0. -1.
        -12    1    3    3    0    0  0.49564034689E+01  0.14653679046E+02  0.32119475145E+01  0.15799140855E+02  0.00000000000E+00 0.  1.
</event>
<event>
 7    1  0.2973028E-011  0.5052886E+02  0.7816164E-02  0.1300439E+00
        -11   -1    0    0    0    0  0.00000000000E+00  0.00000000000E+00  0.45593999997E+02  0.45594000000E+02  0.51100000000E-03 0.  1.
         11   -1    0    0    0    0 -0.00000000000E+00 -0.00000000000E+00 -0.45593999997E+02  0.45594000000E+02  0.51100000000E-03 0. -1.
    9900012    2    1    2    0    0  0.15351670255E+02 -0.31731275834E+02  0.20263712526E+02  0.50528859687E+02  0.29999999504E+02 0.  0.
         12    1    1    2    0    0 -0.15351670255E+02  0.31731275834E+02 -0.20263712526E+02  0.40659140313E+02  0.00000000000E+00 0. -1.
         11    1    3    3    0    0  0.90278871479E+01 -0.57008396650E+01  0.16504130173E+02  0.19656770647E+02  0.51100000000E-03 0. -1.
        -11    1    3    3    0    0  0.80358929624E+01 -0.91372679730E+01 -0.31036252942E+01  0.12557775756E+02  0.51100000000E-03 0.  1.
         12    1    3    3    0    0 -0.17121098552E+01 -0.16893168196E+02  0.68632076478E+01  0.18314313284E+02  0.00000000000E+00 0. -1.
</event>
<event>
 7    1  0.2973028E-011  0.5052886E+02  0.7816164E-02  0.1300439E+00
        -11   -1    0    0    0    0  0.00000000000E+00  0.00000000000E+00  0.45593999997E+02  0.45594000000E+02  0.51100000000E-03 0.  1.
         11   -1    0    0    0    0 -0.00000000000E+00 -0.00000000000E+00 -0.45593999997E+02  0.45594000000E+02  0.51100000000E-03 0. -1.
    9900012    2    1    2    0    0 -0.10410951541E+02 -0.35507939044E+02  0.16851240178E+02  0.50528856592E+02  0.29999990097E+02 0.  0.
         12    1    1    2    0    0  0.10410951541E+02  0.35507939044E+02 -0.16851240178E+02  0.40659143408E+02  0.00000000000E+00 0. -1.
         11    1    3    3    0    0 -0.21549550092E+01 -0.39070516235E+01  0.95724557316E+00  0.45634639068E+01  0.51100000000E-03 0. -1.
        -11    1    3    3    0    0  0.31160254662E+01 -0.27684380094E+02  0.18778083806E+02  0.33596888957E+02  0.51100000000E-03 0.  1.
        -12    1    3    3    0    0 -0.11372021998E+02 -0.39165073268E+01 -0.28840892014E+01  0.12368503728E+02  0.00000000000E+00 0.  1.
</event>
<event>
 7    1  0.2973028E-011  0.5052886E+02  0.7816164E-02  0.1300439E+00
        -11   -1    0    0    0    0  0.00000000000E+00  0.00000000000E+00  0.45593999997E+02  0.45594000000E+02  0.51100000000E-03 0. -1.
         11   -1    0    0    0    0 -0.00000000000E+00 -0.00000000000E+00 -0.45593999997E+02  0.45594000000E+02  0.51100000000E-03 0.  1.
    9900012    2    1    2    0    0  0.15006712343E+02  0.36678199197E+02  0.90925187573E+01  0.50528860695E+02  0.30000002568E+02 0.  0.
         12    1    1    2    0    0 -0.15006712343E+02 -0.36678199197E+02 -0.90925187573E+01  0.40659139305E+02  0.00000000000E+00 0. -1.
         11    1    3    3    0    0 -0.70289255808E+01  0.13236607024E+02  0.60031706363E+01  0.16144708677E+02  0.51100000000E-03 0. -1.
        -11    1    3    3    0    0  0.17512849145E+02  0.20644650460E+02  0.67836099224E+01  0.27909117536E+02  0.51100000000E-03 0.  1.
        -12    1    3    3    0    0  0.45227887788E+01  0.27969417133E+01 -0.36942618013E+01  0.64750344819E+01  0.00000000000E+00 0.  1.
</event>
<event>
 7    1  0.2973028E-011  0.5052886E+02  0.7816164E-02  0.1300439E+00
        -11   -1    0    0    0    0  0.00000000000E+00  0.00000000000E+00  0.45593999997E+02  0.45594000000E+02  0.51100000000E-03 0.  1.
         11   -1    0    0    0    0 -0.00000000000E+00 -0.00000000000E+00 -0.45593999997E+02  0.45594000000E+02  0.51100000000E-03 0. -1.
    9900012    2    1    2    0    0  0.17946070404E+02 -0.19271690212E+02  0.30979121887E+02  0.50528862288E+02  0.30000007410E+02 0.  0.
         12    1    1    2    0    0 -0.17946070404E+02  0.19271690212E+02 -0.30979121887E+02  0.40659137712E+02  0.00000000000E+00 0. -1.
         11    1    3    3    0    0  0.41080853628E+00  0.14665933237E+00 -0.28249379588E+01  0.28584169299E+01  0.51100000000E-03 0. -1.
        -11    1    3    3    0    0  0.15648876355E+02 -0.18538853174E+02  0.36766814577E+02  0.44049688564E+02  0.51100000000E-03 0.  1.
        -12    1    3    3    0    0  0.18863855130E+01 -0.87949637075E+00 -0.29627547307E+01  0.36207567944E+01  0.00000000000E+00 0.  1.
</event>
<event>
 7    1  0.2973028E-011  0.5052886E+02  0.7816164E-02  0.1300439E+00
        -11   -1    0    0    0    0  0.00000000000E+00  0.00000000000E+00  0.45593999997E+02  0.45594000000E+02  0.51100000000E-03 0. -1.
         11   -1    0    0    0    0 -0.00000000000E+00 -0.00000000000E+00 -0.45593999997E+02  0.45594000000E+02  0.51100000000E-03 0.  1.
    9900012    2    1    2    0    0  0.64636625731E+01 -0.35324972691E+02 -0.19066546445E+02  0.50528858066E+02  0.29999994577E+02 0.  0.
         12    1    1    2    0    0 -0.64636625731E+01  0.35324972691E+02  0.19066546445E+02  0.40659141934E+02  0.00000000000E+00 0. -1.
         11    1    3    3    0    0  0.63831610167E+01  0.21139542387E+01 -0.74728961237E+01  0.10052747079E+02  0.51100000000E-03 0. -1.
        -11    1    3    3    0    0  0.48936337764E+01 -0.18683973841E+02 -0.72655705471E+01  0.20635577182E+02  0.51100000000E-03 0.  1.
         12    1    3    3    0    0 -0.48131322200E+01 -0.18754953089E+02 -0.43280797742E+01  0.19840533805E+02  0.00000000000E+00 0. -1.
</event>
<event>
 7    1  0.2973028E-011  0.5052886E+02  0.7816164E-02  0.1300439E+00
        -11   -1    0    0    0    0  0.00000000000E+00  0.00000000000E+00  0.45593999997E+02  0.45594000000E+02  0.51100000000E-03 0.  1.
         11   -1    0    0    0    0 -0.00000000000E+00 -0.00000000000E+00 -0.45593999997E+02  0.45594000000E+02  0.51100000000E-03 0. -1.
    9900012    2    1    2    0    0 -0.24719442720E+02 -0.16124566513E+02  0.27966291143E+02  0.50528856699E+02  0.29999990423E+02 0.  0.
         12    1    1    2    0    0  0.24719442720E+02  0.16124566513E+02 -0.27966291143E+02  0.40659143301E+02  0.00000000000E+00 0. -1.
         11    1    3    3    0    0  0.59791570072E+01 -0.16068126308E+01  0.40978867997E+01  0.74246105509E+01  0.51100000000E-03 0. -1.
        -11    1    3    3    0    0 -0.30366384562E+02 -0.11916046333E+02  0.23968339835E+02  0.40479510697E+02  0.51100000000E-03 0.  1.
        -12    1    3    3    0    0 -0.33221516545E+00 -0.26017075491E+01 -0.99935491255E-01  0.26247354513E+01  0.00000000000E+00 0.  1.
</event>
<event>
 7    1  0.2973028E-011  0.5052885E+02  0.7816164E-02  0.1300439E+00
        -11   -1    0    0    0    0  0.00000000000E+00  0.00000000000E+00  0.45593999997E+02  0.45594000000E+02  0.51100000000E-03 0.  1.
         11   -1    0    0    0    0 -0.00000000000E+00 -0.00000000000E+00 -0.45593999997E+02  0.45594000000E+02  0.51100000000E-03 0. -1.
    9900012    2    1    2    0    0  0.29235540835E+02  0.24916809150E+02 -0.13326738108E+02  0.50528853738E+02  0.29999981422E+02 0.  0.
         12    1    1    2    0    0 -0.29235540835E+02 -0.24916809150E+02  0.13326738108E+02  0.40659146262E+02  0.00000000000E+00 0. -1.
         11    1    3    3    0    0  0.89302491159E+01  0.25738953387E+02 -0.49121538809E+01  0.27683430545E+02  0.51100000000E-03 0. -1.
        -11    1    3    3    0    0  0.92693403653E+01 -0.17635664347E+00 -0.71713150900E+01  0.11720901538E+02  0.51100000000E-03 0.  1.
         12    1    3    3    0    0  0.11035951354E+02 -0.64578759359E+00 -0.12432691365E+01  0.11124521655E+02  0.00000000000E+00 0. -1.
</event>
<event>
 7    1  0.2973028E-011  0.5052889E+02  0.7816164E-02  0.1300439E+00
        -11   -1    0    0    0    0  0.00000000000E+00  0.00000000000E+00  0.45593999997E+02  0.45594000000E+02  0.51100000000E-03 0.  1.
         11   -1    0    0    0    0 -0.00000000000E+00 -0.00000000000E+00 -0.45593999997E+02  0.45594000000E+02  0.51100000000E-03 0. -1.
    9900012    2    1    2    0    0 -0.12717833549E+02  0.97959908359E+01  0.37355839718E+02  0.50528886782E+02  0.30000081863E+02 0.  0.
         12    1    1    2    0    0  0.12717833549E+02 -0.97959908359E+01 -0.37355839718E+02  0.40659113218E+02  0.00000000000E+00 0. -1.
         11    1    3    3    0    0  0.17067888849E+01 -0.20056672002E+01  0.19416270133E+02  0.19594064799E+02  0.51100000000E-03 0. -1.
        -11    1    3    3    0    0 -0.15260900451E+02  0.48197962729E+01  0.60259577727E+01  0.17100809514E+02  0.51100000000E-03 0.  1.
        -12    1    3    3    0    0  0.83627801667E+00  0.69818617632E+01  0.11913611812E+02  0.13834012469E+02  0.00000000000E+00 0.  1.
</event>
<event>
 7    1  0.2973028E-011  0.5052887E+02  0.7816164E-02  0.1300439E+00
        -11   -1    0    0    0    0  0.00000000000E+00  0.00000000000E+00  0.45593999997E+02  0.45594000000E+02  0.51100000000E-03 0.  1.
         11   -1    0    0    0    0 -0.00000000000E+00 -0.00000000000E+00 -0.45593999997E+02  0.45594000000E+02  0.51100000000E-03 0. -1.
    9900012    2    1    2    0    0  0.16556783134E+02  0.25646216649E+02  0.26857210296E+02  0.50528865220E+02  0.30000016322E+02 0.  0.
         12    1    1    2    0    0 -0.16556783134E+02 -0.25646216649E+02 -0.26857210296E+02  0.40659134780E+02  0.00000000000E+00 0. -1.
         11    1    3    3    0    0  0.61381185442E+01  0.93967193570E+01  0.30592335530E-01  0.11223892822E+02  0.51100000000E-03 0. -1.
        -11    1    3    3    0    0  0.10691062579E+02  0.13111083804E+02  0.30245960568E+02  0.34655698933E+02  0.51100000000E-03 0.  1.
        -12    1    3    3    0    0 -0.27239798874E+00  0.31384134878E+01 -0.34193426070E+01  0.46492734646E+01  0.00000000000E+00 0.  1.
</event>
<event>
 7    1  0.2973028E-011  0.5052886E+02  0.7816164E-02  0.1300439E+00
        -11   -1    0    0    0    0  0.00000000000E+00  0.00000000000E+00  0.45593999997E+02  0.45594000000E+02  0.51100000000E-03 0.  1.
         11   -1    0    0    0    0 -0.00000000000E+00 -0.00000000000E+00 -0.45593999997E+02  0.45594000000E+02  0.51100000000E-03 0. -1.
    9900012    2    1    2    0    0 -0.31993357648E+02 -0.24924834977E+02  0.28885091031E+01  0.50528858136E+02  0.29999994792E+02 0.  0.
         12    1    1    2    0    0  0.31993357648E+02  0.24924834977E+02 -0.28885091031E+01  0.40659141864E+02  0.00000000000E+00 0. -1.
         11    1    3    3    0    0 -0.99390297741E+01 -0.14944127444E+01 -0.43397406819E+01  0.10947645032E+02  0.51100000000E-03 0. -1.
        -11    1    3    3    0    0 -0.21825595413E+02 -0.23855436015E+02 -0.36343606575E-02  0.32333240729E+02  0.51100000000E-03 0.  1.
        -12    1    3    3    0    0 -0.22873246148E+00  0.42501378231E+00  0.72318841457E+01  0.72479723752E+01  0.00000000000E+00 0.  1.
</event>
<event>
 7    1  0.2973028E-011  0.5052886E+02  0.7816164E-02  0.1300439E+00
        -11   -1    0    0    0    0  0.00000000000E+00  0.00000000000E+00  0.45593999997E+02  0.45594000000E+02  0.51100000000E-03 0. -1.
         11   -1    0    0    0    0 -0.00000000000E+00 -0.00000000000E+00 -0.45593999997E+02  0.45594000000E+02  0.51100000000E-03 0.  1.
    9900012    2    1    2    0    0 -0.13878403722E+02 -0.36494097300E+02  0.11346212698E+02  0.50528858713E+02  0.29999996543E+02 0.  0.
         12    1    1    2    0    0  0.13878403722E+02  0.36494097300E+02 -0.11346212698E+02  0.40659141287E+02  0.00000000000E+00 0. -1.
         11    1    3    3    0    0 -0.20094796385E+01  0.10912879379E+01 -0.54099596242E+01  0.58733790256E+01  0.51100000000E-03 0. -1.
        -11    1    3    3    0    0 -0.11252389336E+02 -0.28854543173E+02  0.73984103601E+01  0.31842383762E+02  0.51100000000E-03 0.  1.
        -12    1    3    3    0    0 -0.61653474783E+00 -0.87308420650E+01  0.93577619620E+01  0.12813095925E+02  0.00000000000E+00 0.  1.
</event>
<event>
 7    1  0.2973028E-011  0.5052887E+02  0.7816164E-02  0.1300439E+00
        -11   -1    0    0    0    0  0.00000000000E+00  0.00000000000E+00  0.45593999997E+02  0.45594000000E+02  0.51100000000E-03 0.  1.
         11   -1    0    0    0    0 -0.00000000000E+00 -0.00000000000E+00 -0.45593999997E+02  0.45594000000E+02  0.51100000000E-03 0. -1.
    9900012    2    1    2    0    0  0.14332513333E+02  0.84848653340E+01  0.37091119637E+02  0.50528867765E+02  0.30000024059E+02 0.  0.
         12    1    1    2    0    0 -0.14332513333E+02 -0.84848653340E+01 -0.37091119637E+02  0.40659132235E+02  0.00000000000E+00 0. -1.
         11    1    3    3    0    0  0.15421726372E+02 -0.21157565671E+01  0.71105652908E+01  0.17113334250E+02  0.51100000000E-03 0. -1.
        -11    1    3    3    0    0 -0.16072230883E+01  0.51140388836E+01  0.26174974229E+02  0.26718267831E+02  0.51100000000E-03 0.  1.
         12    1    3    3    0    0  0.51801004966E+00  0.54865830174E+01  0.38055801171E+01  0.66972656843E+01  0.00000000000E+00 0. -1.
</event>
<event>
 7    1  0.2973028E-011  0.5052885E+02  0.7816164E-02  0.1300439E+00
        -11   -1    0    0    0    0  0.00000000000E+00  0.00000000000E+00  0.45593999997E+02  0.45594000000E+02  0.51100000000E-03 0. -1.
         11   -1    0    0    0    0 -0.00000000000E+00 -0.00000000000E+00 -0.45593999997E+02  0.45594000000E+02  0.51100000000E-03 0.  1.
    9900012    2    1    2    0    0 -0.10843502713E+02  0.34649572211E+02 -0.18302794578E+02  0.50528847342E+02  0.29999961980E+02 0.  0.
         12    1    1    2    0    0  0.10843502713E+02 -0.34649572211E+02  0.18302794578E+02  0.40659152658E+02  0.00000000000E+00 0. -1.
         11    1    3    3    0    0  0.69737626611E+01  0.23830456537E+02 -0.10100052520E+02  0.26805504762E+02  0.51100000000E-03 0.  1.
        -11    1    3    3    0    0 -0.61968200225E+01  0.68933197345E+00  0.54677642262E-01  0.62352824208E+01  0.51100000000E-03 0. -1.
        -12    1    3    3    0    0 -0.11620445352E+02  0.10129783701E+02 -0.82574197003E+01  0.17488060159E+02  0.00000000000E+00 0.  1.
</event>
<event>
 7    1  0.2973028E-011  0.5052886E+02  0.7816164E-02  0.1300439E+00
        -11   -1    0    0    0    0  0.00000000000E+00  0.00000000000E+00  0.45593999997E+02  0.45594000000E+02  0.51100000000E-03 0. -1.
         11   -1    0    0    0    0 -0.00000000000E+00 -0.00000000000E+00 -0.45593999997E+02  0.45594000000E+02  0.51100000000E-03 0.  1.
    9900012    2    1    2    0    0 -0.10704390142E+02  0.16263176018E+02 -0.35694409921E+02  0.50528858813E+02  0.29999996847E+02 0.  0.
         12    1    1    2    0    0  0.10704390142E+02 -0.16263176018E+02  0.35694409921E+02  0.40659141187E+02  0.00000000000E+00 0. -1.
         11    1    3    3    0    0 -0.43566831461E+01  0.14886287419E+02 -0.74677184694E+01  0.17214791912E+02  0.51100000000E-03 0. -1.
        -11    1    3    3    0    0 -0.40985465078E+01  0.55931636734E+01 -0.27643540644E+02  0.28499945666E+02  0.51100000000E-03 0.  1.
         12    1    3    3    0    0 -0.22491604876E+01 -0.42162750747E+01 -0.58315080760E+00  0.48141212354E+01  0.00000000000E+00 0. -1.
</event>
<event>
 7    1  0.2973028E-011  0.5052886E+02  0.7816164E-02  0.1300439E+00
        -11   -1    0    0    0    0  0.00000000000E+00  0.00000000000E+00  0.45593999997E+02  0.45594000000E+02  0.51100000000E-03 0.  1.
         11   -1    0    0    0    0 -0.00000000000E+00 -0.00000000000E+00 -0.45593999997E+02  0.45594000000E+02  0.51100000000E-03 0. -1.
    9900012    2    1    2    0    0 -0.85747572493E+01 -0.24946010594E+01  0.39666305803E+02  0.50528864343E+02  0.30000013657E+02 0.  0.
         12    1    1    2    0    0  0.85747572493E+01  0.24946010594E+01 -0.39666305803E+02  0.40659135657E+02  0.00000000000E+00 0. -1.
         11    1    3    3    0    0  0.15607714713E+01 -0.39803903156E+01  0.20913273030E+02  0.21345831062E+02  0.51100000000E-03 0. -1.
        -11    1    3    3    0    0 -0.15949782925E+02  0.41909027397E+00  0.10771627438E+02  0.19250952442E+02  0.51100000000E-03 0.  1.
        -12    1    3    3    0    0  0.58142542041E+01  0.10666989822E+01  0.79814053349E+01  0.99320808388E+01  0.00000000000E+00 0.  1.
</event>
<event>
 7    1  0.2973028E-011  0.5052887E+02  0.7816164E-02  0.1300439E+00
        -11   -1    0    0    0    0  0.00000000000E+00  0.00000000000E+00  0.45593999997E+02  0.45594000000E+02  0.51100000000E-03 0.  1.
         11   -1    0    0    0    0 -0.00000000000E+00 -0.00000000000E+00 -0.45593999997E+02  0.45594000000E+02  0.51100000000E-03 0. -1.
    9900012    2    1    2    0    0 -0.33683771704E+02  0.63795661633E+01  0.21860235939E+02  0.50528865037E+02  0.30000015766E+02 0.  0.
         12    1    1    2    0    0  0.33683771704E+02 -0.63795661633E+01 -0.21860235939E+02  0.40659134963E+02  0.00000000000E+00 0. -1.
         11    1    3    3    0    0 -0.80257131153E+01  0.55550508746E+01 -0.44729703665E+01  0.10736765127E+02  0.51100000000E-03 0. -1.
        -11    1    3    3    0    0 -0.19682379796E+02  0.33834485651E+01  0.26627817387E+02  0.33284898342E+02  0.51100000000E-03 0.  1.
        -12    1    3    3    0    0 -0.59756787930E+01 -0.25589332764E+01 -0.29461108144E+00  0.65072015675E+01  0.00000000000E+00 0.  1.
</event>
<event>
 7    1  0.2973028E-011  0.5052884E+02  0.7816164E-02  0.1300439E+00
        -11   -1    0    0    0    0  0.00000000000E+00  0.00000000000E+00  0.45593999997E+02  0.45594000000E+02  0.51100000000E-03 0.  1.
         11   -1    0    0    0    0 -0.00000000000E+00 -0.00000000000E+00 -0.45593999997E+02  0.45594000000E+02  0.51100000000E-03 0. -1.
    9900012    2    1    2    0    0  0.33423595930E+02  0.19900684154E+02  0.11831870590E+02  0.50528841667E+02  0.29999944730E+02 0.  0.
         12    1    1    2    0    0 -0.33423595930E+02 -0.19900684154E+02 -0.11831870590E+02  0.40659158333E+02  0.00000000000E+00 0. -1.
         11    1    3    3    0    0  0.19690666196E+02 -0.17562308958E+01  0.90169120943E+01  0.21728124313E+02  0.51100000000E-03 0. -1.
        -11    1    3    3    0    0  0.58094111698E+01  0.19584990567E+02  0.12826074574E+01  0.20468663752E+02  0.51100000000E-03 0.  1.
        -12    1    3    3    0    0  0.79235185644E+01  0.20719244831E+01  0.15323510384E+01  0.83320536010E+01  0.00000000000E+00 0.  1.
</event>
<event>
 7    1  0.2973028E-011  0.5052886E+02  0.7816164E-02  0.1300439E+00
        -11   -1    0    0    0    0  0.00000000000E+00  0.00000000000E+00  0.45593999997E+02  0.45594000000E+02  0.51100000000E-03 0.  1.
         11   -1    0    0    0    0 -0.00000000000E+00 -0.00000000000E+00 -0.45593999997E+02  0.45594000000E+02  0.51100000000E-03 0. -1.
    9900012    2    1    2    0    0 -0.12233699284E+02 -0.95351351135E+00  0.38763298521E+02  0.50528857136E+02  0.29999991750E+02 0.  0.
         12    1    1    2    0    0  0.12233699284E+02  0.95351351135E+00 -0.38763298521E+02  0.40659142864E+02  0.00000000000E+00 0. -1.
         11    1    3    3    0    0 -0.57570178667E+01 -0.10551269565E+02  0.14488767292E+02  0.18825432852E+02  0.51100000000E-03 0. -1.
        -11    1    3    3    0    0  0.49678708230E+00  0.12437842639E+02  0.11916666639E+02  0.17232343745E+02  0.51100000000E-03 0.  1.
         12    1    3    3    0    0 -0.69734684994E+01 -0.28400865851E+01  0.12357864590E+02  0.14471080539E+02  0.00000000000E+00 0. -1.
</event>
<event>
 7    1  0.2973028E-011  0.5052886E+02  0.7816164E-02  0.1300439E+00
        -11   -1    0    0    0    0  0.00000000000E+00  0.00000000000E+00  0.45593999997E+02  0.45594000000E+02  0.51100000000E-03 0.  1.
         11   -1    0    0    0    0 -0.00000000000E+00 -0.00000000000E+00 -0.45593999997E+02  0.45594000000E+02  0.51100000000E-03 0. -1.
    9900012    2    1    2    0    0 -0.19117785685E+02 -0.25504861531E+02  0.25242376971E+02  0.50528864663E+02  0.30000014628E+02 0.  0.
         12    1    1    2    0    0  0.19117785685E+02  0.25504861531E+02 -0.25242376971E+02  0.40659135337E+02  0.00000000000E+00 0. -1.
         11    1    3    3    0    0 -0.12019122660E+02 -0.17827878613E+02 -0.84618481981E+00  0.21517634498E+02  0.51100000000E-03 0. -1.
        -11    1    3    3    0    0 -0.57041532855E+01 -0.89894115476E+01  0.20433314109E+02  0.23040555775E+02  0.51100000000E-03 0.  1.
         12    1    3    3    0    0 -0.13945097391E+01  0.13124286298E+01  0.56552476819E+01  0.59706743894E+01  0.00000000000E+00 0. -1.
</event>
<event>
 7    1  0.2973028E-011  0.5052886E+02  0.7816164E-02  0.1300439E+00
        -11   -1    0    0    0    0  0.00000000000E+00  0.00000000000E+00  0.45593999997E+02  0.45594000000E+02  0.51100000000E-03 0. -1.
         11   -1    0    0    0    0 -0.00000000000E+00 -0.00000000000E+00 -0.45593999997E+02  0.45594000000E+02  0.51100000000E-03 0.  1.
    9900012    2    1    2    0    0  0.16366085418E+02  0.59531585957E+01 -0.36740672558E+02  0.50528857496E+02  0.29999992845E+02 0.  0.
         12    1    1    2    0    0 -0.16366085418E+02 -0.59531585957E+01  0.36740672558E+02  0.40659142504E+02  0.00000000000E+00 0. -1.
         11    1    3    3    0    0  0.73793173629E+01 -0.98200827751E+00  0.14676047466E+01  0.75876563544E+01  0.51100000000E-03 0. -1.
        -11    1    3    3    0    0 -0.29559489198E+01  0.67992380480E+01 -0.11481483793E+02  0.13667177558E+02  0.51100000000E-03 0.  1.
        -12    1    3    3    0    0  0.11942716975E+02  0.13592882523E+00 -0.26726793511E+02  0.29274023584E+02  0.00000000000E+00 0.  1.
</event>
<event>
 7    1  0.2973028E-011  0.5052886E+02  0.7816164E-02  0.1300439E+00
        -11   -1    0    0    0    0  0.00000000000E+00  0.00000000000E+00  0.45593999997E+02  0.45594000000E+02  0.51100000000E-03 0.  1.
         11   -1    0    0    0    0 -0.00000000000E+00 -0.00000000000E+00 -0.45593999997E+02  0.45594000000E+02  0.51100000000E-03 0. -1.
    9900012    2    1    2    0    0  0.15310816804E+02 -0.36351807378E+02 -0.98636070523E+01  0.50528858901E+02  0.29999997115E+02 0.  0.
         12    1    1    2    0    0 -0.15310816804E+02  0.36351807378E+02  0.98636070523E+01  0.40659141099E+02  0.00000000000E+00 0. -1.
         11    1    3    3    0    0  0.19849417227E+00 -0.18000044662E+02 -0.25172025145E+01  0.18176284453E+02  0.51100000000E-03 0. -1.
        -11    1    3    3    0    0  0.19268672323E+02 -0.11169050718E+02 -0.87635505032E+01  0.23933851439E+02  0.51100000000E-03 0.  1.
        -12    1    3    3    0    0 -0.41563496915E+01 -0.71827119983E+01  0.14171459654E+01  0.84187230086E+01  0.00000000000E+00 0.  1.
</event>
<event>
 7    1  0.2973028E-011  0.5052886E+02  0.7816164E-02  0.1300439E+00
        -11   -1    0    0    0    0  0.00000000000E+00  0.00000000000E+00  0.45593999997E+02  0.45594000000E+02  0.51100000000E-03 0.  1.
         11   -1    0    0    0    0 -0.00000000000E+00 -0.00000000000E+00 -0.45593999997E+02  0.45594000000E+02  0.51100000000E-03 0. -1.
    9900012    2    1    2    0    0  0.38273584878E+02  0.13443862748E+02 -0.27497118342E+01  0.50528860066E+02  0.30000000657E+02 0.  0.
         12    1    1    2    0    0 -0.38273584878E+02 -0.13443862748E+02  0.27497118342E+01  0.40659139934E+02  0.00000000000E+00 0. -1.
         11    1    3    3    0    0  0.14039148632E+02  0.17730202722E+02  0.45089566391E+01  0.23060539307E+02  0.51100000000E-03 0. -1.
        -11    1    3    3    0    0  0.86084656185E+01  0.12366113817E+01  0.13362980729E+01  0.87988965681E+01  0.51100000000E-03 0.  1.
         12    1    3    3    0    0  0.15625970627E+02 -0.55229513552E+01 -0.85949665462E+01  0.18669424191E+02  0.00000000000E+00 0. -1.
</event>
<event>
 7    1  0.2973028E-011  0.5052886E+02  0.7816164E-02  0.1300439E+00
        -11   -1    0    0    0    0  0.00000000000E+00  0.00000000000E+00  0.45593999997E+02  0.45594000000E+02  0.51100000000E-03 0. -1.
         11   -1    0    0    0    0 -0.00000000000E+00 -0.00000000000E+00 -0.45593999997E+02  0.45594000000E+02  0.51100000000E-03 0.  1.
    9900012    2    1    2    0    0  0.25775930721E+02 -0.49898897966E+00 -0.31440710939E+02  0.50528857131E+02  0.29999991735E+02 0.  0.
         12    1    1    2    0    0 -0.25775930721E+02  0.49898897966E+00  0.31440710939E+02  0.40659142869E+02  0.00000000000E+00 0. -1.
         11    1    3    3    0    0 -0.38275742213E+01  0.97184778426E+00 -0.10023025272E+02  0.10772921999E+02  0.51100000000E-03 0. -1.
        -11    1    3    3    0    0  0.14613171205E+02 -0.24548421117E+01 -0.19677619886E+02  0.24632899689E+02  0.51100000000E-03 0.  1.
         12    1    3    3    0    0  0.14990333737E+02  0.98400534776E+00 -0.17400657811E+01  0.15123035443E+02  0.00000000000E+00 0. -1.
</event>
<event>
 7    1  0.2973028E-011  0.5052885E+02  0.7816164E-02  0.1300439E+00
        -11   -1    0    0    0    0  0.00000000000E+00  0.00000000000E+00  0.45593999997E+02  0.45594000000E+02  0.51100000000E-03 0.  1.
         11   -1    0    0    0    0 -0.00000000000E+00 -0.00000000000E+00 -0.45593999997E+02  0.45594000000E+02  0.51100000000E-03 0. -1.
    9900012    2    1    2    0    0  0.29731346915E+02 -0.40826984992E+01  0.27432551637E+02  0.50528852128E+02  0.29999976528E+02 0.  0.
         12    1    1    2    0    0 -0.29731346915E+02  0.40826984992E+01 -0.27432551637E+02  0.40659147872E+02  0.00000000000E+00 0. -1.
         11    1    3    3    0    0  0.48891100984E+01 -0.68812448747E+01  0.30681504198E+01  0.89815631067E+01  0.51100000000E-03 0. -1.
        -11    1    3    3    0    0  0.58949189665E+01  0.52724729559E+01  0.20607908402E+02  0.22073398688E+02  0.51100000000E-03 0.  1.
        -12    1    3    3    0    0  0.18947317850E+02 -0.24739265804E+01  0.37564928152E+01  0.19473890333E+02  0.00000000000E+00 0.  1.
</event>
<event>
 7    1  0.2973028E-011  0.5052887E+02  0.7816164E-02  0.1300439E+00
        -11   -1    0    0    0    0  0.00000000000E+00  0.00000000000E+00  0.45593999997E+02  0.45594000000E+02  0.51100000000E-03 0.  1.
         11   -1    0    0    0    0 -0.00000000000E+00 -0.00000000000E+00 -0.45593999997E+02  0.45594000000E+02  0.51100000000E-03 0. -1.
    9900012    2    1    2    0    0 -0.21825464228E+02  0.34259608163E+02 -0.17587640881E+01  0.50528869520E+02  0.30000029394E+02 0.  0.
         12    1    1    2    0    0  0.21825464228E+02 -0.34259608163E+02  0.17587640881E+01  0.40659130480E+02  0.00000000000E+00 0. -1.
         11    1    3    3    0    0  0.33589054496E+01  0.93243941554E+01 -0.57372302770E+00  0.99275238886E+01  0.51100000000E-03 0. -1.
        -11    1    3    3    0    0 -0.22343634687E+02  0.19068394053E+02 -0.87171325685E+01  0.30640333928E+02  0.51100000000E-03 0.  1.
        -12    1    3    3    0    0 -0.28407349912E+01  0.58668199547E+01  0.75320915081E+01  0.99610117035E+01  0.00000000000E+00 0.  1.
</event>
<event>
 7    1  0.2973028E-011  0.5052898E+02  0.7816164E-02  0.1300438E+00
        -11   -1    0    0    0    0  0.00000000000E+00  0.00000000000E+00  0.45593999997E+02  0.45594000000E+02  0.51100000000E-03 0.  1.
         11   -1    0    0    0    0 -0.00000000000E+00 -0.00000000000E+00 -0.45593999997E+02  0.45594000000E+02  0.51100000000E-03 0. -1.
    9900012    2    1    2    0    0 -0.30096124270E+02  0.13490747027E+02  0.23777691196E+02  0.50528984394E+02  0.30000378562E+02 0.  0.
         12    1    1    2    0    0  0.30096124270E+02 -0.13490747027E+02 -0.23777691196E+02  0.40659015606E+02  0.00000000000E+00 0. -1.
         11    1    3    3    0    0  0.61520961273E+00  0.33274323539E+01  0.39793825199E+01  0.52235787003E+01  0.51100000000E-03 0. -1.
        -11    1    3    3    0    0 -0.31107833348E+02  0.15853523052E+02  0.15702226149E+02  0.38283043179E+02  0.51100000000E-03 0.  1.
        -12    1    3    3    0    0  0.39649946497E+00 -0.56902083788E+01  0.40960825275E+01  0.70223625150E+01  0.00000000000E+00 0.  1.
</event>
<event>
 7    1  0.2973028E-011  0.5052886E+02  0.7816164E-02  0.1300439E+00
        -11   -1    0    0    0    0  0.00000000000E+00  0.00000000000E+00  0.45593999997E+02  0.45594000000E+02  0.51100000000E-03 0.  1.
         11   -1    0    0    0    0 -0.00000000000E+00 -0.00000000000E+00 -0.45593999997E+02  0.45594000000E+02  0.51100000000E-03 0. -1.
    9900012    2    1    2    0    0  0.38599975993E+01 -0.20958477092E+02  0.34626704140E+02  0.50528856095E+02  0.29999988585E+02 0.  0.
         12    1    1    2    0    0 -0.38599975993E+01  0.20958477092E+02 -0.34626704140E+02  0.40659143905E+02  0.00000000000E+00 0. -1.
         11    1    3    3    0    0  0.13650204388E+02 -0.12044689326E+02  0.13855484977E+02  0.22877436155E+02  0.51100000000E-03 0. -1.
        -11    1    3    3    0    0 -0.59073509616E+01 -0.11421030873E+02  0.18424684197E+02  0.22467882179E+02  0.51100000000E-03 0.  1.
         12    1    3    3    0    0 -0.38828558275E+01  0.25072431066E+01  0.23465349665E+01  0.51835377612E+01  0.00000000000E+00 0. -1.
</event>
<event>
 7    1  0.2973028E-011  0.5052885E+02  0.7816164E-02  0.1300439E+00
        -11   -1    0    0    0    0  0.00000000000E+00  0.00000000000E+00  0.45593999997E+02  0.45594000000E+02  0.51100000000E-03 0. -1.
         11   -1    0    0    0    0 -0.00000000000E+00 -0.00000000000E+00 -0.45593999997E+02  0.45594000000E+02  0.51100000000E-03 0.  1.
    9900012    2    1    2    0    0  0.30812986976E+02  0.22424702947E+02 -0.14172467397E+02  0.50528852189E+02  0.29999976713E+02 0.  0.
         12    1    1    2    0    0 -0.30812986976E+02 -0.22424702947E+02  0.14172467397E+02  0.40659147811E+02  0.00000000000E+00 0. -1.
         11    1    3    3    0    0  0.22298072327E+02  0.20909517262E+02  0.19936609919E+00  0.30568802539E+02  0.51100000000E-03 0. -1.
        -11    1    3    3    0    0  0.10124319158E+02 -0.15977315543E+01 -0.96300616528E+01  0.14063878279E+02  0.51100000000E-03 0.  1.
         12    1    3    3    0    0 -0.16094045093E+01  0.31129172396E+01 -0.47417718437E+01  0.58961713707E+01  0.00000000000E+00 0. -1.
</event>
<event>
 7    1  0.2973028E-011  0.5052880E+02  0.7816164E-02  0.1300439E+00
        -11   -1    0    0    0    0  0.00000000000E+00  0.00000000000E+00  0.45593999997E+02  0.45594000000E+02  0.51100000000E-03 0.  1.
         11   -1    0    0    0    0 -0.00000000000E+00 -0.00000000000E+00 -0.45593999997E+02  0.45594000000E+02  0.51100000000E-03 0. -1.
    9900012    2    1    2    0    0 -0.11033676876E+02  0.69586602573E+01  0.38509810269E+02  0.50528800981E+02  0.29999821060E+02 0.  0.
         12    1    1    2    0    0  0.11033676876E+02 -0.69586602573E+01 -0.38509810269E+02  0.40659199019E+02  0.00000000000E+00 0. -1.
         11    1    3    3    0    0 -0.15254625522E+02  0.96502665638E+01  0.20754786241E+02  0.27506224691E+02  0.51100000000E-03 0. -1.
        -11    1    3    3    0    0  0.92532089050E+01 -0.10588273223E+01  0.10375215560E+02  0.13942312883E+02  0.51100000000E-03 0.  1.
        -12    1    3    3    0    0 -0.50322602591E+01 -0.16327789841E+01  0.73798084672E+01  0.90802634069E+01  0.00000000000E+00 0.  1.
</event>
<event>
 7    1  0.2973028E-011  0.5052886E+02  0.7816164E-02  0.1300439E+00
        -11   -1    0    0    0    0  0.00000000000E+00  0.00000000000E+00  0.45593999997E+02  0.45594000000E+02  0.51100000000E-03 0. -1.
         11   -1    0    0    0    0 -0.00000000000E+00 -0.00000000000E+00 -0.45593999997E+02  0.45594000000E+02  0.51100000000E-03 0.  1.
    9900012    2    1    2    0    0  0.18839887243E+02 -0.20068272557E+02 -0.29924718449E+02  0.50528859711E+02  0.29999999578E+02 0.  0.
         12    1    1    2    0    0 -0.18839887243E+02  0.20068272557E+02  0.29924718449E+02  0.40659140289E+02  0.00000000000E+00 0. -1.
         11    1    3    3    0    0  0.25116309269E+02 -0.16934950531E+02 -0.17630143956E+02  0.35049158577E+02  0.51100000000E-03 0. -1.
        -11    1    3    3    0    0 -0.52671402813E+01 -0.13964766112E+00 -0.40349274513E+01  0.66364831056E+01  0.51100000000E-03 0.  1.
         12    1    3    3    0    0 -0.10092817447E+01 -0.29936743646E+01 -0.82596470420E+01  0.88432180285E+01  0.00000000000E+00 0. -1.
</event>
<event>
 7    1  0.2973028E-011  0.5052888E+02  0.7816164E-02  0.1300439E+00
        -11   -1    0    0    0    0  0.00000000000E+00  0.00000000000E+00  0.45593999997E+02  0.45594000000E+02  0.51100000000E-03 0.  1.
         11   -1    0    0    0    0 -0.00000000000E+00 -0.00000000000E+00 -0.45593999997E+02  0.45594000000E+02  0.51100000000E-03 0. -1.
    9900012    2    1    2    0    0  0.15469944365E+02 -0.37366345204E+01  0.37415000078E+02  0.50528882363E+02  0.30000068430E+02 0.  0.
         12    1    1    2    0    0 -0.15469944365E+02  0.37366345204E+01 -0.37415000078E+02  0.40659117637E+02  0.00000000000E+00 0. -1.
         11    1    3    3    0    0 -0.47581571674E+01 -0.46322915246E+01  0.88836662611E+00  0.66998044689E+01  0.51100000000E-03 0. -1.
        -11    1    3    3    0    0  0.21597876396E+02  0.14145450721E+01  0.29141500496E+02  0.36300086143E+02  0.51100000000E-03 0.  1.
        -12    1    3    3    0    0 -0.13697748638E+01 -0.51888806790E+00  0.73851329557E+01  0.75289917505E+01  0.00000000000E+00 0.  1.
</event>
<event>
 7    1  0.2973028E-011  0.5052886E+02  0.7816164E-02  0.1300439E+00
        -11   -1    0    0    0    0  0.00000000000E+00  0.00000000000E+00  0.45593999997E+02  0.45594000000E+02  0.51100000000E-03 0.  1.
         11   -1    0    0    0    0 -0.00000000000E+00 -0.00000000000E+00 -0.45593999997E+02  0.45594000000E+02  0.51100000000E-03 0. -1.
    9900012    2    1    2    0    0 -0.37112326344E+02  0.13570880319E+02 -0.95745602467E+01  0.50528858798E+02  0.29999996804E+02 0.  0.
         12    1    1    2    0    0  0.37112326344E+02 -0.13570880319E+02  0.95745602467E+01  0.40659141202E+02  0.00000000000E+00 0. -1.
         11    1    3    3    0    0  0.15112257830E+01 -0.14152316531E+01  0.23011683288E+01  0.30954902581E+01  0.51100000000E-03 0. -1.
        -11    1    3    3    0    0 -0.40570135229E+02  0.11931070073E+02 -0.10643086901E+02  0.43606898590E+02  0.51100000000E-03 0.  1.
        -12    1    3    3    0    0  0.19465831018E+01  0.30550419000E+01 -0.12326416746E+01  0.38264699504E+01  0.00000000000E+00 0.  1.
</event>
<event>
 7    1  0.2973028E-011  0.5052886E+02  0.7816164E-02  0.1300439E+00
        -11   -1    0    0    0    0  0.00000000000E+00  0.00000000000E+00  0.45593999997E+02  0.45594000000E+02  0.51100000000E-03 0.  1.
         11   -1    0    0    0    0 -0.00000000000E+00 -0.00000000000E+00 -0.45593999997E+02  0.45594000000E+02  0.51100000000E-03 0. -1.
    9900012    2    1    2    0    0 -0.24307297842E+02  0.10165746658E+02  0.30967375979E+02  0.50528861931E+02  0.30000006326E+02 0.  0.
         12    1    1    2    0    0  0.24307297842E+02 -0.10165746658E+02 -0.30967375979E+02  0.40659138069E+02  0.00000000000E+00 0. -1.
         11    1    3    3    0    0 -0.14082005224E+02 -0.66691437635E+01  0.12862917194E+02  0.20204825876E+02  0.51100000000E-03 0. -1.
        -11    1    3    3    0    0 -0.68692221436E+01  0.11456476434E+02  0.26479939571E+01  0.13617963776E+02  0.51100000000E-03 0.  1.
        -12    1    3    3    0    0 -0.33560704741E+01  0.53784139874E+01  0.15456464828E+02  0.16706072280E+02  0.00000000000E+00 0.  1.
</event>
<event>
 7    1  0.2973028E-011  0.5052886E+02  0.7816164E-02  0.1300439E+00
        -11   -1    0    0    0    0  0.00000000000E+00  0.00000000000E+00  0.45593999997E+02  0.45594000000E+02  0.51100000000E-03 0.  1.
         11   -1    0    0    0    0 -0.00000000000E+00 -0.00000000000E+00 -0.45593999997E+02  0.45594000000E+02  0.51100000000E-03 0. -1.
    9900012    2    1    2    0    0 -0.37496112859E+02 -0.82434540270E+01 -0.13388517664E+02  0.50528863031E+02  0.30000009668E+02 0.  0.
         12    1    1    2    0    0  0.37496112859E+02  0.82434540270E+01  0.13388517664E+02  0.40659136969E+02  0.00000000000E+00 0. -1.
         11    1    3    3    0    0 -0.80313359594E+01  0.91016448746E+01  0.20071398737E+00  0.12140122861E+02  0.51100000000E-03 0. -1.
        -11    1    3    3    0    0 -0.25738849509E+02 -0.13211012912E+02 -0.70044777229E+01  0.29767128593E+02  0.51100000000E-03 0.  1.
         12    1    3    3    0    0 -0.37259273909E+01 -0.41340859892E+01 -0.65847539282E+01  0.86216115769E+01  0.00000000000E+00 0. -1.
</event>
<event>
 7    1  0.2973028E-011  0.5052886E+02  0.7816164E-02  0.1300439E+00
        -11   -1    0    0    0    0  0.00000000000E+00  0.00000000000E+00  0.45593999997E+02  0.45594000000E+02  0.51100000000E-03 0.  1.
         11   -1    0    0    0    0 -0.00000000000E+00 -0.00000000000E+00 -0.45593999997E+02  0.45594000000E+02  0.51100000000E-03 0. -1.
    9900012    2    1    2    0    0 -0.35119251668E+02 -0.16710934733E+02  0.11855308734E+02  0.50528861759E+02  0.30000005801E+02 0.  0.
         12    1    1    2    0    0  0.35119251668E+02  0.16710934733E+02 -0.11855308734E+02  0.40659138241E+02  0.00000000000E+00 0. -1.
         11    1    3    3    0    0 -0.19368939775E+01 -0.62427332897E+01  0.31178090460E+00  0.65437363028E+01  0.51100000000E-03 0. -1.
        -11    1    3    3    0    0 -0.30843457980E+02 -0.95690474411E+01  0.12406996114E+00  0.32293977189E+02  0.51100000000E-03 0.  1.
        -12    1    3    3    0    0 -0.23388997102E+01 -0.89915400203E+00  0.11419457869E+02  0.11691148266E+02  0.00000000000E+00 0.  1.
</event>
<event>
 7    1  0.2973028E-011  0.5052886E+02  0.7816164E-02  0.1300439E+00
        -11   -1    0    0    0    0  0.00000000000E+00  0.00000000000E+00  0.45593999997E+02  0.45594000000E+02  0.51100000000E-03 0. -1.
         11   -1    0    0    0    0 -0.00000000000E+00 -0.00000000000E+00 -0.45593999997E+02  0.45594000000E+02  0.51100000000E-03 0.  1.
    9900012    2    1    2    0    0  0.38285932081E+02  0.13562833200E+01 -0.13620340243E+02  0.50528858738E+02  0.29999996621E+02 0.  0.
         12    1    1    2    0    0 -0.38285932081E+02 -0.13562833200E+01  0.13620340243E+02  0.40659141262E+02  0.00000000000E+00 0. -1.
         11    1    3    3    0    0 -0.67231312732E+00 -0.26133598090E+01 -0.77425910289E+01  0.81993518362E+01  0.51100000000E-03 0. -1.
        -11    1    3    3    0    0  0.37474889573E+02 -0.18009170141E+00 -0.47070903659E+01  0.37769782651E+02  0.51100000000E-03 0.  1.
        -12    1    3    3    0    0  0.14833556352E+01  0.41497348304E+01 -0.11706588486E+01  0.45597242508E+01  0.00000000000E+00 0.  1.
</event>
<event>
 7    1  0.2973028E-011  0.5052886E+02  0.7816164E-02  0.1300439E+00
        -11   -1    0    0    0    0  0.00000000000E+00  0.00000000000E+00  0.45593999997E+02  0.45594000000E+02  0.51100000000E-03 0.  1.
         11   -1    0    0    0    0 -0.00000000000E+00 -0.00000000000E+00 -0.45593999997E+02  0.45594000000E+02  0.51100000000E-03 0. -1.
    9900012    2    1    2    0    0  0.37794900871E+02 -0.27981777107E+01  0.14726902304E+02  0.50528856110E+02  0.29999988633E+02 0.  0.
         12    1    1    2    0    0 -0.37794900871E+02  0.27981777107E+01 -0.14726902304E+02  0.40659143890E+02  0.00000000000E+00 0. -1.
         11    1    3    3    0    0  0.29164577354E+01  0.43518282119E+01 -0.64947253292E+01  0.83441951003E+01  0.51100000000E-03 0. -1.
        -11    1    3    3    0    0  0.21047914996E+02 -0.27529298578E+01  0.84318927242E+01  0.22840537727E+02  0.51100000000E-03 0.  1.
         12    1    3    3    0    0  0.13830528140E+02 -0.43970760648E+01  0.12789734909E+02  0.19344123283E+02  0.00000000000E+00 0. -1.
</event>
<event>
 7    1  0.2973028E-011  0.5052887E+02  0.7816164E-02  0.1300439E+00
        -11   -1    0    0    0    0  0.00000000000E+00  0.00000000000E+00  0.45593999997E+02  0.45594000000E+02  0.51100000000E-03 0.  1.
         11   -1    0    0    0    0 -0.00000000000E+00 -0.00000000000E+00 -0.45593999997E+02  0.45594000000E+02  0.51100000000E-03 0. -1.
    9900012    2    1    2    0    0  0.40467140934E+02  0.28518293780E+00  0.39362817809E+01  0.50528866476E+02  0.30000020140E+02 0.  0.
         12    1    1    2    0    0 -0.40467140934E+02 -0.28518293780E+00 -0.39362817809E+01  0.40659133524E+02  0.00000000000E+00 0. -1.
         11    1    3    3    0    0  0.47765190269E+01  0.13826081877E+01  0.46286886725E+01  0.67934894203E+01  0.51100000000E-03 0. -1.
        -11    1    3    3    0    0  0.25293999183E+02  0.70085192234E+01 -0.94635208363E+01  0.27900967066E+02  0.51100000000E-03 0.  1.
        -12    1    3    3    0    0  0.10396622724E+02 -0.81059444733E+01  0.87711139447E+01  0.15834409989E+02  0.00000000000E+00 0.  1.
</event>
<event>
 7    1  0.2973028E-011  0.5052884E+02  0.7816164E-02  0.1300439E+00
        -11   -1    0    0    0    0  0.00000000000E+00  0.00000000000E+00  0.45593999997E+02  0.45594000000E+02  0.51100000000E-03 0. -1.
         11   -1    0    0    0    0 -0.00000000000E+00 -0.00000000000E+00 -0.45593999997E+02  0.45594000000E+02  0.51100000000E-03 0.  1.
    9900012    2    1    2    0    0  0.18439711836E+00 -0.25334618564E+02 -0.31800792404E+02  0.50528839929E+02  0.29999939449E+02 0.  0.
         12    1    1    2    0    0 -0.18439711836E+00  0.25334618564E+02  0.31800792404E+02  0.40659160071E+02  0.00000000000E+00 0. -1.
         11    1    3    3    0    0  0.98578230956E+01 -0.14153784166E+02 -0.29152918286E+01  0.17493004576E+02  0.51100000000E-03 0. -1.
        -11    1    3    3    0    0 -0.17905442599E+01 -0.31783370015E+01 -0.13511863666E+02  0.13995654141E+02  0.51100000000E-03 0.  1.
         12    1    3    3    0    0 -0.78828817174E+01 -0.80024973971E+01 -0.15373636910E+02  0.19040181212E+02  0.00000000000E+00 0. -1.
</event>
<event>
 7    1  0.2973028E-011  0.5052886E+02  0.7816164E-02  0.1300439E+00
        -11   -1    0    0    0    0  0.00000000000E+00  0.00000000000E+00  0.45593999997E+02  0.45594000000E+02  0.51100000000E-03 0.  1.
         11   -1    0    0    0    0 -0.00000000000E+00 -0.00000000000E+00 -0.45593999997E+02  0.45594000000E+02  0.51100000000E-03 0. -1.
    9900012    2    1    2    0    0 -0.30045355918E+02 -0.15454310497E+02  0.22618713104E+02  0.50528864401E+02  0.30000013833E+02 0.  0.
         12    1    1    2    0    0  0.30045355918E+02  0.15454310497E+02 -0.22618713104E+02  0.40659135599E+02  0.00000000000E+00 0. -1.
         11    1    3    3    0    0 -0.69242241639E+01  0.51975275757E+01  0.10481736396E+02  0.13595071582E+02  0.51100000000E-03 0. -1.
        -11    1    3    3    0    0 -0.29962009593E+01 -0.12754558009E+02  0.28701777139E+01  0.13412452817E+02  0.51100000000E-03 0.  1.
        -12    1    3    3    0    0 -0.20124930795E+02 -0.78972800640E+01  0.92667989943E+01  0.23521340002E+02  0.00000000000E+00 0.  1.
</event>
<event>
 7    1  0.2973028E-011  0.5052887E+02  0.7816164E-02  0.1300439E+00
        -11   -1    0    0    0    0  0.00000000000E+00  0.00000000000E+00  0.45593999997E+02  0.45594000000E+02  0.51100000000E-03 0.  1.
         11   -1    0    0    0    0 -0.00000000000E+00 -0.00000000000E+00 -0.45593999997E+02  0.45594000000E+02  0.51100000000E-03 0. -1.
    9900012    2    1    2    0    0  0.39764042022E+02  0.84250227890E+01 -0.10025466073E+01  0.50528866381E+02  0.30000019852E+02 0.  0.
         12    1    1    2    0    0 -0.39764042022E+02 -0.84250227890E+01  0.10025466073E+01  0.40659133619E+02  0.00000000000E+00 0. -1.
         11    1    3    3    0    0  0.52151139922E+01  0.73435131979E+01  0.74041276066E+01  0.11659575718E+02  0.51100000000E-03 0. -1.
        -11    1    3    3    0    0  0.25890697906E+02  0.77416363380E+01 -0.57850317339E+01  0.27635624901E+02  0.51100000000E-03 0.  1.
         12    1    3    3    0    0  0.86582301245E+01 -0.66601267469E+01 -0.26216424800E+01  0.11233665763E+02  0.00000000000E+00 0. -1.
</event>
<event>
 7    1  0.2973028E-011  0.5052885E+02  0.7816164E-02  0.1300439E+00
        -11   -1    0    0    0    0  0.00000000000E+00  0.00000000000E+00  0.45593999997E+02  0.45594000000E+02  0.51100000000E-03 0. -1.
         11   -1    0    0    0    0 -0.00000000000E+00 -0.00000000000E+00 -0.45593999997E+02  0.45594000000E+02  0.51100000000E-03 0.  1.
    9900012    2    1    2    0    0 -0.70538217706E+01 -0.39803383293E+02 -0.43704031202E+01  0.50528854085E+02  0.29999982476E+02 0.  0.
         12    1    1    2    0    0  0.70538217706E+01  0.39803383293E+02  0.43704031202E+01  0.40659145915E+02  0.00000000000E+00 0. -1.
         11    1    3    3    0    0 -0.11404006166E+02 -0.43175647369E+01 -0.12636068672E+01  0.12259258725E+02  0.51100000000E-03 0. -1.
        -11    1    3    3    0    0  0.90682051598E+01 -0.20878302190E+02 -0.11090373257E+01  0.22789598750E+02  0.51100000000E-03 0.  1.
         12    1    3    3    0    0 -0.47180207639E+01 -0.14607516366E+02 -0.19977589273E+01  0.15479996610E+02  0.00000000000E+00 0. -1.
</event>
<event>
 7    1  0.2973028E-011  0.5052887E+02  0.7816164E-02  0.1300439E+00
        -11   -1    0    0    0    0  0.00000000000E+00  0.00000000000E+00  0.45593999997E+02  0.45594000000E+02  0.51100000000E-03 0.  1.
         11   -1    0    0    0    0 -0.00000000000E+00 -0.00000000000E+00 -0.45593999997E+02  0.45594000000E+02  0.51100000000E-03 0. -1.
    9900012    2    1    2    0    0 -0.12722772964E+02  0.92494292556E+01  0.37493255089E+02  0.50528867316E+02  0.30000022694E+02 0.  0.
         12    1    1    2    0    0  0.12722772964E+02 -0.92494292556E+01 -0.37493255089E+02  0.40659132684E+02  0.00000000000E+00 0. -1.
         11    1    3    3    0    0 -0.17355451159E+01  0.76525122331E+01 -0.17812919445E+01  0.80464937445E+01  0.51100000000E-03 0. -1.
        -11    1    3    3    0    0 -0.35443402397E+01  0.48399016602E+01  0.27713913448E+02  0.28355740066E+02  0.51100000000E-03 0.  1.
        -12    1    3    3    0    0 -0.74428876081E+01 -0.32429846377E+01  0.11560633585E+02  0.14126633505E+02  0.00000000000E+00 0.  1.
</event>
<event>
 7    1  0.2973028E-011  0.5052888E+02  0.7816164E-02  0.1300439E+00
        -11   -1    0    0    0    0  0.00000000000E+00  0.00000000000E+00  0.45593999997E+02  0.45594000000E+02  0.51100000000E-03 0. -1.
         11   -1    0    0    0    0 -0.00000000000E+00 -0.00000000000E+00 -0.45593999997E+02  0.45594000000E+02  0.51100000000E-03 0.  1.
    9900012    2    1    2    0    0  0.18814008879E+02  0.19105093682E+02 -0.30564561916E+02  0.50528880730E+02  0.30000063466E+02 0.  0.
         12    1    1    2    0    0 -0.18814008879E+02 -0.19105093682E+02  0.30564561916E+02  0.40659119270E+02  0.00000000000E+00 0. -1.
         11    1    3    3    0    0  0.15982647781E+02  0.17390726151E+02 -0.73483298451E+01  0.24736215109E+02  0.51100000000E-03 0. -1.
        -11    1    3    3    0    0  0.36036078243E+01  0.59147415899E+01 -0.15398872846E+02  0.16884769546E+02  0.51100000000E-03 0.  1.
         12    1    3    3    0    0 -0.77224672601E+00 -0.42003740583E+01 -0.78173592246E+01  0.89078960749E+01  0.00000000000E+00 0. -1.
</event>
<event>
 7    1  0.2973028E-011  0.5052886E+02  0.7816164E-02  0.1300439E+00
        -11   -1    0    0    0    0  0.00000000000E+00  0.00000000000E+00  0.45593999997E+02  0.45594000000E+02  0.51100000000E-03 0. -1.
         11   -1    0    0    0    0 -0.00000000000E+00 -0.00000000000E+00 -0.45593999997E+02  0.45594000000E+02  0.51100000000E-03 0.  1.
    9900012    2    1    2    0    0  0.53983416318E+01  0.57464418264E+01 -0.39887370183E+02  0.50528856057E+02  0.29999988472E+02 0.  0.
         12    1    1    2    0    0 -0.53983416318E+01 -0.57464418264E+01  0.39887370183E+02  0.40659143943E+02  0.00000000000E+00 0. -1.
         11    1    3    3    0    0 -0.23339654273E+01 -0.91326621506E+01 -0.84812137413E+01  0.12680059123E+02  0.51100000000E-03 0. -1.
        -11    1    3    3    0    0  0.81723350422E+01  0.11058829553E+02 -0.12590478723E+02  0.18644166000E+02  0.51100000000E-03 0.  1.
        -12    1    3    3    0    0 -0.44002798311E+00  0.38202744244E+01 -0.18815677719E+02  0.19204630934E+02  0.00000000000E+00 0.  1.
</event>
<event>
 7    1  0.2973028E-011  0.5052886E+02  0.7816164E-02  0.1300439E+00
        -11   -1    0    0    0    0  0.00000000000E+00  0.00000000000E+00  0.45593999997E+02  0.45594000000E+02  0.51100000000E-03 0.  1.
         11   -1    0    0    0    0 -0.00000000000E+00 -0.00000000000E+00 -0.45593999997E+02  0.45594000000E+02  0.51100000000E-03 0. -1.
    9900012    2    1    2    0    0  0.20412140244E+02  0.53547727216E+01  0.34753939828E+02  0.50528863342E+02  0.30000010614E+02 0.  0.
         12    1    1    2    0    0 -0.20412140244E+02 -0.53547727216E+01 -0.34753939828E+02  0.40659136658E+02  0.00000000000E+00 0. -1.
         11    1    3    3    0    0  0.31737473411E+01  0.70792870964E+01  0.24522979841E+02  0.25720915973E+02  0.51100000000E-03 0. -1.
        -11    1    3    3    0    0  0.17111846475E+02  0.33224704970E+01  0.89715432495E+01  0.19604659868E+02  0.51100000000E-03 0.  1.
        -12    1    3    3    0    0  0.12654642762E+00 -0.50469848718E+01  0.12594167373E+01  0.52032875005E+01  0.00000000000E+00 0.  1.
</event>
<event>
 7    1  0.2973028E-011  0.5052887E+02  0.7816164E-02  0.1300439E+00
        -11   -1    0    0    0    0  0.00000000000E+00  0.00000000000E+00  0.45593999997E+02  0.45594000000E+02  0.51100000000E-03 0.  1.
         11   -1    0    0    0    0 -0.00000000000E+00 -0.00000000000E+00 -0.45593999997E+02  0.45594000000E+02  0.51100000000E-03 0. -1.
    9900012    2    1    2    0    0  0.32978024185E+02 -0.66206232439E+01  0.22842551001E+02  0.50528869813E+02  0.30000030285E+02 0.  0.
         12    1    1    2    0    0 -0.32978024185E+02  0.66206232439E+01 -0.22842551001E+02  0.40659130187E+02  0.00000000000E+00 0. -1.
         11    1    3    3    0    0  0.18838490561E+02  0.23413824725E+01  0.25012845911E+02  0.31400848067E+02  0.51100000000E-03 0. -1.
        -11    1    3    3    0    0 -0.89366527172E+00 -0.13144032459E+01 -0.15947862448E+01  0.22515854277E+01  0.51100000000E-03 0.  1.
         12    1    3    3    0    0  0.15033198896E+02 -0.76476024705E+01 -0.57550866543E+00  0.16876436319E+02  0.00000000000E+00 0. -1.
</event>
<event>
 7    1  0.2973028E-011  0.5052885E+02  0.7816164E-02  0.1300439E+00
        -11   -1    0    0    0    0  0.00000000000E+00  0.00000000000E+00  0.45593999997E+02  0.45594000000E+02  0.51100000000E-03 0.  1.
         11   -1    0    0    0    0 -0.00000000000E+00 -0.00000000000E+00 -0.45593999997E+02  0.45594000000E+02  0.51100000000E-03 0. -1.
    9900012    2    1    2    0    0 -0.34574789604E+02 -0.16616376384E+02  0.13477613323E+02  0.50528854643E+02  0.29999984173E+02 0.  0.
         12    1    1    2    0    0  0.34574789604E+02  0.16616376384E+02 -0.13477613323E+02  0.40659145357E+02  0.00000000000E+00 0. -1.
         11    1    3    3    0    0 -0.15484840088E+02 -0.18317156576E+02  0.17872865710E+02  0.29912168536E+02  0.51100000000E-03 0. -1.
        -11    1    3    3    0    0 -0.11924884435E+02  0.44708606748E+00 -0.57032439876E+01  0.13226100974E+02  0.51100000000E-03 0.  1.
         12    1    3    3    0    0 -0.71650650815E+01  0.12536941247E+01  0.13079916011E+01  0.73905851331E+01  0.00000000000E+00 0. -1.
</event>
<event>
 7    1  0.2973028E-011  0.5052884E+02  0.7816164E-02  0.1300439E+00
        -11   -1    0    0    0    0  0.00000000000E+00  0.00000000000E+00  0.45593999997E+02  0.45594000000E+02  0.51100000000E-03 0.  1.
         11   -1    0    0    0    0 -0.00000000000E+00 -0.00000000000E+00 -0.45593999997E+02  0.45594000000E+02  0.51100000000E-03 0. -1.
    9900012    2    1    2    0    0  0.28014643870E+02 -0.22307523518E+02  0.19254116762E+02  0.50528844956E+02  0.29999954727E+02 0.  0.
         12    1    1    2    0    0 -0.28014643870E+02  0.22307523518E+02 -0.19254116762E+02  0.40659155044E+02  0.00000000000E+00 0. -1.
         11    1    3    3    0    0  0.83800648185E+00 -0.10771420633E+01 -0.25175030657E+01  0.28636186609E+01  0.51100000000E-03 0. -1.
        -11    1    3    3    0    0  0.14378102931E+02 -0.19152396161E+02  0.24666418170E+02  0.34379882318E+02  0.51100000000E-03 0.  1.
        -12    1    3    3    0    0  0.12798534457E+02 -0.20779852936E+01 -0.28947983428E+01  0.13285343976E+02  0.00000000000E+00 0.  1.
</event>
<event>
 7    1  0.2973028E-011  0.5052887E+02  0.7816164E-02  0.1300439E+00
        -11   -1    0    0    0    0  0.00000000000E+00  0.00000000000E+00  0.45593999997E+02  0.45594000000E+02  0.51100000000E-03 0.  1.
         11   -1    0    0    0    0 -0.00000000000E+00 -0.00000000000E+00 -0.45593999997E+02  0.45594000000E+02  0.51100000000E-03 0. -1.
    9900012    2    1    2    0    0  0.80453419134E+01  0.36457398541E+02  0.16102652915E+02  0.50528869835E+02  0.30000030349E+02 0.  0.
         12    1    1    2    0    0 -0.80453419134E+01 -0.36457398541E+02 -0.16102652915E+02  0.40659130165E+02  0.00000000000E+00 0. -1.
         11    1    3    3    0    0 -0.66550468150E+01  0.17319657988E+02 -0.51616518324E+00  0.18561428493E+02  0.51100000000E-03 0. -1.
        -11    1    3    3    0    0  0.16914199884E+02  0.15119389756E+02  0.13216428419E+02  0.26255667669E+02  0.51100000000E-03 0.  1.
        -12    1    3    3    0    0 -0.22138111559E+01  0.40183507968E+01  0.34023896795E+01  0.57117736730E+01  0.00000000000E+00 0.  1.
</event>
<event>
 7    1  0.2973028E-011  0.5052887E+02  0.7816164E-02  0.1300439E+00
        -11   -1    0    0    0    0  0.00000000000E+00  0.00000000000E+00  0.45593999997E+02  0.45594000000E+02  0.51100000000E-03 0.  1.
         11   -1    0    0    0    0 -0.00000000000E+00 -0.00000000000E+00 -0.45593999997E+02  0.45594000000E+02  0.51100000000E-03 0. -1.
    9900012    2    1    2    0    0 -0.26689646615E+02  0.40787589282E+01 -0.30400514314E+02  0.50528870873E+02  0.30000033505E+02 0.  0.
         12    1    1    2    0    0  0.26689646615E+02 -0.40787589282E+01  0.30400514314E+02  0.40659129127E+02  0.00000000000E+00 0. -1.
         11    1    3    3    0    0  0.10526075647E+01  0.15330138633E+01  0.48125199822E+00  0.19208638518E+01  0.51100000000E-03 0. -1.
        -11    1    3    3    0    0 -0.28378578906E+02 -0.59643260249E+01 -0.24189871858E+02  0.37763299994E+02  0.51100000000E-03 0.  1.
        -12    1    3    3    0    0  0.63632472656E+00  0.85100710897E+01 -0.66918944540E+01  0.10844707027E+02  0.00000000000E+00 0.  1.
</event>
<event>
 7    1  0.2973028E-011  0.5052887E+02  0.7816164E-02  0.1300439E+00
        -11   -1    0    0    0    0  0.00000000000E+00  0.00000000000E+00  0.45593999997E+02  0.45594000000E+02  0.51100000000E-03 0. -1.
         11   -1    0    0    0    0 -0.00000000000E+00 -0.00000000000E+00 -0.45593999997E+02  0.45594000000E+02  0.51100000000E-03 0.  1.
    9900012    2    1    2    0    0  0.37617206391E+02 -0.15426512325E+02  0.36570647669E+00  0.50528865228E+02  0.30000016348E+02 0.  0.
         12    1    1    2    0    0 -0.37617206391E+02  0.15426512325E+02 -0.36570647669E+00  0.40659134772E+02  0.00000000000E+00 0. -1.
         11    1    3    3    0    0  0.81525145234E+01  0.75789370734E+01 -0.47485196285E+01  0.12101744467E+02  0.51100000000E-03 0. -1.
        -11    1    3    3    0    0  0.85163346139E+01 -0.97673174418E+01 -0.68537395298E+00  0.12976832548E+02  0.51100000000E-03 0.  1.
         12    1    3    3    0    0  0.20948357253E+02 -0.13238131957E+02  0.57996000582E+01  0.25450288213E+02  0.00000000000E+00 0. -1.
</event>
<event>
 7    1  0.2973028E-011  0.5052887E+02  0.7816164E-02  0.1300439E+00
        -11   -1    0    0    0    0  0.00000000000E+00  0.00000000000E+00  0.45593999997E+02  0.45594000000E+02  0.51100000000E-03 0. -1.
         11   -1    0    0    0    0 -0.00000000000E+00 -0.00000000000E+00 -0.45593999997E+02  0.45594000000E+02  0.51100000000E-03 0.  1.
    9900012    2    1    2    0    0 -0.11897319307E+02  0.20361386334E+02 -0.33121488054E+02  0.50528865343E+02  0.30000016697E+02 0.  0.
         12    1    1    2    0    0  0.11897319307E+02 -0.20361386334E+02  0.33121488054E+02  0.40659134657E+02  0.00000000000E+00 0. -1.
         11    1    3    3    0    0  0.28900607523E+01 -0.33553450593E-01  0.23767432570E+01  0.37419895452E+01  0.51100000000E-03 0. -1.
        -11    1    3    3    0    0 -0.47846743176E+01  0.19780349564E+02 -0.25571467657E+02  0.32681115275E+02  0.51100000000E-03 0.  1.
        -12    1    3    3    0    0 -0.10002705741E+02  0.61459022018E+00 -0.99267636541E+01  0.14105760523E+02  0.00000000000E+00 0.  1.
</event>
<event>
 7    1  0.2973028E-011  0.5052898E+02  0.7816164E-02  0.1300438E+00
        -11   -1    0    0    0    0  0.00000000000E+00  0.00000000000E+00  0.45593999997E+02  0.45594000000E+02  0.51100000000E-03 0.  1.
         11   -1    0    0    0    0 -0.00000000000E+00 -0.00000000000E+00 -0.45593999997E+02  0.45594000000E+02  0.51100000000E-03 0. -1.
    9900012    2    1    2    0    0 -0.13208712015E+02 -0.15441938228E+02  0.35216932724E+02  0.50528980339E+02  0.30000366236E+02 0.  0.
         12    1    1    2    0    0  0.13208712015E+02  0.15441938228E+02 -0.35216932724E+02  0.40659019661E+02  0.00000000000E+00 0. -1.
         11    1    3    3    0    0 -0.81784628648E+01 -0.32899547843E+00 -0.12310019125E+01  0.82771286582E+01  0.51100000000E-03 0. -1.
        -11    1    3    3    0    0 -0.42719514334E+01 -0.10430504397E+02  0.90742144332E+01  0.14470188626E+02  0.51100000000E-03 0.  1.
         12    1    3    3    0    0 -0.75829771664E+00 -0.46824383527E+01  0.27373720203E+02  0.27781663055E+02  0.00000000000E+00 0. -1.
</event>
<event>
 7    1  0.2973028E-011  0.5052887E+02  0.7816164E-02  0.1300439E+00
        -11   -1    0    0    0    0  0.00000000000E+00  0.00000000000E+00  0.45593999997E+02  0.45594000000E+02  0.51100000000E-03 0.  1.
         11   -1    0    0    0    0 -0.00000000000E+00 -0.00000000000E+00 -0.45593999997E+02  0.45594000000E+02  0.51100000000E-03 0. -1.
    9900012    2    1    2    0    0 -0.29971054551E+02  0.26834963496E+02  0.58979184158E+01  0.50528870418E+02  0.30000032123E+02 0.  0.
         12    1    1    2    0    0  0.29971054551E+02 -0.26834963496E+02 -0.58979184158E+01  0.40659129582E+02  0.00000000000E+00 0. -1.
         11    1    3    3    0    0 -0.11047097491E+02  0.48374055962E+01  0.12276857760E+02  0.17209302502E+02  0.51100000000E-03 0. -1.
        -11    1    3    3    0    0 -0.17723996743E+02  0.21187291660E+02 -0.10033222072E+02  0.29388891334E+02  0.51100000000E-03 0.  1.
        -12    1    3    3    0    0 -0.11999603167E+01  0.81026623950E+00  0.36542827277E+01  0.39306765823E+01  0.00000000000E+00 0.  1.
</event>
<event>
 7    1  0.2973028E-011  0.5052886E+02  0.7816164E-02  0.1300439E+00
        -11   -1    0    0    0    0  0.00000000000E+00  0.00000000000E+00  0.45593999997E+02  0.45594000000E+02  0.51100000000E-03 0.  1.
         11   -1    0    0    0    0 -0.00000000000E+00 -0.00000000000E+00 -0.45593999997E+02  0.45594000000E+02  0.51100000000E-03 0. -1.
    9900012    2    1    2    0    0  0.29479099145E+02  0.23153689013E+02  0.15749757929E+02  0.50528862329E+02  0.30000007535E+02 0.  0.
         12    1    1    2    0    0 -0.29479099145E+02 -0.23153689013E+02 -0.15749757929E+02  0.40659137671E+02  0.00000000000E+00 0. -1.
         11    1    3    3    0    0  0.59657578961E+01  0.15909438152E+02  0.74166140839E+01  0.18539327234E+02  0.51100000000E-03 0. -1.
        -11    1    3    3    0    0  0.16210700397E+02  0.66682845125E+01 -0.36879147712E+01  0.17912385137E+02  0.51100000000E-03 0.  1.
         12    1    3    3    0    0  0.73026408525E+01  0.57596634891E+00  0.12021058617E+02  0.14077149957E+02  0.00000000000E+00 0. -1.
</event>
<event>
 7    1  0.2973028E-011  0.5052887E+02  0.7816164E-02  0.1300439E+00
        -11   -1    0    0    0    0  0.00000000000E+00  0.00000000000E+00  0.45593999997E+02  0.45594000000E+02  0.51100000000E-03 0.  1.
         11   -1    0    0    0    0 -0.00000000000E+00 -0.00000000000E+00 -0.45593999997E+02  0.45594000000E+02  0.51100000000E-03 0. -1.
    9900012    2    1    2    0    0  0.34592074386E+02 -0.15099855690E+01  0.21313689276E+02  0.50528867972E+02  0.30000024687E+02 0.  0.
         12    1    1    2    0    0 -0.34592074386E+02  0.15099855690E+01 -0.21313689276E+02  0.40659132028E+02  0.00000000000E+00 0. -1.
         11    1    3    3    0    0 -0.32454574878E+01  0.84833286750E+00 -0.11218532689E+01  0.35371200117E+01  0.51100000000E-03 0. -1.
        -11    1    3    3    0    0  0.10557966656E+02  0.45823623152E+01  0.12861599325E+02  0.17259473971E+02  0.51100000000E-03 0.  1.
         12    1    3    3    0    0  0.27279565218E+02 -0.69406807517E+01  0.95739432200E+01  0.29732273989E+02  0.00000000000E+00 0. -1.
</event>
<event>
 7    1  0.2973028E-011  0.5052884E+02  0.7816164E-02  0.1300439E+00
        -11   -1    0    0    0    0  0.00000000000E+00  0.00000000000E+00  0.45593999997E+02  0.45594000000E+02  0.51100000000E-03 0.  1.
         11   -1    0    0    0    0 -0.00000000000E+00 -0.00000000000E+00 -0.45593999997E+02  0.45594000000E+02  0.51100000000E-03 0. -1.
    9900012    2    1    2    0    0  0.25112474320E+02  0.67569600401E+01  0.31254993883E+02  0.50528837219E+02  0.29999931209E+02 0.  0.
         12    1    1    2    0    0 -0.25112474320E+02 -0.67569600401E+01 -0.31254993883E+02  0.40659162781E+02  0.00000000000E+00 0. -1.
         11    1    3    3    0    0  0.43464897684E+01  0.83498244865E+01 -0.21784650297E+01  0.96621556813E+01  0.51100000000E-03 0. -1.
        -11    1    3    3    0    0  0.13700774665E+02 -0.39223669871E+01  0.28715616972E+02  0.32057492846E+02  0.51100000000E-03 0.  1.
        -12    1    3    3    0    0  0.70652098862E+01  0.23295025406E+01  0.47178419407E+01  0.88091886914E+01  0.00000000000E+00 0.  1.
</event>
<event>
 7    1  0.2973028E-011  0.5052888E+02  0.7816164E-02  0.1300439E+00
        -11   -1    0    0    0    0  0.00000000000E+00  0.00000000000E+00  0.45593999997E+02  0.45594000000E+02  0.51100000000E-03 0.  1.
         11   -1    0    0    0    0 -0.00000000000E+00 -0.00000000000E+00 -0.45593999997E+02  0.45594000000E+02  0.51100000000E-03 0. -1.
    9900012    2    1    2    0    0 -0.23142393809E+02  0.27226816492E+02  0.19398306442E+02  0.50528877772E+02  0.30000054476E+02 0.  0.
         12    1    1    2    0    0  0.23142393809E+02 -0.27226816492E+02 -0.19398306442E+02  0.40659122228E+02  0.00000000000E+00 0. -1.
         11    1    3    3    0    0  0.42737233123E+01  0.75292555342E+01  0.18313199130E+01  0.88491882528E+01  0.51100000000E-03 0. -1.
        -11    1    3    3    0    0 -0.20631675258E+02  0.22315118717E+02  0.12752093059E+02  0.32958252760E+02  0.51100000000E-03 0.  1.
        -12    1    3    3    0    0 -0.67844418638E+01 -0.26175577596E+01  0.48148934702E+01  0.87214367599E+01  0.00000000000E+00 0.  1.
</event>
<event>
 7    1  0.2973028E-011  0.5052885E+02  0.7816164E-02  0.1300439E+00
        -11   -1    0    0    0    0  0.00000000000E+00  0.00000000000E+00  0.45593999997E+02  0.45594000000E+02  0.51100000000E-03 0.  1.
         11   -1    0    0    0    0 -0.00000000000E+00 -0.00000000000E+00 -0.45593999997E+02  0.45594000000E+02  0.51100000000E-03 0. -1.
    9900012    2    1    2    0    0 -0.96585586094E+01  0.39307230424E+02  0.38496727340E+01  0.50528854680E+02  0.29999984284E+02 0.  0.
         12    1    1    2    0    0  0.96585586094E+01 -0.39307230424E+02 -0.38496727340E+01  0.40659145320E+02  0.00000000000E+00 0. -1.
         11    1    3    3    0    0  0.36256198763E+01  0.25308327463E+02 -0.10534506224E+01  0.25588402000E+02  0.51100000000E-03 0. -1.
        -11    1    3    3    0    0 -0.95268014927E+01  0.16523050105E+02  0.12322596397E+01  0.19112550733E+02  0.51100000000E-03 0.  1.
         12    1    3    3    0    0 -0.37573769929E+01 -0.25241471435E+01  0.36708637167E+01  0.58279019463E+01  0.00000000000E+00 0. -1.
</event>
<event>
 7    1  0.2973028E-011  0.5052885E+02  0.7816164E-02  0.1300439E+00
        -11   -1    0    0    0    0  0.00000000000E+00  0.00000000000E+00  0.45593999997E+02  0.45594000000E+02  0.51100000000E-03 0. -1.
         11   -1    0    0    0    0 -0.00000000000E+00 -0.00000000000E+00 -0.45593999997E+02  0.45594000000E+02  0.51100000000E-03 0.  1.
    9900012    2    1    2    0    0 -0.33833808480E+02 -0.22525093388E+02  0.10297410393E+01  0.50528846110E+02  0.29999958237E+02 0.  0.
         12    1    1    2    0    0  0.33833808480E+02  0.22525093388E+02 -0.10297410393E+01  0.40659153890E+02  0.00000000000E+00 0. -1.
         11    1    3    3    0    0 -0.19422777884E+01  0.17663672570E+01  0.40403078361E-01  0.26256673369E+01  0.51100000000E-03 0. -1.
        -11    1    3    3    0    0 -0.30917460710E+02 -0.17067833799E+02  0.96237440651E+01  0.36603507721E+02  0.51100000000E-03 0.  1.
        -12    1    3    3    0    0 -0.97406998186E+00 -0.72236268456E+01 -0.86344061041E+01  0.11299671053E+02  0.00000000000E+00 0.  1.
</event>
<event>
 7    1  0.2973028E-011  0.5052887E+02  0.7816164E-02  0.1300439E+00
        -11   -1    0    0    0    0  0.00000000000E+00  0.00000000000E+00  0.45593999997E+02  0.45594000000E+02  0.51100000000E-03 0.  1.
         11   -1    0    0    0    0 -0.00000000000E+00 -0.00000000000E+00 -0.45593999997E+02  0.45594000000E+02  0.51100000000E-03 0. -1.
    9900012    2    1    2    0    0 -0.10781981922E+02  0.15703890044E+02 -0.35920763381E+02  0.50528873859E+02  0.30000042582E+02 0.  0.
         12    1    1    2    0    0  0.10781981922E+02 -0.15703890044E+02  0.35920763381E+02  0.40659126141E+02  0.00000000000E+00 0. -1.
         11    1    3    3    0    0 -0.15508904757E+01  0.58978663249E+01 -0.36385503114E+02  0.36893020012E+02  0.51100000000E-03 0. -1.
        -11    1    3    3    0    0 -0.37191612661E+01  0.52052771890E+01 -0.36805506374E+00  0.64080056124E+01  0.51100000000E-03 0.  1.
         12    1    3    3    0    0 -0.55119301797E+01  0.46007465299E+01  0.83279479672E+00  0.72278482353E+01  0.00000000000E+00 0. -1.
</event>
<event>
 7    1  0.2973028E-011  0.5052885E+02  0.7816164E-02  0.1300439E+00
        -11   -1    0    0    0    0  0.00000000000E+00  0.00000000000E+00  0.45593999997E+02  0.45594000000E+02  0.51100000000E-03 0. -1.
         11   -1    0    0    0    0 -0.00000000000E+00 -0.00000000000E+00 -0.45593999997E+02  0.45594000000E+02  0.51100000000E-03 0.  1.
    9900012    2    1    2    0    0  0.15949452282E+02 -0.15526314431E+02 -0.34025216127E+02  0.50528846044E+02  0.29999958037E+02 0.  0.
         12    1    1    2    0    0 -0.15949452282E+02  0.15526314431E+02  0.34025216127E+02  0.40659153956E+02  0.00000000000E+00 0. -1.
         11    1    3    3    0    0 -0.69520893829E+01 -0.49604901711E+01 -0.74742452816E+01  0.11349112402E+02  0.51100000000E-03 0. -1.
        -11    1    3    3    0    0  0.23478102625E+02 -0.11761946600E+02 -0.21443945447E+02  0.33902912666E+02  0.51100000000E-03 0.  1.
        -12    1    3    3    0    0 -0.57656095993E+00  0.11961223400E+01 -0.51070253983E+01  0.52768209759E+01  0.00000000000E+00 0.  1.
</event>
<event>
 7    1  0.2973028E-011  0.5052885E+02  0.7816164E-02  0.1300439E+00
        -11   -1    0    0    0    0  0.00000000000E+00  0.00000000000E+00  0.45593999997E+02  0.45594000000E+02  0.51100000000E-03 0. -1.
         11   -1    0    0    0    0 -0.00000000000E+00 -0.00000000000E+00 -0.45593999997E+02  0.45594000000E+02  0.51100000000E-03 0.  1.
    9900012    2    1    2    0    0  0.33511810240E+02 -0.61520462023E+00 -0.23016216234E+02  0.50528854510E+02  0.29999983769E+02 0.  0.
         12    1    1    2    0    0 -0.33511810240E+02  0.61520462023E+00  0.23016216234E+02  0.40659145490E+02  0.00000000000E+00 0. -1.
         11    1    3    3    0    0 -0.80755854289E+00  0.71392269889E+01 -0.10902766958E+02  0.13057221772E+02  0.51100000000E-03 0. -1.
        -11    1    3    3    0    0  0.22976565572E+02 -0.68526684806E+01 -0.68594272126E+01  0.24938592036E+02  0.51100000000E-03 0.  1.
         12    1    3    3    0    0  0.11342803211E+02 -0.90176312858E+00 -0.52540220635E+01  0.12533040703E+02  0.00000000000E+00 0. -1.
</event>
<event>
 7    1  0.2973028E-011  0.5052887E+02  0.7816164E-02  0.1300439E+00
        -11   -1    0    0    0    0  0.00000000000E+00  0.00000000000E+00  0.45593999997E+02  0.45594000000E+02  0.51100000000E-03 0.  1.
         11   -1    0    0    0    0 -0.00000000000E+00 -0.00000000000E+00 -0.45593999997E+02  0.45594000000E+02  0.51100000000E-03 0. -1.
    9900012    2    1    2    0    0 -0.33652116114E+02  0.38390214898E+01  0.22493596231E+02  0.50528869705E+02  0.30000029956E+02 0.  0.
         12    1    1    2    0    0  0.33652116114E+02 -0.38390214898E+01 -0.22493596231E+02  0.40659130295E+02  0.00000000000E+00 0. -1.
         11    1    3    3    0    0 -0.12900890212E+02 -0.11236658087E+02  0.13637449744E+02  0.21878653729E+02  0.51100000000E-03 0. -1.
        -11    1    3    3    0    0 -0.11594134929E+02  0.78363545657E+01 -0.63634660953E-02  0.13994015092E+02  0.51100000000E-03 0.  1.
        -12    1    3    3    0    0 -0.91570909731E+01  0.72393250108E+01  0.88625099529E+01  0.14656200885E+02  0.00000000000E+00 0.  1.
</event>
<event>
 7    1  0.2973028E-011  0.5052886E+02  0.7816164E-02  0.1300439E+00
        -11   -1    0    0    0    0  0.00000000000E+00  0.00000000000E+00  0.45593999997E+02  0.45594000000E+02  0.51100000000E-03 0. -1.
         11   -1    0    0    0    0 -0.00000000000E+00 -0.00000000000E+00 -0.45593999997E+02  0.45594000000E+02  0.51100000000E-03 0.  1.
    9900012    2    1    2    0    0  0.24276617171E+02 -0.30198034027E+02 -0.12324367084E+02  0.50528862966E+02  0.30000009471E+02 0.  0.
         12    1    1    2    0    0 -0.24276617171E+02  0.30198034027E+02  0.12324367084E+02  0.40659137034E+02  0.00000000000E+00 0. -1.
         11    1    3    3    0    0 -0.11033904176E+01 -0.11846600682E+02  0.37021496213E+01  0.12460550960E+02  0.51100000000E-03 0. -1.
        -11    1    3    3    0    0  0.19154057549E+02 -0.81547159650E+01 -0.41598355460E+01  0.21229261530E+02  0.51100000000E-03 0.  1.
         12    1    3    3    0    0  0.62259500389E+01 -0.10196717380E+02 -0.11866681159E+02  0.16839050476E+02  0.00000000000E+00 0. -1.
</event>
<event>
 7    1  0.2973028E-011  0.5052889E+02  0.7816164E-02  0.1300439E+00
        -11   -1    0    0    0    0  0.00000000000E+00  0.00000000000E+00  0.45593999997E+02  0.45594000000E+02  0.51100000000E-03 0. -1.
         11   -1    0    0    0    0 -0.00000000000E+00 -0.00000000000E+00 -0.45593999997E+02  0.45594000000E+02  0.51100000000E-03 0.  1.
    9900012    2    1    2    0    0  0.13395883853E+02  0.41007341424E+01 -0.38169326228E+02  0.50528890450E+02  0.30000093011E+02 0.  0.
         12    1    1    2    0    0 -0.13395883853E+02 -0.41007341424E+01  0.38169326228E+02  0.40659109550E+02  0.00000000000E+00 0. -1.
         11    1    3    3    0    0  0.46560915927E+01  0.63293259309E+01  0.21213421635E+01  0.81387743853E+01  0.51100000000E-03 0. -1.
        -11    1    3    3    0    0  0.95775872963E+00  0.33509659707E+01 -0.84422349451E+01  0.91333239213E+01  0.51100000000E-03 0.  1.
         12    1    3    3    0    0  0.77820335303E+01 -0.55795577591E+01 -0.31848433447E+02  0.33256792143E+02  0.00000000000E+00 0. -1.
</event>
<event>
 7    1  0.2973028E-011  0.5052886E+02  0.7816164E-02  0.1300439E+00
        -11   -1    0    0    0    0  0.00000000000E+00  0.00000000000E+00  0.45593999997E+02  0.45594000000E+02  0.51100000000E-03 0.  1.
         11   -1    0    0    0    0 -0.00000000000E+00 -0.00000000000E+00 -0.45593999997E+02  0.45594000000E+02  0.51100000000E-03 0. -1.
    9900012    2    1    2    0    0  0.44000065974E+01 -0.12719371950E+02  0.38366957708E+02  0.50528856814E+02  0.29999990772E+02 0.  0.
         12    1    1    2    0    0 -0.44000065974E+01  0.12719371950E+02 -0.38366957708E+02  0.40659143186E+02  0.00000000000E+00 0. -1.
         11    1    3    3    0    0  0.12038812456E+02  0.22653738008E-01  0.17747430847E+02  0.21445391590E+02  0.51100000000E-03 0. -1.
        -11    1    3    3    0    0 -0.45435067810E+01 -0.15470384146E+02  0.18138208164E+02  0.24268721333E+02  0.51100000000E-03 0.  1.
         12    1    3    3    0    0 -0.30952990777E+01  0.27283584580E+01  0.24813186972E+01  0.48147438907E+01  0.00000000000E+00 0. -1.
</event>
<event>
 7    1  0.2973028E-011  0.5052886E+02  0.7816164E-02  0.1300439E+00
        -11   -1    0    0    0    0  0.00000000000E+00  0.00000000000E+00  0.45593999997E+02  0.45594000000E+02  0.51100000000E-03 0.  1.
         11   -1    0    0    0    0 -0.00000000000E+00 -0.00000000000E+00 -0.45593999997E+02  0.45594000000E+02  0.51100000000E-03 0. -1.
    9900012    2    1    2    0    0  0.93292103376E+01  0.15684443216E+02  0.36333584883E+02  0.50528864311E+02  0.30000013561E+02 0.  0.
         12    1    1    2    0    0 -0.93292103376E+01 -0.15684443216E+02 -0.36333584883E+02  0.40659135689E+02  0.00000000000E+00 0. -1.
         11    1    3    3    0    0 -0.99493472241E+01  0.47816636541E+01  0.83379159197E+01  0.13833823030E+02  0.51100000000E-03 0. -1.
        -11    1    3    3    0    0  0.16126822188E+02  0.12200771559E+02  0.22740909760E+02  0.30431598668E+02  0.51100000000E-03 0.  1.
        -12    1    3    3    0    0  0.31517353734E+01 -0.12979919969E+01  0.52547592027E+01  0.62634426130E+01  0.00000000000E+00 0.  1.
</event>
<event>
 7    1  0.2973028E-011  0.5052887E+02  0.7816164E-02  0.1300439E+00
        -11   -1    0    0    0    0  0.00000000000E+00  0.00000000000E+00  0.45593999997E+02  0.45594000000E+02  0.51100000000E-03 0.  1.
         11   -1    0    0    0    0 -0.00000000000E+00 -0.00000000000E+00 -0.45593999997E+02  0.45594000000E+02  0.51100000000E-03 0. -1.
    9900012    2    1    2    0    0  0.26335933139E+01  0.34719952811E+02  0.20994141183E+02  0.50528869402E+02  0.30000029035E+02 0.  0.
         12    1    1    2    0    0 -0.26335933139E+01 -0.34719952811E+02 -0.20994141183E+02  0.40659130598E+02  0.00000000000E+00 0. -1.
         11    1    3    3    0    0 -0.85548694945E+00 -0.44746740833E+01  0.27141454296E+00  0.45637958092E+01  0.51100000000E-03 0. -1.
        -11    1    3    3    0    0 -0.32832876120E+01  0.78888353821E+01  0.17004479236E+01  0.87123604511E+01  0.51100000000E-03 0.  1.
         12    1    3    3    0    0  0.67723678753E+01  0.31305791512E+02  0.19022278717E+02  0.37252713142E+02  0.00000000000E+00 0. -1.
</event>
<event>
 7    1  0.2973028E-011  0.5052886E+02  0.7816164E-02  0.1300439E+00
        -11   -1    0    0    0    0  0.00000000000E+00  0.00000000000E+00  0.45593999997E+02  0.45594000000E+02  0.51100000000E-03 0.  1.
         11   -1    0    0    0    0 -0.00000000000E+00 -0.00000000000E+00 -0.45593999997E+02  0.45594000000E+02  0.51100000000E-03 0. -1.
    9900012    2    1    2    0    0  0.39963962282E+01  0.12013840240E+01  0.40444418627E+02  0.50528861981E+02  0.30000006478E+02 0.  0.
         12    1    1    2    0    0 -0.39963962282E+01 -0.12013840240E+01 -0.40444418627E+02  0.40659138019E+02  0.00000000000E+00 0. -1.
         11    1    3    3    0    0  0.99069377910E+01 -0.61199725127E+01  0.68447526380E+01  0.13507483810E+02  0.51100000000E-03 0. -1.
        -11    1    3    3    0    0 -0.35245994009E+01  0.91882062775E+01  0.13563752744E+02  0.16757724317E+02  0.51100000000E-03 0.  1.
         12    1    3    3    0    0 -0.23859421619E+01 -0.18668497408E+01  0.20035913245E+02  0.20263653854E+02  0.00000000000E+00 0. -1.
</event>
<event>
 7    1  0.2973028E-011  0.5052886E+02  0.7816164E-02  0.1300439E+00
        -11   -1    0    0    0    0  0.00000000000E+00  0.00000000000E+00  0.45593999997E+02  0.45594000000E+02  0.51100000000E-03 0. -1.
         11   -1    0    0    0    0 -0.00000000000E+00 -0.00000000000E+00 -0.45593999997E+02  0.45594000000E+02  0.51100000000E-03 0.  1.
    9900012    2    1    2    0    0 -0.31506313233E+02  0.34752913090E+01 -0.25464489962E+02  0.50528859918E+02  0.30000000206E+02 0.  0.
         12    1    1    2    0    0  0.31506313233E+02 -0.34752913090E+01  0.25464489962E+02  0.40659140082E+02  0.00000000000E+00 0. -1.
         11    1    3    3    0    0  0.13466755812E+01 -0.51201793899E+01  0.83084704509E+00  0.53591117902E+01  0.51100000000E-03 0. -1.
        -11    1    3    3    0    0 -0.20338093463E+02  0.66381696873E+01 -0.78394719228E+01  0.22785097384E+02  0.51100000000E-03 0.  1.
         12    1    3    3    0    0 -0.12514895351E+02  0.19573010116E+01 -0.18455865085E+02  0.22384650744E+02  0.00000000000E+00 0. -1.
</event>
<event>
 7    1  0.2973028E-011  0.5052885E+02  0.7816164E-02  0.1300439E+00
        -11   -1    0    0    0    0  0.00000000000E+00  0.00000000000E+00  0.45593999997E+02  0.45594000000E+02  0.51100000000E-03 0.  1.
         11   -1    0    0    0    0 -0.00000000000E+00 -0.00000000000E+00 -0.45593999997E+02  0.45594000000E+02  0.51100000000E-03 0. -1.
    9900012    2    1    2    0    0 -0.11997473538E+01  0.76911871598E+01  0.39907048182E+02  0.50528852835E+02  0.29999978676E+02 0.  0.
         12    1    1    2    0    0  0.11997473538E+01 -0.76911871598E+01 -0.39907048182E+02  0.40659147165E+02  0.00000000000E+00 0. -1.
         11    1    3    3    0    0  0.44558115634E+01  0.34896763522E+01 -0.21296616266E+01  0.60471114291E+01  0.51100000000E-03 0. -1.
        -11    1    3    3    0    0 -0.59912196872E+01  0.82509019889E+01  0.33677508825E+02  0.35187308762E+02  0.51100000000E-03 0.  1.
         12    1    3    3    0    0  0.33566077011E+00 -0.40493911813E+01  0.83592009834E+01  0.92944326439E+01  0.00000000000E+00 0. -1.
</event>
<event>
 7    1  0.2973028E-011  0.5052886E+02  0.7816164E-02  0.1300439E+00
        -11   -1    0    0    0    0  0.00000000000E+00  0.00000000000E+00  0.45593999997E+02  0.45594000000E+02  0.51100000000E-03 0.  1.
         11   -1    0    0    0    0 -0.00000000000E+00 -0.00000000000E+00 -0.45593999997E+02  0.45594000000E+02  0.51100000000E-03 0. -1.
    9900012    2    1    2    0    0 -0.18636571741E+02 -0.40583798297E+01  0.35907842549E+02  0.50528863147E+02  0.30000010021E+02 0.  0.
         12    1    1    2    0    0  0.18636571741E+02  0.40583798297E+01 -0.35907842549E+02  0.40659136853E+02  0.00000000000E+00 0. -1.
         11    1    3    3    0    0 -0.90228212971E+01 -0.56551917174E+01  0.55755912021E+01  0.12019971507E+02  0.51100000000E-03 0. -1.
        -11    1    3    3    0    0 -0.12848029174E+02  0.34183068693E+01  0.31838612450E+02  0.34502955214E+02  0.51100000000E-03 0.  1.
        -12    1    3    3    0    0  0.32342787300E+01 -0.18214949816E+01 -0.15063611030E+01  0.40059364253E+01  0.00000000000E+00 0.  1.
</event>
<event>
 7    1  0.2973028E-011  0.5052885E+02  0.7816164E-02  0.1300439E+00
        -11   -1    0    0    0    0  0.00000000000E+00  0.00000000000E+00  0.45593999997E+02  0.45594000000E+02  0.51100000000E-03 0. -1.
         11   -1    0    0    0    0 -0.00000000000E+00 -0.00000000000E+00 -0.45593999997E+02  0.45594000000E+02  0.51100000000E-03 0.  1.
    9900012    2    1    2    0    0  0.10232955505E+02 -0.16066267302E+02 -0.35921139483E+02  0.50528848691E+02  0.29999966082E+02 0.  0.
         12    1    1    2    0    0 -0.10232955505E+02  0.16066267302E+02  0.35921139483E+02  0.40659151309E+02  0.00000000000E+00 0. -1.
         11    1    3    3    0    0 -0.50117307002E+01  0.25591550463E+01  0.90711360280E+00  0.56999626764E+01  0.51100000000E-03 0. -1.
        -11    1    3    3    0    0  0.11021991639E+02 -0.18220468329E+02 -0.31396688209E+02  0.37937076806E+02  0.51100000000E-03 0.  1.
         12    1    3    3    0    0  0.42226945666E+01 -0.40495401941E+00 -0.54315648763E+01  0.68918092085E+01  0.00000000000E+00 0. -1.
</event>
<event>
 7    1  0.2973028E-011  0.5052886E+02  0.7816164E-02  0.1300439E+00
        -11   -1    0    0    0    0  0.00000000000E+00  0.00000000000E+00  0.45593999997E+02  0.45594000000E+02  0.51100000000E-03 0.  1.
         11   -1    0    0    0    0 -0.00000000000E+00 -0.00000000000E+00 -0.45593999997E+02  0.45594000000E+02  0.51100000000E-03 0. -1.
    9900012    2    1    2    0    0 -0.27362996851E+02  0.25399836001E+02  0.16102197154E+02  0.50528855657E+02  0.29999987254E+02 0.  0.
         12    1    1    2    0    0  0.27362996851E+02 -0.25399836001E+02 -0.16102197154E+02  0.40659144343E+02  0.00000000000E+00 0. -1.
         11    1    3    3    0    0  0.27466315090E+01  0.61990855304E+01  0.26800109660E+01  0.72907547687E+01  0.51100000000E-03 0. -1.
        -11    1    3    3    0    0 -0.25143766169E+02  0.51148301871E+01  0.11710467956E+02  0.28204707497E+02  0.51100000000E-03 0.  1.
        -12    1    3    3    0    0 -0.49658621912E+01  0.14085920284E+02  0.17117182321E+01  0.15033393391E+02  0.00000000000E+00 0.  1.
</event>
<event>
 7    1  0.2973028E-011  0.5052886E+02  0.7816164E-02  0.1300439E+00
        -11   -1    0    0    0    0  0.00000000000E+00  0.00000000000E+00  0.45593999997E+02  0.45594000000E+02  0.51100000000E-03 0.  1.
         11   -1    0    0    0    0 -0.00000000000E+00 -0.00000000000E+00 -0.45593999997E+02  0.45594000000E+02  0.51100000000E-03 0. -1.
    9900012    2    1    2    0    0  0.10351336465E+02 -0.51080630915E+01  0.38986188473E+02  0.50528863674E+02  0.30000011623E+02 0.  0.
         12    1    1    2    0    0 -0.10351336465E+02  0.51080630915E+01 -0.38986188473E+02  0.40659136326E+02  0.00000000000E+00 0. -1.
         11    1    3    3    0    0  0.11693293666E+02 -0.52167360494E+01  0.27724594459E+01  0.13100915365E+02  0.51100000000E-03 0. -1.
        -11    1    3    3    0    0 -0.36756076794E+01 -0.35491446203E+01  0.20337091589E+02  0.20969115716E+02  0.51100000000E-03 0.  1.
         12    1    3    3    0    0  0.23336504790E+01  0.36578175783E+01  0.15876637438E+02  0.16458832593E+02  0.00000000000E+00 0. -1.
</event>
<event>
 7    1  0.2973028E-011  0.5052886E+02  0.7816164E-02  0.1300439E+00
        -11   -1    0    0    0    0  0.00000000000E+00  0.00000000000E+00  0.45593999997E+02  0.45594000000E+02  0.51100000000E-03 0. -1.
         11   -1    0    0    0    0 -0.00000000000E+00 -0.00000000000E+00 -0.45593999997E+02  0.45594000000E+02  0.51100000000E-03 0.  1.
    9900012    2    1    2    0    0 -0.13584346390E+02 -0.11651407229E+02 -0.36508568261E+02  0.50528864327E+02  0.30000013607E+02 0.  0.
         12    1    1    2    0    0  0.13584346390E+02  0.11651407229E+02  0.36508568261E+02  0.40659135673E+02  0.00000000000E+00 0. -1.
         11    1    3    3    0    0 -0.80546248172E+01 -0.11501260684E+02 -0.63504744569E+01  0.15410532254E+02  0.51100000000E-03 0. -1.
        -11    1    3    3    0    0 -0.11656127883E+02  0.11396637831E+01 -0.20462204812E+02  0.23576810149E+02  0.51100000000E-03 0.  1.
        -12    1    3    3    0    0  0.61264063105E+01 -0.12898103278E+01 -0.96958889916E+01  0.11541521923E+02  0.00000000000E+00 0.  1.
</event>
<event>
 7    1  0.2973028E-011  0.5052883E+02  0.7816164E-02  0.1300439E+00
        -11   -1    0    0    0    0  0.00000000000E+00  0.00000000000E+00  0.45593999997E+02  0.45594000000E+02  0.51100000000E-03 0.  1.
         11   -1    0    0    0    0 -0.00000000000E+00 -0.00000000000E+00 -0.45593999997E+02  0.45594000000E+02  0.51100000000E-03 0. -1.
    9900012    2    1    2    0    0 -0.31526538818E+02  0.98045203257E+01  0.23730077572E+02  0.50528833134E+02  0.29999918794E+02 0.  0.
         12    1    1    2    0    0  0.31526538818E+02 -0.98045203257E+01 -0.23730077572E+02  0.40659166866E+02  0.00000000000E+00 0. -1.
         11    1    3    3    0    0 -0.19705938138E+02 -0.67301333409E+01  0.61383983679E+01  0.21709413338E+02  0.51100000000E-03 0. -1.
        -11    1    3    3    0    0 -0.75208911673E+01  0.13278868658E+02  0.17769465127E+02  0.23423194657E+02  0.51100000000E-03 0.  1.
        -12    1    3    3    0    0 -0.42997095126E+01  0.32557850085E+01 -0.17778592295E+00  0.53962251387E+01  0.00000000000E+00 0.  1.
</event>
<event>
 7    1  0.2973028E-011  0.5052883E+02  0.7816164E-02  0.1300439E+00
        -11   -1    0    0    0    0  0.00000000000E+00  0.00000000000E+00  0.45593999997E+02  0.45594000000E+02  0.51100000000E-03 0.  1.
         11   -1    0    0    0    0 -0.00000000000E+00 -0.00000000000E+00 -0.45593999997E+02  0.45594000000E+02  0.51100000000E-03 0. -1.
    9900012    2    1    2    0    0 -0.23830840227E+01 -0.37942985065E+02  0.14415928828E+02  0.50528828722E+02  0.29999905382E+02 0.  0.
         12    1    1    2    0    0  0.23830840227E+01  0.37942985065E+02 -0.14415928828E+02  0.40659171278E+02  0.00000000000E+00 0. -1.
         11    1    3    3    0    0 -0.39624907402E+01 -0.47072803839E+01  0.14852143326E+02  0.16076255258E+02  0.51100000000E-03 0. -1.
        -11    1    3    3    0    0  0.14715296924E+01 -0.16537095571E+02  0.41932228743E+01  0.17123786027E+02  0.51100000000E-03 0.  1.
         12    1    3    3    0    0  0.10787702511E+00 -0.16698609110E+02 -0.46294373723E+01  0.17328787437E+02  0.00000000000E+00 0. -1.
</event>
<event>
 7    1  0.2973028E-011  0.5052886E+02  0.7816164E-02  0.1300439E+00
        -11   -1    0    0    0    0  0.00000000000E+00  0.00000000000E+00  0.45593999997E+02  0.45594000000E+02  0.51100000000E-03 0.  1.
         11   -1    0    0    0    0 -0.00000000000E+00 -0.00000000000E+00 -0.45593999997E+02  0.45594000000E+02  0.51100000000E-03 0. -1.
    9900012    2    1    2    0    0 -0.80635060546E+01  0.15197346253E+02  0.36840009496E+02  0.50528858805E+02  0.29999996824E+02 0.  0.
         12    1    1    2    0    0  0.80635060546E+01 -0.15197346253E+02 -0.36840009496E+02  0.40659141195E+02  0.00000000000E+00 0. -1.
         11    1    3    3    0    0  0.10259203434E+02  0.92247533923E+01  0.13573974153E+02  0.19354588728E+02  0.51100000000E-03 0. -1.
        -11    1    3    3    0    0 -0.15115102279E+02  0.18298460619E+01  0.19409046543E+02  0.24668314525E+02  0.51100000000E-03 0.  1.
         12    1    3    3    0    0 -0.32076072089E+01  0.41427467990E+01  0.38569888000E+01  0.65059555525E+01  0.00000000000E+00 0. -1.
</event>
<event>
 7    1  0.2973028E-011  0.5052886E+02  0.7816164E-02  0.1300439E+00
        -11   -1    0    0    0    0  0.00000000000E+00  0.00000000000E+00  0.45593999997E+02  0.45594000000E+02  0.51100000000E-03 0. -1.
         11   -1    0    0    0    0 -0.00000000000E+00 -0.00000000000E+00 -0.45593999997E+02  0.45594000000E+02  0.51100000000E-03 0.  1.
    9900012    2    1    2    0    0  0.23074116941E+01  0.36523752927E+02 -0.17716006471E+02  0.50528861275E+02  0.30000004331E+02 0.  0.
         12    1    1    2    0    0 -0.23074116941E+01 -0.36523752927E+02  0.17716006471E+02  0.40659138725E+02  0.00000000000E+00 0. -1.
         11    1    3    3    0    0 -0.95567485394E+01  0.21058699524E+02  0.51197756859E+00  0.23131415641E+02  0.51100000000E-03 0.  1.
        -11    1    3    3    0    0  0.84439399904E+01  0.11123148798E+02 -0.89159882212E+01  0.16568627220E+02  0.51100000000E-03 0. -1.
        -12    1    3    3    0    0  0.34202202430E+01  0.43419046051E+01 -0.93119958183E+01  0.10828818413E+02  0.00000000000E+00 0.  1.
</event>
<event>
 7    1  0.2973028E-011  0.5052886E+02  0.7816164E-02  0.1300439E+00
        -11   -1    0    0    0    0  0.00000000000E+00  0.00000000000E+00  0.45593999997E+02  0.45594000000E+02  0.51100000000E-03 0. -1.
         11   -1    0    0    0    0 -0.00000000000E+00 -0.00000000000E+00 -0.45593999997E+02  0.45594000000E+02  0.51100000000E-03 0.  1.
    9900012    2    1    2    0    0  0.22011563394E+02 -0.52139050651E+00 -0.34181643731E+02  0.50528861553E+02  0.30000005177E+02 0.  0.
         12    1    1    2    0    0 -0.22011563394E+02  0.52139050651E+00  0.34181643731E+02  0.40659138447E+02  0.00000000000E+00 0. -1.
         11    1    3    3    0    0  0.13959147940E+02  0.42322453391E+01 -0.27848917592E+01  0.14850095427E+02  0.51100000000E-03 0. -1.
        -11    1    3    3    0    0  0.30539463866E+01  0.23750502200E+01 -0.23835010354E+02  0.24146949516E+02  0.51100000000E-03 0.  1.
         12    1    3    3    0    0  0.49984690680E+01 -0.71286860656E+01 -0.75617416173E+01  0.11531816610E+02  0.00000000000E+00 0. -1.
</event>
<event>
 7    1  0.2973028E-011  0.5052884E+02  0.7816164E-02  0.1300439E+00
        -11   -1    0    0    0    0  0.00000000000E+00  0.00000000000E+00  0.45593999997E+02  0.45594000000E+02  0.51100000000E-03 0.  1.
         11   -1    0    0    0    0 -0.00000000000E+00 -0.00000000000E+00 -0.45593999997E+02  0.45594000000E+02  0.51100000000E-03 0. -1.
    9900012    2    1    2    0    0 -0.93992921767E+01  0.91167334639E+01  0.38492929623E+02  0.50528841702E+02  0.29999944839E+02 0.  0.
         12    1    1    2    0    0  0.93992921767E+01 -0.91167334639E+01 -0.38492929623E+02  0.40659158298E+02  0.00000000000E+00 0. -1.
         11    1    3    3    0    0  0.65168891714E+01 -0.63857229962E+01  0.13765170654E+02  0.16514455064E+02  0.51100000000E-03 0. -1.
        -11    1    3    3    0    0 -0.63183322295E+01  0.94715407557E+01  0.16329541439E+02  0.19906916645E+02  0.51100000000E-03 0.  1.
         12    1    3    3    0    0 -0.95978491186E+01  0.60309157044E+01  0.83982175310E+01  0.14107469994E+02  0.00000000000E+00 0. -1.
</event>
<event>
 7    1  0.2973028E-011  0.5052881E+02  0.7816164E-02  0.1300439E+00
        -11   -1    0    0    0    0  0.00000000000E+00  0.00000000000E+00  0.45593999997E+02  0.45594000000E+02  0.51100000000E-03 0.  1.
         11   -1    0    0    0    0 -0.00000000000E+00 -0.00000000000E+00 -0.45593999997E+02  0.45594000000E+02  0.51100000000E-03 0. -1.
    9900012    2    1    2    0    0 -0.32590122313E+02  0.23232131835E+02  0.71639401712E+01  0.50528805950E+02  0.29999836166E+02 0.  0.
         12    1    1    2    0    0  0.32590122313E+02 -0.23232131835E+02 -0.71639401712E+01  0.40659194050E+02  0.00000000000E+00 0. -1.
         11    1    3    3    0    0 -0.95279062588E+01 -0.37614448627E+01 -0.35457286414E+01  0.10839818125E+02  0.51100000000E-03 0. -1.
        -11    1    3    3    0    0 -0.18960352001E+02  0.21400751163E+02  0.21505748745E+01  0.28672496768E+02  0.51100000000E-03 0.  1.
         12    1    3    3    0    0 -0.41018640531E+01  0.55928255344E+01  0.85590939380E+01  0.11016491057E+02  0.00000000000E+00 0. -1.
</event>
<event>
 7    1  0.2973028E-011  0.5052886E+02  0.7816164E-02  0.1300439E+00
        -11   -1    0    0    0    0  0.00000000000E+00  0.00000000000E+00  0.45593999997E+02  0.45594000000E+02  0.51100000000E-03 0.  1.
         11   -1    0    0    0    0 -0.00000000000E+00 -0.00000000000E+00 -0.45593999997E+02  0.45594000000E+02  0.51100000000E-03 0. -1.
    9900012    2    1    2    0    0 -0.17709683251E+02  0.72872501023E+01  0.35866818816E+02  0.50528860967E+02  0.30000003395E+02 0.  0.
         12    1    1    2    0    0  0.17709683251E+02 -0.72872501023E+01 -0.35866818816E+02  0.40659139033E+02  0.00000000000E+00 0. -1.
         11    1    3    3    0    0 -0.16003542130E+02 -0.41367238601E+01  0.92284162790E+01  0.18931178312E+02  0.51100000000E-03 0. -1.
        -11    1    3    3    0    0  0.50177850180E+01  0.43296706516E+01  0.15002205287E+02  0.16400926138E+02  0.51100000000E-03 0.  1.
        -12    1    3    3    0    0 -0.67239261385E+01  0.70943033108E+01  0.11636197251E+02  0.15196756517E+02  0.00000000000E+00 0.  1.
</event>
<event>
 7    1  0.2973028E-011  0.5052885E+02  0.7816164E-02  0.1300439E+00
        -11   -1    0    0    0    0  0.00000000000E+00  0.00000000000E+00  0.45593999997E+02  0.45594000000E+02  0.51100000000E-03 0. -1.
         11   -1    0    0    0    0 -0.00000000000E+00 -0.00000000000E+00 -0.45593999997E+02  0.45594000000E+02  0.51100000000E-03 0.  1.
    9900012    2    1    2    0    0 -0.36977579481E+02 -0.16884368522E+02 -0.86197608160E+00  0.50528852352E+02  0.29999977210E+02 0.  0.
         12    1    1    2    0    0  0.36977579481E+02  0.16884368522E+02  0.86197608160E+00  0.40659147648E+02  0.00000000000E+00 0. -1.
         11    1    3    3    0    0 -0.87529558970E+01 -0.18904858452E+00  0.93709348252E+01  0.12824367277E+02  0.51100000000E-03 0. -1.
        -11    1    3    3    0    0 -0.17440229800E+02 -0.83974919783E+01 -0.13636896200E+02  0.23677931186E+02  0.51100000000E-03 0.  1.
        -12    1    3    3    0    0 -0.10784393785E+02 -0.82978279588E+01  0.34039852936E+01  0.14026553889E+02  0.00000000000E+00 0.  1.
</event>
<event>
 7    1  0.2973028E-011  0.5052886E+02  0.7816164E-02  0.1300439E+00
        -11   -1    0    0    0    0  0.00000000000E+00  0.00000000000E+00  0.45593999997E+02  0.45594000000E+02  0.51100000000E-03 0.  1.
         11   -1    0    0    0    0 -0.00000000000E+00 -0.00000000000E+00 -0.45593999997E+02  0.45594000000E+02  0.51100000000E-03 0. -1.
    9900012    2    1    2    0    0 -0.39575499430E+02  0.85672404800E+01  0.36807085790E+01  0.50528863508E+02  0.30000011120E+02 0.  0.
         12    1    1    2    0    0  0.39575499430E+02 -0.85672404800E+01 -0.36807085790E+01  0.40659136492E+02  0.00000000000E+00 0. -1.
         11    1    3    3    0    0 -0.29532005404E+02  0.62874268739E+01  0.10447842172E+02  0.31950406668E+02  0.51100000000E-03 0. -1.
        -11    1    3    3    0    0 -0.11335371260E+02 -0.28756580127E+01 -0.61919716079E+01  0.13232556944E+02  0.51100000000E-03 0.  1.
         12    1    3    3    0    0  0.12918772341E+01  0.51554716189E+01 -0.57516198552E+00  0.53458998972E+01  0.00000000000E+00 0. -1.
</event>
<event>
 7    1  0.2973028E-011  0.5052886E+02  0.7816164E-02  0.1300439E+00
        -11   -1    0    0    0    0  0.00000000000E+00  0.00000000000E+00  0.45593999997E+02  0.45594000000E+02  0.51100000000E-03 0. -1.
         11   -1    0    0    0    0 -0.00000000000E+00 -0.00000000000E+00 -0.45593999997E+02  0.45594000000E+02  0.51100000000E-03 0.  1.
    9900012    2    1    2    0    0 -0.37264384754E+02 -0.11142155868E+02 -0.11848370099E+02  0.50528857332E+02  0.29999992347E+02 0.  0.
         12    1    1    2    0    0  0.37264384754E+02  0.11142155868E+02  0.11848370099E+02  0.40659142668E+02  0.00000000000E+00 0. -1.
         11    1    3    3    0    0 -0.80720310324E-01  0.11189868310E+01  0.52920813435E+01  0.54096924593E+01  0.51100000000E-03 0. -1.
        -11    1    3    3    0    0 -0.21176021564E+02 -0.42158912759E+01 -0.20386012884E+01  0.21687635279E+02  0.51100000000E-03 0.  1.
         12    1    3    3    0    0 -0.16007642880E+02 -0.80452514230E+01 -0.15101850154E+02  0.23431529594E+02  0.00000000000E+00 0. -1.
</event>
<event>
 7    1  0.2973028E-011  0.5052887E+02  0.7816164E-02  0.1300439E+00
        -11   -1    0    0    0    0  0.00000000000E+00  0.00000000000E+00  0.45593999997E+02  0.45594000000E+02  0.51100000000E-03 0. -1.
         11   -1    0    0    0    0 -0.00000000000E+00 -0.00000000000E+00 -0.45593999997E+02  0.45594000000E+02  0.51100000000E-03 0.  1.
    9900012    2    1    2    0    0  0.18412781768E+02  0.41430427240E+01 -0.36013465005E+02  0.50528868220E+02  0.30000025442E+02 0.  0.
         12    1    1    2    0    0 -0.18412781768E+02 -0.41430427240E+01  0.36013465005E+02  0.40659131780E+02  0.00000000000E+00 0. -1.
         11    1    3    3    0    0  0.33528923812E+01  0.46704927393E+01 -0.50846666562E+01  0.76752345250E+01  0.51100000000E-03 0. -1.
        -11    1    3    3    0    0  0.10074742515E+02 -0.11641250212E+02 -0.24869443821E+02  0.29249074848E+02  0.51100000000E-03 0.  1.
        -12    1    3    3    0    0  0.49851468709E+01  0.11113800196E+02 -0.60593545279E+01  0.13604558847E+02  0.00000000000E+00 0.  1.
</event>
<event>
 7    1  0.2973028E-011  0.5052884E+02  0.7816164E-02  0.1300439E+00
        -11   -1    0    0    0    0  0.00000000000E+00  0.00000000000E+00  0.45593999997E+02  0.45594000000E+02  0.51100000000E-03 0.  1.
         11   -1    0    0    0    0 -0.00000000000E+00 -0.00000000000E+00 -0.45593999997E+02  0.45594000000E+02  0.51100000000E-03 0. -1.
    9900012    2    1    2    0    0 -0.15727620173E+02  0.34440579022E+02 -0.14820784092E+02  0.50528841612E+02  0.29999944564E+02 0.  0.
         12    1    1    2    0    0  0.15727620173E+02 -0.34440579022E+02  0.14820784092E+02  0.40659158388E+02  0.00000000000E+00 0. -1.
         11    1    3    3    0    0 -0.87895074207E+01 -0.18876438759E+01  0.65809639092E+00  0.90139742191E+01  0.51100000000E-03 0. -1.
        -11    1    3    3    0    0 -0.88538439883E+01  0.18900297499E+02 -0.67972298744E+01  0.21950264990E+02  0.51100000000E-03 0.  1.
         12    1    3    3    0    0  0.19157312357E+01  0.17427925400E+02 -0.86816506087E+01  0.19564602403E+02  0.00000000000E+00 0. -1.
</event>
<event>
 7    1  0.2973028E-011  0.5052887E+02  0.7816164E-02  0.1300439E+00
        -11   -1    0    0    0    0  0.00000000000E+00  0.00000000000E+00  0.45593999997E+02  0.45594000000E+02  0.51100000000E-03 0.  1.
         11   -1    0    0    0    0 -0.00000000000E+00 -0.00000000000E+00 -0.45593999997E+02  0.45594000000E+02  0.51100000000E-03 0. -1.
    9900012    2    1    2    0    0 -0.12382027335E+02 -0.23914576185E+02  0.30462164272E+02  0.50528868097E+02  0.30000025067E+02 0.  0.
         12    1    1    2    0    0  0.12382027335E+02  0.23914576185E+02 -0.30462164272E+02  0.40659131903E+02  0.00000000000E+00 0. -1.
         11    1    3    3    0    0 -0.99946449788E+01 -0.10555053011E+01  0.96227031101E+01  0.13914145144E+02  0.51100000000E-03 0. -1.
        -11    1    3    3    0    0  0.83536013553E+01 -0.12753475985E+02  0.12171399781E+02  0.19508377129E+02  0.51100000000E-03 0.  1.
        -12    1    3    3    0    0 -0.10740983711E+02 -0.10105594899E+02  0.86680613804E+01  0.17106345824E+02  0.00000000000E+00 0.  1.
</event>
<event>
 7    1  0.2973028E-011  0.5052886E+02  0.7816164E-02  0.1300439E+00
        -11   -1    0    0    0    0  0.00000000000E+00  0.00000000000E+00  0.45593999997E+02  0.45594000000E+02  0.51100000000E-03 0.  1.
         11   -1    0    0    0    0 -0.00000000000E+00 -0.00000000000E+00 -0.45593999997E+02  0.45594000000E+02  0.51100000000E-03 0. -1.
    9900012    2    1    2    0    0  0.76158617666E+01 -0.22776900594E+02  0.32808190231E+02  0.50528857149E+02  0.29999991790E+02 0.  0.
         12    1    1    2    0    0 -0.76158617666E+01  0.22776900594E+02 -0.32808190231E+02  0.40659142851E+02  0.00000000000E+00 0. -1.
         11    1    3    3    0    0  0.67089839273E+01 -0.27645721016E+01 -0.10942585708E+01  0.73383054122E+01  0.51100000000E-03 0. -1.
        -11    1    3    3    0    0  0.26216708824E+01 -0.10274344943E+02  0.31181625076E+02  0.32935225289E+02  0.51100000000E-03 0.  1.
        -12    1    3    3    0    0 -0.17147930430E+01 -0.97379835497E+01  0.27208237260E+01  0.10255326447E+02  0.00000000000E+00 0.  1.
</event>
<event>
 7    1  0.2973028E-011  0.5052886E+02  0.7816164E-02  0.1300439E+00
        -11   -1    0    0    0    0  0.00000000000E+00  0.00000000000E+00  0.45593999997E+02  0.45594000000E+02  0.51100000000E-03 0.  1.
         11   -1    0    0    0    0 -0.00000000000E+00 -0.00000000000E+00 -0.45593999997E+02  0.45594000000E+02  0.51100000000E-03 0. -1.
    9900012    2    1    2    0    0  0.78097186511E+01  0.16638509472E+02  0.36267530211E+02  0.50528862645E+02  0.30000008495E+02 0.  0.
         12    1    1    2    0    0 -0.78097186511E+01 -0.16638509472E+02 -0.36267530211E+02  0.40659137355E+02  0.00000000000E+00 0. -1.
         11    1    3    3    0    0  0.17090221408E+01  0.25981475118E+01  0.31993737229E+02  0.32144522851E+02  0.51100000000E-03 0. -1.
        -11    1    3    3    0    0  0.14956776184E+00  0.80956951500E+01 -0.14284706731E+01  0.82221152511E+01  0.51100000000E-03 0.  1.
         12    1    3    3    0    0  0.59511287485E+01  0.59446668103E+01  0.57022636554E+01  0.10162224543E+02  0.00000000000E+00 0. -1.
</event>
<event>
 7    1  0.2973028E-011  0.5052886E+02  0.7816164E-02  0.1300439E+00
        -11   -1    0    0    0    0  0.00000000000E+00  0.00000000000E+00  0.45593999997E+02  0.45594000000E+02  0.51100000000E-03 0. -1.
         11   -1    0    0    0    0 -0.00000000000E+00 -0.00000000000E+00 -0.45593999997E+02  0.45594000000E+02  0.51100000000E-03 0.  1.
    9900012    2    1    2    0    0 -0.24555911493E+01  0.57950825622E+01 -0.40169053422E+02  0.50528858806E+02  0.29999996828E+02 0.  0.
         12    1    1    2    0    0  0.24555911493E+01 -0.57950825622E+01  0.40169053422E+02  0.40659141194E+02  0.00000000000E+00 0. -1.
         11    1    3    3    0    0  0.17961600429E+01  0.89366890654E+01 -0.41600956233E+02  0.42587910985E+02  0.51100000000E-03 0.  1.
        -11    1    3    3    0    0 -0.53525848169E+00 -0.13278027552E+00  0.28897332792E+01  0.29418856078E+01  0.51100000000E-03 0. -1.
         12    1    3    3    0    0 -0.37164927105E+01 -0.30088262277E+01 -0.14578304682E+01  0.49990622130E+01  0.00000000000E+00 0. -1.
</event>
<event>
 7    1  0.2973028E-011  0.5052886E+02  0.7816164E-02  0.1300439E+00
        -11   -1    0    0    0    0  0.00000000000E+00  0.00000000000E+00  0.45593999997E+02  0.45594000000E+02  0.51100000000E-03 0. -1.
         11   -1    0    0    0    0 -0.00000000000E+00 -0.00000000000E+00 -0.45593999997E+02  0.45594000000E+02  0.51100000000E-03 0.  1.
    9900012    2    1    2    0    0 -0.34158328829E+02  0.21511323777E+02  0.48617890887E+01  0.50528862377E+02  0.30000007683E+02 0.  0.
         12    1    1    2    0    0  0.34158328829E+02 -0.21511323777E+02 -0.48617890887E+01  0.40659137623E+02  0.00000000000E+00 0. -1.
         11    1    3    3    0    0  0.50330305367E+01  0.45565261260E+00 -0.17879554203E+00  0.50567760277E+01  0.51100000000E-03 0. -1.
        -11    1    3    3    0    0 -0.22944415550E+02  0.11636159848E+02 -0.99611792307E+00  0.25745653460E+02  0.51100000000E-03 0.  1.
         12    1    3    3    0    0 -0.16246943817E+02  0.94195113166E+01  0.60367025538E+01  0.19726432890E+02  0.00000000000E+00 0. -1.
</event>
<event>
 7    1  0.2973028E-011  0.5052888E+02  0.7816164E-02  0.1300439E+00
        -11   -1    0    0    0    0  0.00000000000E+00  0.00000000000E+00  0.45593999997E+02  0.45594000000E+02  0.51100000000E-03 0. -1.
         11   -1    0    0    0    0 -0.00000000000E+00 -0.00000000000E+00 -0.45593999997E+02  0.45594000000E+02  0.51100000000E-03 0.  1.
    9900012    2    1    2    0    0  0.27369680483E+02 -0.53180229299E+01 -0.29593631834E+02  0.50528882661E+02  0.30000069336E+02 0.  0.
         12    1    1    2    0    0 -0.27369680483E+02  0.53180229299E+01  0.29593631834E+02  0.40659117339E+02  0.00000000000E+00 0. -1.
         11    1    3    3    0    0  0.10527344790E+02  0.28413440859E+01  0.34015000179E+01  0.11422277670E+02  0.51100000000E-03 0. -1.
        -11    1    3    3    0    0  0.42273073846E+01 -0.55174830470E+00 -0.16268032731E+02  0.16817355414E+02  0.51100000000E-03 0.  1.
        -12    1    3    3    0    0  0.12615028309E+02 -0.76076187111E+01 -0.16727099122E+02  0.22289249577E+02  0.00000000000E+00 0.  1.
</event>
<event>
 7    1  0.2973028E-011  0.5052886E+02  0.7816164E-02  0.1300439E+00
        -11   -1    0    0    0    0  0.00000000000E+00  0.00000000000E+00  0.45593999997E+02  0.45594000000E+02  0.51100000000E-03 0. -1.
         11   -1    0    0    0    0 -0.00000000000E+00 -0.00000000000E+00 -0.45593999997E+02  0.45594000000E+02  0.51100000000E-03 0.  1.
    9900012    2    1    2    0    0 -0.39376722775E+02  0.80570323419E+01 -0.61419798422E+01  0.50528856096E+02  0.29999988589E+02 0.  0.
         12    1    1    2    0    0  0.39376722775E+02 -0.80570323419E+01  0.61419798422E+01  0.40659143904E+02  0.00000000000E+00 0. -1.
         11    1    3    3    0    0  0.28634854773E+01 -0.27406349749E+01 -0.51886131607E+00  0.39974800150E+01  0.51100000000E-03 0. -1.
        -11    1    3    3    0    0 -0.29145751508E+02  0.71454655451E+01  0.34213923868E+01  0.30203285168E+02  0.51100000000E-03 0.  1.
         12    1    3    3    0    0 -0.13094456744E+02  0.36522017717E+01 -0.90445109129E+01  0.16328090913E+02  0.00000000000E+00 0. -1.
</event>
<event>
 7    1  0.2973028E-011  0.5052888E+02  0.7816164E-02  0.1300439E+00
        -11   -1    0    0    0    0  0.00000000000E+00  0.00000000000E+00  0.45593999997E+02  0.45594000000E+02  0.51100000000E-03 0.  1.
         11   -1    0    0    0    0 -0.00000000000E+00 -0.00000000000E+00 -0.45593999997E+02  0.45594000000E+02  0.51100000000E-03 0. -1.
    9900012    2    1    2    0    0 -0.36558924587E+02 -0.14004589668E+02  0.10976351064E+02  0.50528883170E+02  0.30000070884E+02 0.  0.
         12    1    1    2    0    0  0.36558924587E+02  0.14004589668E+02 -0.10976351064E+02  0.40659116830E+02  0.00000000000E+00 0. -1.
         11    1    3    3    0    0 -0.13088479830E+01 -0.32292564734E+01  0.95796827536E+01  0.10193699149E+02  0.51100000000E-03 0.  1.
        -11    1    3    3    0    0 -0.33036840059E+02 -0.41659411669E+01  0.18543561897E+01  0.33350060030E+02  0.51100000000E-03 0. -1.
        -12    1    3    3    0    0 -0.22132365447E+01 -0.66093920274E+01 -0.45768787974E+00  0.69851239911E+01  0.00000000000E+00 0.  1.
</event>
<event>
 7    1  0.2973028E-011  0.5052880E+02  0.7816164E-02  0.1300439E+00
        -11   -1    0    0    0    0  0.00000000000E+00  0.00000000000E+00  0.45593999997E+02  0.45594000000E+02  0.51100000000E-03 0. -1.
         11   -1    0    0    0    0 -0.00000000000E+00 -0.00000000000E+00 -0.45593999997E+02  0.45594000000E+02  0.51100000000E-03 0.  1.
    9900012    2    1    2    0    0 -0.55779919069E+01 -0.36873052285E+02 -0.16199835907E+02  0.50528798557E+02  0.29999813695E+02 0.  0.
         12    1    1    2    0    0  0.55779919069E+01  0.36873052285E+02  0.16199835907E+02  0.40659201443E+02  0.00000000000E+00 0. -1.
         11    1    3    3    0    0  0.90124165745E+01 -0.44065924992E+01 -0.20399012409E+01  0.10237329110E+02  0.51100000000E-03 0. -1.
        -11    1    3    3    0    0 -0.13736434003E+02 -0.17507130367E+02 -0.11585921547E+02  0.25088300284E+02  0.51100000000E-03 0.  1.
        -12    1    3    3    0    0 -0.85397447845E+00 -0.14959329419E+02 -0.25740131193E+01  0.15203169164E+02  0.00000000000E+00 0.  1.
</event>
<event>
 7    1  0.2973028E-011  0.5052886E+02  0.7816164E-02  0.1300439E+00
        -11   -1    0    0    0    0  0.00000000000E+00  0.00000000000E+00  0.45593999997E+02  0.45594000000E+02  0.51100000000E-03 0. -1.
         11   -1    0    0    0    0 -0.00000000000E+00 -0.00000000000E+00 -0.45593999997E+02  0.45594000000E+02  0.51100000000E-03 0.  1.
    9900012    2    1    2    0    0  0.26199140286E+02  0.27478699081E+02  0.14549631923E+02  0.50528860264E+02  0.30000001260E+02 0.  0.
         12    1    1    2    0    0 -0.26199140286E+02 -0.27478699081E+02 -0.14549631923E+02  0.40659139736E+02  0.00000000000E+00 0. -1.
         11    1    3    3    0    0  0.20337060615E+02  0.16780871221E+02  0.19300955811E+02  0.32675993771E+02  0.51100000000E-03 0. -1.
        -11    1    3    3    0    0 -0.76187026084E+00  0.91484889452E+01 -0.59577977226E+01  0.10943977807E+02  0.51100000000E-03 0.  1.
        -12    1    3    3    0    0  0.66239499319E+01  0.15493389146E+01  0.12064738344E+01  0.69088886868E+01  0.00000000000E+00 0.  1.
</event>
<event>
 7    1  0.2973028E-011  0.5052898E+02  0.7816164E-02  0.1300438E+00
        -11   -1    0    0    0    0  0.00000000000E+00  0.00000000000E+00  0.45593999997E+02  0.45594000000E+02  0.51100000000E-03 0.  1.
         11   -1    0    0    0    0 -0.00000000000E+00 -0.00000000000E+00 -0.45593999997E+02  0.45594000000E+02  0.51100000000E-03 0. -1.
    9900012    2    1    2    0    0 -0.37227808304E+02  0.12535499209E+02  0.10493222012E+02  0.50528976897E+02  0.30000355773E+02 0.  0.
         12    1    1    2    0    0  0.37227808304E+02 -0.12535499209E+02 -0.10493222012E+02  0.40659023103E+02  0.00000000000E+00 0. -1.
         11    1    3    3    0    0  0.28605811274E+01 -0.32347433991E+01  0.38766925400E+01  0.58030366667E+01  0.51100000000E-03 0. -1.
        -11    1    3    3    0    0 -0.10684756799E+02  0.48805118355E+01  0.63847913854E+01  0.13369703995E+02  0.51100000000E-03 0.  1.
         12    1    3    3    0    0 -0.29403632633E+02  0.10889730772E+02  0.23173808626E+00  0.31356236235E+02  0.00000000000E+00 0. -1.
</event>
<event>
 7    1  0.2973028E-011  0.5052886E+02  0.7816164E-02  0.1300439E+00
        -11   -1    0    0    0    0  0.00000000000E+00  0.00000000000E+00  0.45593999997E+02  0.45594000000E+02  0.51100000000E-03 0.  1.
         11   -1    0    0    0    0 -0.00000000000E+00 -0.00000000000E+00 -0.45593999997E+02  0.45594000000E+02  0.51100000000E-03 0. -1.
    9900012    2    1    2    0    0  0.16545523199E+02  0.22052291092E+02  0.29884907268E+02  0.50528861264E+02  0.30000004297E+02 0.  0.
         12    1    1    2    0    0 -0.16545523199E+02 -0.22052291092E+02 -0.29884907268E+02  0.40659138736E+02  0.00000000000E+00 0. -1.
         11    1    3    3    0    0 -0.53075046808E+01  0.66428427588E+00  0.12243006162E+02  0.13360467045E+02  0.51100000000E-03 0. -1.
        -11    1    3    3    0    0  0.18557135904E+02  0.22456981246E+02  0.16693091324E+02  0.33575922889E+02  0.51100000000E-03 0.  1.
         12    1    3    3    0    0  0.32958919755E+01 -0.10689744301E+01  0.94880978249E+00  0.35924713290E+01  0.00000000000E+00 0. -1.
</event>
<event>
 7    1  0.2973028E-011  0.5052886E+02  0.7816164E-02  0.1300439E+00
        -11   -1    0    0    0    0  0.00000000000E+00  0.00000000000E+00  0.45593999997E+02  0.45594000000E+02  0.51100000000E-03 0.  1.
         11   -1    0    0    0    0 -0.00000000000E+00 -0.00000000000E+00 -0.45593999997E+02  0.45594000000E+02  0.51100000000E-03 0. -1.
    9900012    2    1    2    0    0  0.19978837056E+02 -0.98274185774E+01  0.34021077178E+02  0.50528858612E+02  0.29999996238E+02 0.  0.
         12    1    1    2    0    0 -0.19978837056E+02  0.98274185774E+01 -0.34021077178E+02  0.40659141388E+02  0.00000000000E+00 0. -1.
         11    1    3    3    0    0  0.13710774542E+02 -0.45693335709E+01 -0.98225660157E+00  0.14485474660E+02  0.51100000000E-03 0. -1.
        -11    1    3    3    0    0  0.39067926613E+01 -0.16362863150E+01  0.18991230019E+02  0.19457833376E+02  0.51100000000E-03 0.  1.
         12    1    3    3    0    0  0.23612698528E+01 -0.36217986915E+01  0.16012103761E+02  0.16585550577E+02  0.00000000000E+00 0. -1.
</event>
<event>
 7    1  0.2973028E-011  0.5052885E+02  0.7816164E-02  0.1300439E+00
        -11   -1    0    0    0    0  0.00000000000E+00  0.00000000000E+00  0.45593999997E+02  0.45594000000E+02  0.51100000000E-03 0. -1.
         11   -1    0    0    0    0 -0.00000000000E+00 -0.00000000000E+00 -0.45593999997E+02  0.45594000000E+02  0.51100000000E-03 0.  1.
    9900012    2    1    2    0    0 -0.36056939609E+02  0.51076863099E+01 -0.18082444190E+02  0.50528854150E+02  0.29999982673E+02 0.  0.
         12    1    1    2    0    0  0.36056939609E+02 -0.51076863099E+01  0.18082444190E+02  0.40659145850E+02  0.00000000000E+00 0. -1.
         11    1    3    3    0    0  0.67775560836E+00  0.15749324380E+01 -0.11266340805E+02  0.11396060734E+02  0.51100000000E-03 0. -1.
        -11    1    3    3    0    0 -0.20754975425E+02  0.61104848509E+01 -0.75887584847E+01  0.22928067638E+02  0.51100000000E-03 0.  1.
         12    1    3    3    0    0 -0.15979719792E+02 -0.25777309790E+01  0.77265509988E+00  0.16204725778E+02  0.00000000000E+00 0. -1.
</event>
<event>
 7    1  0.2973028E-011  0.5052886E+02  0.7816164E-02  0.1300439E+00
        -11   -1    0    0    0    0  0.00000000000E+00  0.00000000000E+00  0.45593999997E+02  0.45594000000E+02  0.51100000000E-03 0. -1.
         11   -1    0    0    0    0 -0.00000000000E+00 -0.00000000000E+00 -0.45593999997E+02  0.45594000000E+02  0.51100000000E-03 0.  1.
    9900012    2    1    2    0    0  0.18439450923E+02  0.12347988099E+02 -0.34068749090E+02  0.50528858039E+02  0.29999994497E+02 0.  0.
         12    1    1    2    0    0 -0.18439450923E+02 -0.12347988099E+02  0.34068749090E+02  0.40659141961E+02  0.00000000000E+00 0. -1.
         11    1    3    3    0    0  0.22883634501E+01  0.22457110850E+01  0.13119439049E+01  0.34642492156E+01  0.51100000000E-03 0. -1.
        -11    1    3    3    0    0  0.14019823212E+02  0.11672351798E+02 -0.38720612074E+02  0.42802862510E+02  0.51100000000E-03 0.  1.
        -12    1    3    3    0    0  0.21312642615E+01 -0.15700747841E+01  0.33399190800E+01  0.42617463135E+01  0.00000000000E+00 0.  1.
</event>
<event>
 7    1  0.2973028E-011  0.5052883E+02  0.7816164E-02  0.1300439E+00
        -11   -1    0    0    0    0  0.00000000000E+00  0.00000000000E+00  0.45593999997E+02  0.45594000000E+02  0.51100000000E-03 0.  1.
         11   -1    0    0    0    0 -0.00000000000E+00 -0.00000000000E+00 -0.45593999997E+02  0.45594000000E+02  0.51100000000E-03 0. -1.
    9900012    2    1    2    0    0  0.99195055508E+01  0.10549544360E+02  0.37993137901E+02  0.50528831242E+02  0.29999913042E+02 0.  0.
         12    1    1    2    0    0 -0.99195055508E+01 -0.10549544360E+02 -0.37993137901E+02  0.40659168758E+02  0.00000000000E+00 0. -1.
         11    1    3    3    0    0  0.25473613354E+01  0.87574631115E+01 -0.32342675256E+00  0.91261610246E+01  0.51100000000E-03 0. -1.
        -11    1    3    3    0    0  0.98132056928E-01  0.65693224087E+00  0.31054545317E+02  0.31061647976E+02  0.51100000000E-03 0.  1.
        -12    1    3    3    0    0  0.72740121585E+01  0.11351490073E+01  0.72620193360E+01  0.10341022241E+02  0.00000000000E+00 0.  1.
</event>
<event>
 7    1  0.2973028E-011  0.5052885E+02  0.7816164E-02  0.1300439E+00
        -11   -1    0    0    0    0  0.00000000000E+00  0.00000000000E+00  0.45593999997E+02  0.45594000000E+02  0.51100000000E-03 0.  1.
         11   -1    0    0    0    0 -0.00000000000E+00 -0.00000000000E+00 -0.45593999997E+02  0.45594000000E+02  0.51100000000E-03 0. -1.
    9900012    2    1    2    0    0  0.19474306918E+02  0.10843658341E+02  0.34004899309E+02  0.50528846871E+02  0.29999960550E+02 0.  0.
         12    1    1    2    0    0 -0.19474306918E+02 -0.10843658341E+02 -0.34004899309E+02  0.40659153129E+02  0.00000000000E+00 0. -1.
         11    1    3    3    0    0  0.11995864799E+02 -0.63185774056E+01  0.72852609532E+01  0.15391563277E+02  0.51100000000E-03 0. -1.
        -11    1    3    3    0    0  0.10355643206E+02  0.13273493033E+02  0.24707854164E+02  0.29898211003E+02  0.51100000000E-03 0.  1.
         12    1    3    3    0    0 -0.28772010866E+01  0.38887427133E+01  0.20117841915E+01  0.52390725912E+01  0.00000000000E+00 0. -1.
</event>
<event>
 7    1  0.2973028E-011  0.5052886E+02  0.7816164E-02  0.1300439E+00
        -11   -1    0    0    0    0  0.00000000000E+00  0.00000000000E+00  0.45593999997E+02  0.45594000000E+02  0.51100000000E-03 0.  1.
         11   -1    0    0    0    0 -0.00000000000E+00 -0.00000000000E+00 -0.45593999997E+02  0.45594000000E+02  0.51100000000E-03 0. -1.
    9900012    2    1    2    0    0 -0.32611592188E+02 -0.59994006106E+01  0.23529910038E+02  0.50528863030E+02  0.30000009667E+02 0.  0.
         12    1    1    2    0    0  0.32611592188E+02  0.59994006106E+01 -0.23529910038E+02  0.40659136970E+02  0.00000000000E+00 0. -1.
         11    1    3    3    0    0 -0.42655764506E+01  0.64285282778E+01  0.94927493257E+01  0.12232473515E+02  0.51100000000E-03 0. -1.
        -11    1    3    3    0    0 -0.16885020527E+02 -0.11903656224E+02  0.65522428826E+00  0.20669549314E+02  0.51100000000E-03 0.  1.
        -12    1    3    3    0    0 -0.11460995210E+02 -0.52427266394E+00  0.13381936424E+02  0.17626840201E+02  0.00000000000E+00 0.  1.
</event>
<event>
 7    1  0.2973028E-011  0.5052887E+02  0.7816164E-02  0.1300439E+00
        -11   -1    0    0    0    0  0.00000000000E+00  0.00000000000E+00  0.45593999997E+02  0.45594000000E+02  0.51100000000E-03 0.  1.
         11   -1    0    0    0    0 -0.00000000000E+00 -0.00000000000E+00 -0.45593999997E+02  0.45594000000E+02  0.51100000000E-03 0. -1.
    9900012    2    1    2    0    0 -0.19984192917E+02  0.26504688801E+02  0.23479738596E+02  0.50528872863E+02  0.30000039555E+02 0.  0.
         12    1    1    2    0    0  0.19984192917E+02 -0.26504688801E+02 -0.23479738596E+02  0.40659127137E+02  0.00000000000E+00 0. -1.
         11    1    3    3    0    0 -0.25321355895E+02  0.14057798392E+02  0.12686596599E+02  0.31618704805E+02  0.51100000000E-03 0. -1.
        -11    1    3    3    0    0  0.22952418745E+01  0.10925525780E+02  0.10765258355E+02  0.15508901848E+02  0.51100000000E-03 0.  1.
         12    1    3    3    0    0  0.30419211035E+01  0.15213646287E+01  0.27883642536E-01  0.34012662100E+01  0.00000000000E+00 0. -1.
</event>
<event>
 7    1  0.2973028E-011  0.5052885E+02  0.7816164E-02  0.1300439E+00
        -11   -1    0    0    0    0  0.00000000000E+00  0.00000000000E+00  0.45593999997E+02  0.45594000000E+02  0.51100000000E-03 0. -1.
         11   -1    0    0    0    0 -0.00000000000E+00 -0.00000000000E+00 -0.45593999997E+02  0.45594000000E+02  0.51100000000E-03 0.  1.
    9900012    2    1    2    0    0 -0.14165580035E+02 -0.19340827391E+02  0.32839532650E+02  0.50528853839E+02  0.29999981728E+02 0.  0.
         12    1    1    2    0    0  0.14165580035E+02  0.19340827391E+02 -0.32839532650E+02  0.40659146161E+02  0.00000000000E+00 0. -1.
         11    1    3    3    0    0  0.96008705932E+00 -0.14295555592E+02  0.14567286343E+01  0.14401622666E+02  0.51100000000E-03 0.  1.
        -11    1    3    3    0    0 -0.12505539544E+02 -0.35854062369E+00  0.21230492557E+02  0.24642461020E+02  0.51100000000E-03 0. -1.
         12    1    3    3    0    0 -0.26201275506E+01 -0.46867311757E+01  0.10152311459E+02  0.11484770152E+02  0.00000000000E+00 0. -1.
</event>
<event>
 7    1  0.2973028E-011  0.5052886E+02  0.7816164E-02  0.1300439E+00
        -11   -1    0    0    0    0  0.00000000000E+00  0.00000000000E+00  0.45593999997E+02  0.45594000000E+02  0.51100000000E-03 0.  1.
         11   -1    0    0    0    0 -0.00000000000E+00 -0.00000000000E+00 -0.45593999997E+02  0.45594000000E+02  0.51100000000E-03 0. -1.
    9900012    2    1    2    0    0 -0.26623696105E+02  0.29889984353E+02  0.71367854325E+01  0.50528855085E+02  0.29999985517E+02 0.  0.
         12    1    1    2    0    0  0.26623696105E+02 -0.29889984353E+02 -0.71367854325E+01  0.40659144915E+02  0.00000000000E+00 0. -1.
         11    1    3    3    0    0 -0.50665096665E+01  0.24723562559E+02  0.92844722231E+01  0.26890992740E+02  0.51100000000E-03 0. -1.
        -11    1    3    3    0    0 -0.13565045803E+02 -0.29352539455E-01  0.99258678066E+00  0.13601343977E+02  0.51100000000E-03 0.  1.
         12    1    3    3    0    0 -0.79921406354E+01  0.51957743334E+01 -0.31402735713E+01  0.10036518369E+02  0.00000000000E+00 0. -1.
</event>
<event>
 7    1  0.2973028E-011  0.5052887E+02  0.7816164E-02  0.1300439E+00
        -11   -1    0    0    0    0  0.00000000000E+00  0.00000000000E+00  0.45593999997E+02  0.45594000000E+02  0.51100000000E-03 0.  1.
         11   -1    0    0    0    0 -0.00000000000E+00 -0.00000000000E+00 -0.45593999997E+02  0.45594000000E+02  0.51100000000E-03 0. -1.
    9900012    2    1    2    0    0 -0.21925166334E+02 -0.12743422490E+02  0.31781398703E+02  0.50528867704E+02  0.30000023874E+02 0.  0.
         12    1    1    2    0    0  0.21925166334E+02  0.12743422490E+02 -0.31781398703E+02  0.40659132296E+02  0.00000000000E+00 0. -1.
         11    1    3    3    0    0  0.19848194962E+01 -0.75418182444E+01 -0.23275814600E+00  0.78020963516E+01  0.51100000000E-03 0. -1.
        -11    1    3    3    0    0 -0.25754080265E+02 -0.53977246806E+01  0.28760516107E+02  0.38981731221E+02  0.51100000000E-03 0.  1.
         12    1    3    3    0    0  0.18440944343E+01  0.19612043550E+00  0.32536407416E+01  0.37450401311E+01  0.00000000000E+00 0. -1.
</event>
<event>
 7    1  0.2973028E-011  0.5052887E+02  0.7816164E-02  0.1300439E+00
        -11   -1    0    0    0    0  0.00000000000E+00  0.00000000000E+00  0.45593999997E+02  0.45594000000E+02  0.51100000000E-03 0. -1.
         11   -1    0    0    0    0 -0.00000000000E+00 -0.00000000000E+00 -0.45593999997E+02  0.45594000000E+02  0.51100000000E-03 0.  1.
    9900012    2    1    2    0    0 -0.10878560903E+02  0.35974798569E+02 -0.15512447875E+02  0.50528865006E+02  0.30000015671E+02 0.  0.
         12    1    1    2    0    0  0.10878560903E+02 -0.35974798569E+02  0.15512447875E+02  0.40659134994E+02  0.00000000000E+00 0. -1.
         11    1    3    3    0    0  0.99214596584E+01  0.69422996994E+01 -0.25138570955E+01  0.12367310323E+02  0.51100000000E-03 0. -1.
        -11    1    3    3    0    0 -0.91484822666E+01  0.12112759379E+02 -0.72928365316E+01  0.16840401791E+02  0.51100000000E-03 0.  1.
         12    1    3    3    0    0 -0.11651538295E+02  0.16919739491E+02 -0.57057542481E+01  0.21321152891E+02  0.00000000000E+00 0. -1.
</event>
<event>
 7    1  0.2973028E-011  0.5052887E+02  0.7816164E-02  0.1300439E+00
        -11   -1    0    0    0    0  0.00000000000E+00  0.00000000000E+00  0.45593999997E+02  0.45594000000E+02  0.51100000000E-03 0.  1.
         11   -1    0    0    0    0 -0.00000000000E+00 -0.00000000000E+00 -0.45593999997E+02  0.45594000000E+02  0.51100000000E-03 0. -1.
    9900012    2    1    2    0    0  0.12739084283E+02 -0.35381416681E+02  0.15460798037E+02  0.50528865839E+02  0.30000018206E+02 0.  0.
         12    1    1    2    0    0 -0.12739084283E+02  0.35381416681E+02 -0.15460798037E+02  0.40659134161E+02  0.00000000000E+00 0. -1.
         11    1    3    3    0    0 -0.42243805445E+01 -0.19876286815E+01  0.11056743980E+02  0.12001985105E+02  0.51100000000E-03 0. -1.
        -11    1    3    3    0    0  0.11472245471E+02 -0.21357714749E+02  0.65768690712E+01  0.25120103552E+02  0.51100000000E-03 0.  1.
         12    1    3    3    0    0  0.54912193571E+01 -0.12036073251E+02 -0.21728150145E+01  0.13406777182E+02  0.00000000000E+00 0. -1.
</event>
<event>
 7    1  0.2973028E-011  0.5052886E+02  0.7816164E-02  0.1300439E+00
        -11   -1    0    0    0    0  0.00000000000E+00  0.00000000000E+00  0.45593999997E+02  0.45594000000E+02  0.51100000000E-03 0.  1.
         11   -1    0    0    0    0 -0.00000000000E+00 -0.00000000000E+00 -0.45593999997E+02  0.45594000000E+02  0.51100000000E-03 0. -1.
    9900012    2    1    2    0    0  0.61319801844E+01 -0.40152662847E+02  0.18243338144E+01  0.50528859471E+02  0.29999998849E+02 0.  0.
         12    1    1    2    0    0 -0.61319801844E+01  0.40152662847E+02 -0.18243338144E+01  0.40659140529E+02  0.00000000000E+00 0. -1.
         11    1    3    3    0    0 -0.57476100673E+01 -0.31675291892E+02  0.87964152316E+01  0.33372684326E+02  0.51100000000E-03 0. -1.
        -11    1    3    3    0    0  0.35135748285E+01 -0.59085204612E+01 -0.23916779334E+01  0.72784576466E+01  0.51100000000E-03 0.  1.
         12    1    3    3    0    0  0.83660154232E+01 -0.25688504938E+01 -0.45804034838E+01  0.98777174993E+01  0.00000000000E+00 0. -1.
</event>
<event>
 7    1  0.2973028E-011  0.5052889E+02  0.7816164E-02  0.1300439E+00
        -11   -1    0    0    0    0  0.00000000000E+00  0.00000000000E+00  0.45593999997E+02  0.45594000000E+02  0.51100000000E-03 0.  1.
         11   -1    0    0    0    0 -0.00000000000E+00 -0.00000000000E+00 -0.45593999997E+02  0.45594000000E+02  0.51100000000E-03 0. -1.
    9900012    2    1    2    0    0 -0.14448165379E+02 -0.38005300835E+02 -0.10353550998E+00  0.50528891623E+02  0.30000096577E+02 0.  0.
         12    1    1    2    0    0  0.14448165379E+02  0.38005300835E+02  0.10353550998E+00  0.40659108377E+02  0.00000000000E+00 0. -1.
         11    1    3    3    0    0 -0.49271149636E+01 -0.22473850137E+01 -0.24015138763E+01  0.59240586108E+01  0.51100000000E-03 0. -1.
        -11    1    3    3    0    0 -0.16192194601E+01 -0.21458027781E+02  0.12936855514E+02  0.25108386224E+02  0.51100000000E-03 0.  1.
        -12    1    3    3    0    0 -0.79018309552E+01 -0.14299888041E+02 -0.10638877147E+02  0.19496446788E+02  0.00000000000E+00 0.  1.
</event>
<event>
 7    1  0.2973028E-011  0.5052879E+02  0.7816164E-02  0.1300439E+00
        -11   -1    0    0    0    0  0.00000000000E+00  0.00000000000E+00  0.45593999997E+02  0.45594000000E+02  0.51100000000E-03 0. -1.
         11   -1    0    0    0    0 -0.00000000000E+00 -0.00000000000E+00 -0.45593999997E+02  0.45594000000E+02  0.51100000000E-03 0.  1.
    9900012    2    1    2    0    0  0.87804660007E+00  0.32983039656E+02 -0.23759621073E+02  0.50528788691E+02  0.29999783704E+02 0.  0.
         12    1    1    2    0    0 -0.87804660007E+00 -0.32983039656E+02  0.23759621073E+02  0.40659211309E+02  0.00000000000E+00 0. -1.
         11    1    3    3    0    0  0.42804230676E+01  0.10483614513E+01  0.36225570684E+01  0.57047351687E+01  0.51100000000E-03 0. -1.
        -11    1    3    3    0    0 -0.80574233602E+01  0.14744036353E+02 -0.18259921604E+02  0.24813976232E+02  0.51100000000E-03 0.  1.
        -12    1    3    3    0    0  0.46550468927E+01  0.17190641851E+02 -0.91222565370E+01  0.20010077290E+02  0.00000000000E+00 0.  1.
</event>
<event>
 7    1  0.2973028E-011  0.5052886E+02  0.7816164E-02  0.1300439E+00
        -11   -1    0    0    0    0  0.00000000000E+00  0.00000000000E+00  0.45593999997E+02  0.45594000000E+02  0.51100000000E-03 0.  1.
         11   -1    0    0    0    0 -0.00000000000E+00 -0.00000000000E+00 -0.45593999997E+02  0.45594000000E+02  0.51100000000E-03 0. -1.
    9900012    2    1    2    0    0  0.12081088836E+01 -0.40589611292E+02 -0.20468225940E+01  0.50528861363E+02  0.30000004600E+02 0.  0.
         12    1    1    2    0    0 -0.12081088836E+01  0.40589611292E+02  0.20468225940E+01  0.40659138637E+02  0.00000000000E+00 0. -1.
         11    1    3    3    0    0  0.83244933192E+01 -0.26075587838E+02 -0.12301112025E+02  0.30009179053E+02  0.51100000000E-03 0. -1.
        -11    1    3    3    0    0 -0.47917274331E+01 -0.14652145833E+02  0.84980465322E+01  0.17602920906E+02  0.51100000000E-03 0.  1.
         12    1    3    3    0    0 -0.23246570025E+01  0.13812237919E+00  0.17562428983E+01  0.29167614042E+01  0.00000000000E+00 0. -1.
</event>
<event>
 7    1  0.2973028E-011  0.5052879E+02  0.7816164E-02  0.1300439E+00
        -11   -1    0    0    0    0  0.00000000000E+00  0.00000000000E+00  0.45593999997E+02  0.45594000000E+02  0.51100000000E-03 0. -1.
         11   -1    0    0    0    0 -0.00000000000E+00 -0.00000000000E+00 -0.45593999997E+02  0.45594000000E+02  0.51100000000E-03 0.  1.
    9900012    2    1    2    0    0  0.39137790319E+02 -0.93538492827E+01  0.58232651233E+01  0.50528787709E+02  0.29999780720E+02 0.  0.
         12    1    1    2    0    0 -0.39137790319E+02  0.93538492827E+01 -0.58232651233E+01  0.40659212291E+02  0.00000000000E+00 0. -1.
         11    1    3    3    0    0 -0.14560674064E+01 -0.13916202283E+01 -0.26845314027E+01  0.33561061165E+01  0.51100000000E-03 0. -1.
        -11    1    3    3    0    0  0.32277497839E+02  0.19797079258E+01  0.13507364865E+01  0.32366349803E+02  0.51100000000E-03 0.  1.
        -12    1    3    3    0    0  0.83163598857E+01 -0.99419369801E+01  0.71570600395E+01  0.14806331790E+02  0.00000000000E+00 0.  1.
</event>
<event>
 7    1  0.2973028E-011  0.5052886E+02  0.7816164E-02  0.1300439E+00
        -11   -1    0    0    0    0  0.00000000000E+00  0.00000000000E+00  0.45593999997E+02  0.45594000000E+02  0.51100000000E-03 0.  1.
         11   -1    0    0    0    0 -0.00000000000E+00 -0.00000000000E+00 -0.45593999997E+02  0.45594000000E+02  0.51100000000E-03 0. -1.
    9900012    2    1    2    0    0 -0.24496439037E+01  0.15437303501E+02  0.37534713921E+02  0.50528857808E+02  0.29999993793E+02 0.  0.
         12    1    1    2    0    0  0.24496439037E+01 -0.15437303501E+02 -0.37534713921E+02  0.40659142192E+02  0.00000000000E+00 0. -1.
         11    1    3    3    0    0  0.41537671670E+01  0.15850474402E+02  0.13390781981E+02  0.21161388489E+02  0.51100000000E-03 0. -1.
        -11    1    3    3    0    0 -0.70652245684E+01 -0.46157664530E+01  0.23650196818E+02  0.25110844429E+02  0.51100000000E-03 0.  1.
        -12    1    3    3    0    0  0.46181349761E+00  0.42025955519E+01  0.49373512204E+00  0.42566248896E+01  0.00000000000E+00 0.  1.
</event>
<event>
 7    1  0.2973028E-011  0.5052883E+02  0.7816164E-02  0.1300439E+00
        -11   -1    0    0    0    0  0.00000000000E+00  0.00000000000E+00  0.45593999997E+02  0.45594000000E+02  0.51100000000E-03 0. -1.
         11   -1    0    0    0    0 -0.00000000000E+00 -0.00000000000E+00 -0.45593999997E+02  0.45594000000E+02  0.51100000000E-03 0.  1.
    9900012    2    1    2    0    0  0.36354045320E+02  0.13828972580E+02  0.11845305502E+02  0.50528826913E+02  0.29999899884E+02 0.  0.
         12    1    1    2    0    0 -0.36354045320E+02 -0.13828972580E+02 -0.11845305502E+02  0.40659173087E+02  0.00000000000E+00 0. -1.
         11    1    3    3    0    0  0.18599215516E+02 -0.67289307797E+01  0.40644929645E+01  0.20192311175E+02  0.51100000000E-03 0. -1.
        -11    1    3    3    0    0  0.49648322185E+00  0.78850785127E+01  0.17547319421E+01  0.80932096965E+01  0.51100000000E-03 0.  1.
         12    1    3    3    0    0  0.17258346581E+02  0.12672824846E+02  0.60260805956E+01  0.22243306041E+02  0.00000000000E+00 0. -1.
</event>
<event>
 7    1  0.2973028E-011  0.5052887E+02  0.7816164E-02  0.1300439E+00
        -11   -1    0    0    0    0  0.00000000000E+00  0.00000000000E+00  0.45593999997E+02  0.45594000000E+02  0.51100000000E-03 0. -1.
         11   -1    0    0    0    0 -0.00000000000E+00 -0.00000000000E+00 -0.45593999997E+02  0.45594000000E+02  0.51100000000E-03 0.  1.
    9900012    2    1    2    0    0  0.28835972684E+02  0.28606532572E+02  0.18215402081E+01  0.50528867752E+02  0.30000024018E+02 0.  0.
         12    1    1    2    0    0 -0.28835972684E+02 -0.28606532572E+02 -0.18215402081E+01  0.40659132248E+02  0.00000000000E+00 0. -1.
         11    1    3    3    0    0  0.16982874640E+01  0.62629595198E+01  0.85504295289E+01  0.10733996816E+02  0.51100000000E-03 0. -1.
        -11    1    3    3    0    0  0.79831027458E+01  0.14253481043E+02 -0.93726595869E+01  0.18834500240E+02  0.51100000000E-03 0.  1.
        -12    1    3    3    0    0  0.19154582474E+02  0.80900920094E+01  0.26437702662E+01  0.20960370696E+02  0.00000000000E+00 0.  1.
</event>
<event>
 7    1  0.2973028E-011  0.5052884E+02  0.7816164E-02  0.1300439E+00
        -11   -1    0    0    0    0  0.00000000000E+00  0.00000000000E+00  0.45593999997E+02  0.45594000000E+02  0.51100000000E-03 0.  1.
         11   -1    0    0    0    0 -0.00000000000E+00 -0.00000000000E+00 -0.45593999997E+02  0.45594000000E+02  0.51100000000E-03 0. -1.
    9900012    2    1    2    0    0  0.15985631752E+02  0.11172783914E+02  0.35676258346E+02  0.50528844420E+02  0.29999953099E+02 0.  0.
         12    1    1    2    0    0 -0.15985631752E+02 -0.11172783914E+02 -0.35676258346E+02  0.40659155580E+02  0.00000000000E+00 0. -1.
         11    1    3    3    0    0  0.97352480826E+01  0.14894833203E+02  0.11192602037E+02  0.21021547327E+02  0.51100000000E-03 0. -1.
        -11    1    3    3    0    0 -0.23953035855E+01 -0.50404690292E+01  0.30537970751E+01  0.63615630263E+01  0.51100000000E-03 0.  1.
         12    1    3    3    0    0  0.86456872554E+01  0.13184197404E+01  0.21429859234E+02  0.23145734067E+02  0.00000000000E+00 0. -1.
</event>
<event>
 7    1  0.2973028E-011  0.5052889E+02  0.7816164E-02  0.1300439E+00
        -11   -1    0    0    0    0  0.00000000000E+00  0.00000000000E+00  0.45593999997E+02  0.45594000000E+02  0.51100000000E-03 0. -1.
         11   -1    0    0    0    0 -0.00000000000E+00 -0.00000000000E+00 -0.45593999997E+02  0.45594000000E+02  0.51100000000E-03 0.  1.
    9900012    2    1    2    0    0 -0.20111551511E+02  0.30011039933E+02  0.18655450577E+02  0.50528894522E+02  0.30000105389E+02 0.  0.
         12    1    1    2    0    0  0.20111551511E+02 -0.30011039933E+02 -0.18655450577E+02  0.40659105478E+02  0.00000000000E+00 0. -1.
         11    1    3    3    0    0 -0.92736176524E+01  0.22385511302E+02  0.57801094931E+01  0.24910254246E+02  0.51100000000E-03 0. -1.
        -11    1    3    3    0    0 -0.11052802281E+02  0.14671496100E+01 -0.21350106953E+00  0.11151795784E+02  0.51100000000E-03 0.  1.
        -12    1    3    3    0    0  0.21486842287E+00  0.61583790212E+01  0.13088842154E+02  0.14466844491E+02  0.00000000000E+00 0.  1.
</event>
<event>
 7    1  0.2973028E-011  0.5052884E+02  0.7816164E-02  0.1300439E+00
        -11   -1    0    0    0    0  0.00000000000E+00  0.00000000000E+00  0.45593999997E+02  0.45594000000E+02  0.51100000000E-03 0.  1.
         11   -1    0    0    0    0 -0.00000000000E+00 -0.00000000000E+00 -0.45593999997E+02  0.45594000000E+02  0.51100000000E-03 0. -1.
    9900012    2    1    2    0    0 -0.32321987376E+02 -0.52163974645E+01  0.24109038859E+02  0.50528838362E+02  0.29999934685E+02 0.  0.
         12    1    1    2    0    0  0.32321987376E+02  0.52163974645E+01 -0.24109038859E+02  0.40659161638E+02  0.00000000000E+00 0. -1.
         11    1    3    3    0    0 -0.31233716939E+02 -0.80947219066E+01  0.89596679529E+01  0.33486493496E+02  0.51100000000E-03 0. -1.
        -11    1    3    3    0    0  0.13088851266E+01 -0.19887969935E+01  0.46171987609E+01  0.51949031189E+01  0.51100000000E-03 0.  1.
         12    1    3    3    0    0 -0.23971555632E+01  0.48671214356E+01  0.10532172145E+02  0.11847441747E+02  0.00000000000E+00 0. -1.
</event>
<event>
 7    1  0.2973028E-011  0.5052886E+02  0.7816164E-02  0.1300439E+00
        -11   -1    0    0    0    0  0.00000000000E+00  0.00000000000E+00  0.45593999997E+02  0.45594000000E+02  0.51100000000E-03 0.  1.
         11   -1    0    0    0    0 -0.00000000000E+00 -0.00000000000E+00 -0.45593999997E+02  0.45594000000E+02  0.51100000000E-03 0. -1.
    9900012    2    1    2    0    0  0.44966291274E+00  0.40066890352E+02 -0.68998297608E+01  0.50528861421E+02  0.30000004776E+02 0.  0.
         12    1    1    2    0    0 -0.44966291274E+00 -0.40066890352E+02  0.68998297608E+01  0.40659138579E+02  0.00000000000E+00 0. -1.
         11    1    3    3    0    0  0.90687832011E+01  0.29607474995E+02  0.14188783602E+01  0.30997719599E+02  0.51100000000E-03 0. -1.
        -11    1    3    3    0    0 -0.73573351744E+01  0.45817516152E+01  0.69664330629E+00  0.86952941807E+01  0.51100000000E-03 0.  1.
         12    1    3    3    0    0 -0.12617851139E+01  0.58776637425E+01 -0.90153514272E+01  0.10835847641E+02  0.00000000000E+00 0. -1.
</event>
<event>
 7    1  0.2973028E-011  0.5052886E+02  0.7816164E-02  0.1300439E+00
        -11   -1    0    0    0    0  0.00000000000E+00  0.00000000000E+00  0.45593999997E+02  0.45594000000E+02  0.51100000000E-03 0.  1.
         11   -1    0    0    0    0 -0.00000000000E+00 -0.00000000000E+00 -0.45593999997E+02  0.45594000000E+02  0.51100000000E-03 0. -1.
    9900012    2    1    2    0    0  0.84782684392E+01 -0.41553801116E+01  0.39547658749E+02  0.50528861641E+02  0.30000005443E+02 0.  0.
         12    1    1    2    0    0 -0.84782684392E+01  0.41553801116E+01 -0.39547658749E+02  0.40659138359E+02  0.00000000000E+00 0. -1.
         11    1    3    3    0    0  0.58489945283E+01 -0.24773056729E+01  0.16222261330E+01  0.65558674695E+01  0.51100000000E-03 0. -1.
        -11    1    3    3    0    0 -0.42616478037E+01 -0.82699398146E+00  0.36659022653E+02  0.36915166303E+02  0.51100000000E-03 0.  1.
        -12    1    3    3    0    0  0.68909217146E+01 -0.85108045723E+00  0.12664099626E+01  0.70578278680E+01  0.00000000000E+00 0.  1.
</event>
<event>
 7    1  0.2973028E-011  0.5052887E+02  0.7816164E-02  0.1300439E+00
        -11   -1    0    0    0    0  0.00000000000E+00  0.00000000000E+00  0.45593999997E+02  0.45594000000E+02  0.51100000000E-03 0.  1.
         11   -1    0    0    0    0 -0.00000000000E+00 -0.00000000000E+00 -0.45593999997E+02  0.45594000000E+02  0.51100000000E-03 0. -1.
    9900012    2    1    2    0    0 -0.87729608571E+01  0.78371365156E+00  0.39693649162E+02  0.50528870237E+02  0.30000031572E+02 0.  0.
         12    1    1    2    0    0  0.87729608571E+01 -0.78371365156E+00 -0.39693649162E+02  0.40659129763E+02  0.00000000000E+00 0. -1.
         11    1    3    3    0    0 -0.52299012406E+01  0.10699221592E+02  0.13266838920E+02  0.17827905790E+02  0.51100000000E-03 0. -1.
        -11    1    3    3    0    0  0.24601072537E+01 -0.54562488068E+01  0.24154790045E+02  0.24885269963E+02  0.51100000000E-03 0.  1.
         12    1    3    3    0    0 -0.60031668701E+01 -0.44592591338E+01  0.22720201969E+01  0.78156944841E+01  0.00000000000E+00 0. -1.
</event>
<event>
 7    1  0.2973028E-011  0.5052886E+02  0.7816164E-02  0.1300439E+00
        -11   -1    0    0    0    0  0.00000000000E+00  0.00000000000E+00  0.45593999997E+02  0.45594000000E+02  0.51100000000E-03 0.  1.
         11   -1    0    0    0    0 -0.00000000000E+00 -0.00000000000E+00 -0.45593999997E+02  0.45594000000E+02  0.51100000000E-03 0. -1.
    9900012    2    1    2    0    0  0.27506359785E+01 -0.20370640574E+02  0.35080430898E+02  0.50528860466E+02  0.30000001873E+02 0.  0.
         12    1    1    2    0    0 -0.27506359785E+01  0.20370640574E+02 -0.35080430898E+02  0.40659139534E+02  0.00000000000E+00 0. -1.
         11    1    3    3    0    0  0.80608502527E+01 -0.32633287319E+01  0.10727513510E+02  0.13809640385E+02  0.51100000000E-03 0. -1.
        -11    1    3    3    0    0 -0.49815323552E+01 -0.78623491600E+01 -0.13474227678E+01  0.94046662511E+01  0.51100000000E-03 0.  1.
        -12    1    3    3    0    0 -0.32868191902E+00 -0.92449626819E+01  0.25700340156E+02  0.27314553830E+02  0.00000000000E+00 0.  1.
</event>
<event>
 7    1  0.2973028E-011  0.5052886E+02  0.7816164E-02  0.1300439E+00
        -11   -1    0    0    0    0  0.00000000000E+00  0.00000000000E+00  0.45593999997E+02  0.45594000000E+02  0.51100000000E-03 0.  1.
         11   -1    0    0    0    0 -0.00000000000E+00 -0.00000000000E+00 -0.45593999997E+02  0.45594000000E+02  0.51100000000E-03 0. -1.
    9900012    2    1    2    0    0 -0.37715705610E+02  0.10558558867E+02  0.10918231404E+02  0.50528863364E+02  0.30000010681E+02 0.  0.
         12    1    1    2    0    0  0.37715705610E+02 -0.10558558867E+02 -0.10918231404E+02  0.40659136636E+02  0.00000000000E+00 0. -1.
         11    1    3    3    0    0 -0.96778460679E+01  0.16829115681E+02 -0.15616589470E+00  0.19414021406E+02  0.51100000000E-03 0. -1.
        -11    1    3    3    0    0 -0.88597393920E+01 -0.41201261721E+01  0.40708831403E+01  0.10585013537E+02  0.51100000000E-03 0.  1.
         12    1    3    3    0    0 -0.19178120150E+02 -0.21504306421E+01  0.70035141588E+01  0.20529828421E+02  0.00000000000E+00 0. -1.
</event>
<event>
 7    1  0.2973028E-011  0.5052887E+02  0.7816164E-02  0.1300439E+00
        -11   -1    0    0    0    0  0.00000000000E+00  0.00000000000E+00  0.45593999997E+02  0.45594000000E+02  0.51100000000E-03 0.  1.
         11   -1    0    0    0    0 -0.00000000000E+00 -0.00000000000E+00 -0.45593999997E+02  0.45594000000E+02  0.51100000000E-03 0. -1.
    9900012    2    1    2    0    0 -0.82634314966E+01  0.25299955389E+02  0.30737487707E+02  0.50528865807E+02  0.30000018106E+02 0.  0.
         12    1    1    2    0    0  0.82634314966E+01 -0.25299955389E+02 -0.30737487707E+02  0.40659134193E+02  0.00000000000E+00 0. -1.
         11    1    3    3    0    0 -0.94354091113E+01  0.19466115855E+02  0.14687082320E+02  0.26147026579E+02  0.51100000000E-03 0. -1.
        -11    1    3    3    0    0 -0.28119576497E+01  0.27392766712E+01  0.18401985427E+02  0.18816051935E+02  0.51100000000E-03 0.  1.
         12    1    3    3    0    0  0.39839352645E+01  0.30945628631E+01 -0.23515800397E+01  0.55657872927E+01  0.00000000000E+00 0. -1.
</event>
<event>
 7    1  0.2973028E-011  0.5052885E+02  0.7816164E-02  0.1300439E+00
        -11   -1    0    0    0    0  0.00000000000E+00  0.00000000000E+00  0.45593999997E+02  0.45594000000E+02  0.51100000000E-03 0.  1.
         11   -1    0    0    0    0 -0.00000000000E+00 -0.00000000000E+00 -0.45593999997E+02  0.45594000000E+02  0.51100000000E-03 0. -1.
    9900012    2    1    2    0    0  0.18221347391E+02  0.33442363088E+02  0.14239274470E+02  0.50528854816E+02  0.29999984700E+02 0.  0.
         12    1    1    2    0    0 -0.18221347391E+02 -0.33442363088E+02 -0.14239274470E+02  0.40659145184E+02  0.00000000000E+00 0. -1.
         11    1    3    3    0    0  0.14260509921E+01  0.73810621949E+01  0.11432520887E+02  0.13682698369E+02  0.51100000000E-03 0. -1.
        -11    1    3    3    0    0  0.17295789398E+02  0.27942312215E+02 -0.66182160845E+00  0.32868756456E+02  0.51100000000E-03 0.  1.
         12    1    3    3    0    0 -0.50049299937E+00 -0.18810113224E+01  0.34685751914E+01  0.39773999919E+01  0.00000000000E+00 0. -1.
</event>
<event>
 7    1  0.2973028E-011  0.5052888E+02  0.7816164E-02  0.1300439E+00
        -11   -1    0    0    0    0  0.00000000000E+00  0.00000000000E+00  0.45593999997E+02  0.45594000000E+02  0.51100000000E-03 0.  1.
         11   -1    0    0    0    0 -0.00000000000E+00 -0.00000000000E+00 -0.45593999997E+02  0.45594000000E+02  0.51100000000E-03 0. -1.
    9900012    2    1    2    0    0 -0.17697313929E+02 -0.33452367977E+02  0.14862987572E+02  0.50528877492E+02  0.30000053625E+02 0.  0.
         12    1    1    2    0    0  0.17697313929E+02  0.33452367977E+02 -0.14862987572E+02  0.40659122508E+02  0.00000000000E+00 0. -1.
         11    1    3    3    0    0 -0.30342292317E+01  0.47073448509E+01  0.62169968496E+01  0.83675977834E+01  0.51100000000E-03 0. -1.
        -11    1    3    3    0    0 -0.10286659012E+02 -0.31733524511E+02  0.56767523762E+01  0.33838697513E+02  0.51100000000E-03 0.  1.
         12    1    3    3    0    0 -0.43764256855E+01 -0.64261883160E+01  0.29692383466E+01  0.83225821962E+01  0.00000000000E+00 0. -1.
</event>
<event>
 7    1  0.2973028E-011  0.5052887E+02  0.7816164E-02  0.1300439E+00
        -11   -1    0    0    0    0  0.00000000000E+00  0.00000000000E+00  0.45593999997E+02  0.45594000000E+02  0.51100000000E-03 0.  1.
         11   -1    0    0    0    0 -0.00000000000E+00 -0.00000000000E+00 -0.45593999997E+02  0.45594000000E+02  0.51100000000E-03 0. -1.
    9900012    2    1    2    0    0  0.77596170614E+01 -0.36757115810E+02  0.15552093287E+02  0.50528870334E+02  0.30000031868E+02 0.  0.
         12    1    1    2    0    0 -0.77596170614E+01  0.36757115810E+02 -0.15552093287E+02  0.40659129666E+02  0.00000000000E+00 0. -1.
         11    1    3    3    0    0 -0.52385006868E+01 -0.20393254502E+02 -0.40708854478E+01  0.21445251857E+02  0.51100000000E-03 0. -1.
        -11    1    3    3    0    0  0.20568689303E+01 -0.49597558667E+01  0.71992578730E+01  0.89810468341E+01  0.51100000000E-03 0.  1.
         12    1    3    3    0    0  0.10941248818E+02 -0.11404105441E+02  0.12423720862E+02  0.20102571643E+02  0.00000000000E+00 0. -1.
</event>
<event>
 7    1  0.2973028E-011  0.5052886E+02  0.7816164E-02  0.1300439E+00
        -11   -1    0    0    0    0  0.00000000000E+00  0.00000000000E+00  0.45593999997E+02  0.45594000000E+02  0.51100000000E-03 0. -1.
         11   -1    0    0    0    0 -0.00000000000E+00 -0.00000000000E+00 -0.45593999997E+02  0.45594000000E+02  0.51100000000E-03 0.  1.
    9900012    2    1    2    0    0 -0.19907413088E+02 -0.25737168286E+02 -0.24381519236E+02  0.50528863173E+02  0.30000010102E+02 0.  0.
         12    1    1    2    0    0  0.19907413088E+02  0.25737168286E+02  0.24381519236E+02  0.40659136827E+02  0.00000000000E+00 0. -1.
         11    1    3    3    0    0 -0.61616637741E+00 -0.72122127666E+01 -0.11709272214E+02  0.13765999057E+02  0.51100000000E-03 0.  1.
        -11    1    3    3    0    0 -0.16453694253E+02 -0.26573700249E+01 -0.12167356716E+02  0.20635654575E+02  0.51100000000E-03 0. -1.
        -12    1    3    3    0    0 -0.28375524572E+01 -0.15867585495E+02 -0.50489030596E+00  0.16127209542E+02  0.00000000000E+00 0.  1.
</event>
<event>
 7    1  0.2973028E-011  0.5052885E+02  0.7816164E-02  0.1300439E+00
        -11   -1    0    0    0    0  0.00000000000E+00  0.00000000000E+00  0.45593999997E+02  0.45594000000E+02  0.51100000000E-03 0.  1.
         11   -1    0    0    0    0 -0.00000000000E+00 -0.00000000000E+00 -0.45593999997E+02  0.45594000000E+02  0.51100000000E-03 0. -1.
    9900012    2    1    2    0    0  0.27153152012E+02 -0.86560536903E+01  0.28999056404E+02  0.50528853403E+02  0.29999980405E+02 0.  0.
         12    1    1    2    0    0 -0.27153152012E+02  0.86560536903E+01 -0.28999056404E+02  0.40659146597E+02  0.00000000000E+00 0. -1.
         11    1    3    3    0    0  0.15145857265E+02  0.23238483297E+01  0.62066052427E+00  0.15335660504E+02  0.51100000000E-03 0. -1.
        -11    1    3    3    0    0  0.10001393720E+02 -0.46430556023E+00  0.12025238310E+02  0.15647677549E+02  0.51100000000E-03 0.  1.
         12    1    3    3    0    0  0.20059010267E+01 -0.10515596460E+02  0.16353157569E+02  0.19545515350E+02  0.00000000000E+00 0. -1.
</event>
<event>
 7    1  0.2973028E-011  0.5052887E+02  0.7816164E-02  0.1300439E+00
        -11   -1    0    0    0    0  0.00000000000E+00  0.00000000000E+00  0.45593999997E+02  0.45594000000E+02  0.51100000000E-03 0.  1.
         11   -1    0    0    0    0 -0.00000000000E+00 -0.00000000000E+00 -0.45593999997E+02  0.45594000000E+02  0.51100000000E-03 0. -1.
    9900012    2    1    2    0    0  0.21972856298E+01 -0.91242576956E+01  0.39561156285E+02  0.50528865365E+02  0.30000016763E+02 0.  0.
         12    1    1    2    0    0 -0.21972856298E+01  0.91242576956E+01 -0.39561156285E+02  0.40659134635E+02  0.00000000000E+00 0. -1.
         11    1    3    3    0    0  0.17861875006E+01  0.55854613723E+01  0.26442844772E+02  0.27085270618E+02  0.51100000000E-03 0. -1.
        -11    1    3    3    0    0 -0.30408120419E+01 -0.88141042533E+01  0.80067501868E+00  0.93582077563E+01  0.51100000000E-03 0.  1.
        -12    1    3    3    0    0  0.34519101712E+01 -0.58956148146E+01  0.12317636495E+02  0.14085386991E+02  0.00000000000E+00 0.  1.
</event>
<event>
 7    1  0.2973028E-011  0.5052886E+02  0.7816164E-02  0.1300439E+00
        -11   -1    0    0    0    0  0.00000000000E+00  0.00000000000E+00  0.45593999997E+02  0.45594000000E+02  0.51100000000E-03 0. -1.
         11   -1    0    0    0    0 -0.00000000000E+00 -0.00000000000E+00 -0.45593999997E+02  0.45594000000E+02  0.51100000000E-03 0.  1.
    9900012    2    1    2    0    0  0.26662289631E+02  0.13084594357E+02 -0.27768355706E+02  0.50528857406E+02  0.29999992572E+02 0.  0.
         12    1    1    2    0    0 -0.26662289631E+02 -0.13084594357E+02  0.27768355706E+02  0.40659142594E+02  0.00000000000E+00 0. -1.
         11    1    3    3    0    0  0.13084866130E+01  0.79805099651E+01  0.28397152183E+01  0.85711527406E+01  0.51100000000E-03 0. -1.
        -11    1    3    3    0    0  0.18648588973E+02  0.19054439439E+01 -0.28713426291E+02  0.34290836049E+02  0.51100000000E-03 0.  1.
         12    1    3    3    0    0  0.67052140443E+01  0.31986404476E+01 -0.18946446331E+01  0.76668686162E+01  0.00000000000E+00 0. -1.
</event>
<event>
 7    1  0.2973028E-011  0.5052886E+02  0.7816164E-02  0.1300439E+00
        -11   -1    0    0    0    0  0.00000000000E+00  0.00000000000E+00  0.45593999997E+02  0.45594000000E+02  0.51100000000E-03 0.  1.
         11   -1    0    0    0    0 -0.00000000000E+00 -0.00000000000E+00 -0.45593999997E+02  0.45594000000E+02  0.51100000000E-03 0. -1.
    9900012    2    1    2    0    0  0.59392597770E+01  0.17115942966E+02  0.36399666838E+02  0.50528855195E+02  0.29999985852E+02 0.  0.
         12    1    1    2    0    0 -0.59392597770E+01 -0.17115942966E+02 -0.36399666838E+02  0.40659144805E+02  0.00000000000E+00 0. -1.
         11    1    3    3    0    0  0.81930962375E+01 -0.37094347019E+01  0.16855584745E+01  0.91502917657E+01  0.51100000000E-03 0. -1.
        -11    1    3    3    0    0  0.26007232725E+01  0.50048904904E+01  0.12161897913E+02  0.13406134844E+02  0.51100000000E-03 0.  1.
         12    1    3    3    0    0 -0.48545597330E+01  0.15820487178E+02  0.22552210451E+02  0.27972428585E+02  0.00000000000E+00 0. -1.
</event>
<event>
 7    1  0.2973028E-011  0.5052886E+02  0.7816164E-02  0.1300439E+00
        -11   -1    0    0    0    0  0.00000000000E+00  0.00000000000E+00  0.45593999997E+02  0.45594000000E+02  0.51100000000E-03 0.  1.
         11   -1    0    0    0    0 -0.00000000000E+00 -0.00000000000E+00 -0.45593999997E+02  0.45594000000E+02  0.51100000000E-03 0. -1.
    9900012    2    1    2    0    0  0.14034071842E+01  0.36247425120E+02  0.18366277164E+02  0.50528861834E+02  0.30000006030E+02 0.  0.
         12    1    1    2    0    0 -0.14034071842E+01 -0.36247425120E+02 -0.18366277164E+02  0.40659138166E+02  0.00000000000E+00 0. -1.
         11    1    3    3    0    0 -0.25582427103E+01  0.17402569924E+02 -0.54565409027E+01  0.18416511196E+02  0.51100000000E-03 0. -1.
        -11    1    3    3    0    0  0.15674391412E+01  0.17821496530E+02  0.16488921840E+02  0.24329963990E+02  0.51100000000E-03 0.  1.
         12    1    3    3    0    0  0.23942107533E+01  0.10233586658E+01  0.73338962264E+01  0.77823866486E+01  0.00000000000E+00 0. -1.
</event>
<event>
 7    1  0.2973028E-011  0.5052886E+02  0.7816164E-02  0.1300439E+00
        -11   -1    0    0    0    0  0.00000000000E+00  0.00000000000E+00  0.45593999997E+02  0.45594000000E+02  0.51100000000E-03 0.  1.
         11   -1    0    0    0    0 -0.00000000000E+00 -0.00000000000E+00 -0.45593999997E+02  0.45594000000E+02  0.51100000000E-03 0. -1.
    9900012    2    1    2    0    0 -0.52218304185E+01 -0.24243187797E+02  0.32220581367E+02  0.50528861653E+02  0.30000005481E+02 0.  0.
         12    1    1    2    0    0  0.52218304185E+01  0.24243187797E+02 -0.32220581367E+02  0.40659138347E+02  0.00000000000E+00 0. -1.
         11    1    3    3    0    0 -0.58244636608E+01  0.85278511297E+00  0.20601654309E+02  0.21426147109E+02  0.51100000000E-03 0. -1.
        -11    1    3    3    0    0  0.15979895208E+01 -0.16835466786E+02  0.12059807010E+02  0.20770783754E+02  0.51100000000E-03 0.  1.
         12    1    3    3    0    0 -0.99535627852E+00 -0.82605061248E+01 -0.44087995242E+00  0.83319307901E+01  0.00000000000E+00 0. -1.
</event>
<event>
 7    1  0.2973028E-011  0.5052886E+02  0.7816164E-02  0.1300439E+00
        -11   -1    0    0    0    0  0.00000000000E+00  0.00000000000E+00  0.45593999997E+02  0.45594000000E+02  0.51100000000E-03 0. -1.
         11   -1    0    0    0    0 -0.00000000000E+00 -0.00000000000E+00 -0.45593999997E+02  0.45594000000E+02  0.51100000000E-03 0.  1.
    9900012    2    1    2    0    0 -0.19379068344E+02  0.35743610038E+02 -0.10990388440E+00  0.50528855551E+02  0.29999986934E+02 0.  0.
         12    1    1    2    0    0  0.19379068344E+02 -0.35743610038E+02  0.10990388440E+00  0.40659144449E+02  0.00000000000E+00 0. -1.
         11    1    3    3    0    0  0.10560915637E+01  0.32739821366E+01  0.14830546788E+00  0.34432953975E+01  0.51100000000E-03 0. -1.
        -11    1    3    3    0    0 -0.88647433161E+01  0.15815230706E+02 -0.13727432832E+02  0.22740879684E+02  0.51100000000E-03 0.  1.
        -12    1    3    3    0    0 -0.11570416592E+02  0.16654397195E+02  0.13469223480E+02  0.24344680470E+02  0.00000000000E+00 0.  1.
</event>
<event>
 7    1  0.2973028E-011  0.5052886E+02  0.7816164E-02  0.1300439E+00
        -11   -1    0    0    0    0  0.00000000000E+00  0.00000000000E+00  0.45593999997E+02  0.45594000000E+02  0.51100000000E-03 0. -1.
         11   -1    0    0    0    0 -0.00000000000E+00 -0.00000000000E+00 -0.45593999997E+02  0.45594000000E+02  0.51100000000E-03 0.  1.
    9900012    2    1    2    0    0 -0.13436657171E+02 -0.38374697098E+02  0.65935995922E-01  0.50528862271E+02  0.30000007360E+02 0.  0.
         12    1    1    2    0    0  0.13436657171E+02  0.38374697098E+02 -0.65935995922E-01  0.40659137729E+02  0.00000000000E+00 0. -1.
         11    1    3    3    0    0  0.47525348207E+01 -0.15795363505E+02  0.76437915518E+01  0.18179869225E+02  0.51100000000E-03 0. -1.
        -11    1    3    3    0    0 -0.17143698134E+02 -0.15297478727E+02 -0.18976269156E+01  0.23054722495E+02  0.51100000000E-03 0.  1.
        -12    1    3    3    0    0 -0.10454938577E+01 -0.72818548652E+01 -0.56802286402E+01  0.92942705518E+01  0.00000000000E+00 0.  1.
</event>
<event>
 7    1  0.2973028E-011  0.5052886E+02  0.7816164E-02  0.1300439E+00
        -11   -1    0    0    0    0  0.00000000000E+00  0.00000000000E+00  0.45593999997E+02  0.45594000000E+02  0.51100000000E-03 0.  1.
         11   -1    0    0    0    0 -0.00000000000E+00 -0.00000000000E+00 -0.45593999997E+02  0.45594000000E+02  0.51100000000E-03 0. -1.
    9900012    2    1    2    0    0  0.17018666773E+02  0.15586590721E+02  0.33475198663E+02  0.50528858905E+02  0.29999997128E+02 0.  0.
         12    1    1    2    0    0 -0.17018666773E+02 -0.15586590721E+02 -0.33475198663E+02  0.40659141095E+02  0.00000000000E+00 0. -1.
         11    1    3    3    0    0 -0.71560119904E+01  0.43990823832E+01  0.44731091205E+01  0.95167819606E+01  0.51100000000E-03 0. -1.
        -11    1    3    3    0    0  0.22492094898E+02  0.13393598908E+02  0.25509501788E+02  0.36551573241E+02  0.51100000000E-03 0.  1.
         12    1    3    3    0    0  0.16825838652E+01 -0.22060905708E+01  0.34925877543E+01  0.44605037038E+01  0.00000000000E+00 0. -1.
</event>
<event>
 7    1  0.2973028E-011  0.5052886E+02  0.7816164E-02  0.1300439E+00
        -11   -1    0    0    0    0  0.00000000000E+00  0.00000000000E+00  0.45593999997E+02  0.45594000000E+02  0.51100000000E-03 0. -1.
         11   -1    0    0    0    0 -0.00000000000E+00 -0.00000000000E+00 -0.45593999997E+02  0.45594000000E+02  0.51100000000E-03 0.  1.
    9900012    2    1    2    0    0  0.24573530184E+02 -0.17540860720E+01 -0.32345480393E+02  0.50528864427E+02  0.30000013913E+02 0.  0.
         12    1    1    2    0    0 -0.24573530184E+02  0.17540860720E+01  0.32345480393E+02  0.40659135573E+02  0.00000000000E+00 0. -1.
         11    1    3    3    0    0  0.13199350519E+02  0.29867903513E+01 -0.31329803299E+02  0.34127706423E+02  0.51100000000E-03 0. -1.
        -11    1    3    3    0    0  0.72153888070E+01 -0.69534119313E+01 -0.40387480892E+01  0.10803853919E+02  0.51100000000E-03 0.  1.
         12    1    3    3    0    0  0.41587908579E+01  0.22125355080E+01  0.30230709949E+01  0.55973040845E+01  0.00000000000E+00 0. -1.
</event>
<event>
 7    1  0.2973028E-011  0.5052887E+02  0.7816164E-02  0.1300439E+00
        -11   -1    0    0    0    0  0.00000000000E+00  0.00000000000E+00  0.45593999997E+02  0.45594000000E+02  0.51100000000E-03 0.  1.
         11   -1    0    0    0    0 -0.00000000000E+00 -0.00000000000E+00 -0.45593999997E+02  0.45594000000E+02  0.51100000000E-03 0. -1.
    9900012    2    1    2    0    0  0.11915346162E+02  0.15088491196E+02  0.35826347216E+02  0.50528865779E+02  0.30000018022E+02 0.  0.
         12    1    1    2    0    0 -0.11915346162E+02 -0.15088491196E+02 -0.35826347216E+02  0.40659134221E+02  0.00000000000E+00 0. -1.
         11    1    3    3    0    0  0.72049329007E+00 -0.22648150353E+01 -0.85099899169E+00  0.25244201850E+01  0.51100000000E-03 0. -1.
        -11    1    3    3    0    0  0.47300390214E+01  0.21215989123E+02  0.19312368693E+02  0.29076778508E+02  0.51100000000E-03 0.  1.
        -12    1    3    3    0    0  0.64648138505E+01 -0.38626828913E+01  0.17364977515E+02  0.18927667086E+02  0.00000000000E+00 0.  1.
</event>
<event>
 7    1  0.2973028E-011  0.5052886E+02  0.7816164E-02  0.1300439E+00
        -11   -1    0    0    0    0  0.00000000000E+00  0.00000000000E+00  0.45593999997E+02  0.45594000000E+02  0.51100000000E-03 0.  1.
         11   -1    0    0    0    0 -0.00000000000E+00 -0.00000000000E+00 -0.45593999997E+02  0.45594000000E+02  0.51100000000E-03 0. -1.
    9900012    2    1    2    0    0  0.13028604288E+02 -0.24531569218E+02  0.29692140799E+02  0.50528860275E+02  0.30000001291E+02 0.  0.
         12    1    1    2    0    0 -0.13028604288E+02  0.24531569218E+02 -0.29692140799E+02  0.40659139725E+02  0.00000000000E+00 0. -1.
         11    1    3    3    0    0  0.16325036770E+02 -0.13181910523E+02  0.67373175142E+01  0.22037718533E+02  0.51100000000E-03 0.  1.
        -11    1    3    3    0    0 -0.40559898691E+01 -0.10567581553E+02  0.89132788729E+01  0.14407337513E+02  0.51100000000E-03 0. -1.
         12    1    3    3    0    0  0.75955738700E+00 -0.78207714190E+00  0.14041544412E+02  0.14083804229E+02  0.00000000000E+00 0. -1.
</event>
<event>
 7    1  0.2973028E-011  0.5052887E+02  0.7816164E-02  0.1300439E+00
        -11   -1    0    0    0    0  0.00000000000E+00  0.00000000000E+00  0.45593999997E+02  0.45594000000E+02  0.51100000000E-03 0. -1.
         11   -1    0    0    0    0 -0.00000000000E+00 -0.00000000000E+00 -0.45593999997E+02  0.45594000000E+02  0.51100000000E-03 0.  1.
    9900012    2    1    2    0    0 -0.64142366408E+01 -0.33618143753E+02 -0.21950921925E+02  0.50528868253E+02  0.30000025543E+02 0.  0.
         12    1    1    2    0    0  0.64142366408E+01  0.33618143753E+02  0.21950921925E+02  0.40659131747E+02  0.00000000000E+00 0. -1.
         11    1    3    3    0    0 -0.24207431155E+01 -0.12177180721E+00 -0.35133409528E+01  0.42683006590E+01  0.51100000000E-03 0. -1.
        -11    1    3    3    0    0  0.10988249984E+02 -0.13075446638E+02 -0.81388173100E+01  0.18919547826E+02  0.51100000000E-03 0.  1.
        -12    1    3    3    0    0 -0.14981743509E+02 -0.20420925308E+02 -0.10298763662E+02  0.27341019768E+02  0.00000000000E+00 0.  1.
</event>
<event>
 7    1  0.2973028E-011  0.5052887E+02  0.7816164E-02  0.1300439E+00
        -11   -1    0    0    0    0  0.00000000000E+00  0.00000000000E+00  0.45593999997E+02  0.45594000000E+02  0.51100000000E-03 0. -1.
         11   -1    0    0    0    0 -0.00000000000E+00 -0.00000000000E+00 -0.45593999997E+02  0.45594000000E+02  0.51100000000E-03 0.  1.
    9900012    2    1    2    0    0 -0.27789476315E+02  0.29231993304E+02 -0.51381437294E+01  0.50528868831E+02  0.30000027300E+02 0.  0.
         12    1    1    2    0    0  0.27789476315E+02 -0.29231993304E+02  0.51381437294E+01  0.40659131169E+02  0.00000000000E+00 0. -1.
         11    1    3    3    0    0 -0.18635736038E+02  0.51351832822E+01 -0.63034287851E+00  0.19340581620E+02  0.51100000000E-03 0. -1.
        -11    1    3    3    0    0 -0.65217776177E+01  0.22910471759E+02 -0.93179661231E+01  0.25578267972E+02  0.51100000000E-03 0.  1.
        -12    1    3    3    0    0 -0.26319626599E+01  0.11863382629E+01  0.48101652722E+01  0.56100192391E+01  0.00000000000E+00 0.  1.
</event>
<event>
 7    1  0.2973028E-011  0.5052886E+02  0.7816164E-02  0.1300439E+00
        -11   -1    0    0    0    0  0.00000000000E+00  0.00000000000E+00  0.45593999997E+02  0.45594000000E+02  0.51100000000E-03 0.  1.
         11   -1    0    0    0    0 -0.00000000000E+00 -0.00000000000E+00 -0.45593999997E+02  0.45594000000E+02  0.51100000000E-03 0. -1.
    9900012    2    1    2    0    0 -0.27586160195E+02 -0.29736202775E+02  0.28155823947E+01  0.50528862109E+02  0.30000006867E+02 0.  0.
         12    1    1    2    0    0  0.27586160195E+02  0.29736202775E+02 -0.28155823947E+01  0.40659137891E+02  0.00000000000E+00 0. -1.
         11    1    3    3    0    0 -0.78844699609E+01 -0.15479803103E+02 -0.43750730672E+01  0.17914531400E+02  0.51100000000E-03 0. -1.
        -11    1    3    3    0    0 -0.20159718539E+02 -0.28593287512E+01  0.54289396151E+01  0.21072811822E+02  0.51100000000E-03 0.  1.
        -12    1    3    3    0    0  0.45802830475E+00 -0.11397070921E+02  0.17617158468E+01  0.11541518887E+02  0.00000000000E+00 0.  1.
</event>
<event>
 7    1  0.2973028E-011  0.5052881E+02  0.7816164E-02  0.1300439E+00
        -11   -1    0    0    0    0  0.00000000000E+00  0.00000000000E+00  0.45593999997E+02  0.45594000000E+02  0.51100000000E-03 0. -1.
         11   -1    0    0    0    0 -0.00000000000E+00 -0.00000000000E+00 -0.45593999997E+02  0.45594000000E+02  0.51100000000E-03 0.  1.
    9900012    2    1    2    0    0  0.20294857287E+02 -0.13012464515E+02 -0.32740862431E+02  0.50528812381E+02  0.29999855714E+02 0.  0.
         12    1    1    2    0    0 -0.20294857287E+02  0.13012464515E+02  0.32740862431E+02  0.40659187619E+02  0.00000000000E+00 0. -1.
         11    1    3    3    0    0  0.23818454246E+02 -0.90889895806E+01 -0.26409186613E+02  0.36706588401E+02  0.51100000000E-03 0. -1.
        -11    1    3    3    0    0 -0.25676382565E+01 -0.20209257386E+01 -0.94767145654E+01  0.10024221978E+02  0.51100000000E-03 0.  1.
         12    1    3    3    0    0 -0.95595870203E+00 -0.19025491962E+01  0.31450387470E+01  0.37980020016E+01  0.00000000000E+00 0. -1.
</event>
<event>
 7    1  0.2973028E-011  0.5052885E+02  0.7816164E-02  0.1300439E+00
        -11   -1    0    0    0    0  0.00000000000E+00  0.00000000000E+00  0.45593999997E+02  0.45594000000E+02  0.51100000000E-03 0. -1.
         11   -1    0    0    0    0 -0.00000000000E+00 -0.00000000000E+00 -0.45593999997E+02  0.45594000000E+02  0.51100000000E-03 0.  1.
    9900012    2    1    2    0    0 -0.28040064457E+02  0.11409081079E+02 -0.27143207932E+02  0.50528854871E+02  0.29999984865E+02 0.  0.
         12    1    1    2    0    0  0.28040064457E+02 -0.11409081079E+02  0.27143207932E+02  0.40659145129E+02  0.00000000000E+00 0. -1.
         11    1    3    3    0    0 -0.17682213027E+02  0.70667814919E+01  0.69207697838E+00  0.19054632744E+02  0.51100000000E-03 0. -1.
        -11    1    3    3    0    0 -0.10775149018E+02  0.63690067701E+01 -0.25064886841E+02  0.28016363723E+02  0.51100000000E-03 0.  1.
         12    1    3    3    0    0  0.41729758849E+00 -0.20267071833E+01 -0.27703980687E+01  0.34578584042E+01  0.00000000000E+00 0. -1.
</event>
<event>
 7    1  0.2973028E-011  0.5052886E+02  0.7816164E-02  0.1300439E+00
        -11   -1    0    0    0    0  0.00000000000E+00  0.00000000000E+00  0.45593999997E+02  0.45594000000E+02  0.51100000000E-03 0. -1.
         11   -1    0    0    0    0 -0.00000000000E+00 -0.00000000000E+00 -0.45593999997E+02  0.45594000000E+02  0.51100000000E-03 0.  1.
    9900012    2    1    2    0    0 -0.21992961100E+02  0.11608337457E+02 -0.32167088645E+02  0.50528862917E+02  0.30000009321E+02 0.  0.
         12    1    1    2    0    0  0.21992961100E+02 -0.11608337457E+02  0.32167088645E+02  0.40659137083E+02  0.00000000000E+00 0. -1.
         11    1    3    3    0    0 -0.75283917022E+01 -0.72013317861E+01 -0.65121447288E+01  0.12285922446E+02  0.51100000000E-03 0. -1.
        -11    1    3    3    0    0 -0.16279835791E+02  0.18842912310E+02 -0.26390297131E+02  0.36284103691E+02  0.51100000000E-03 0.  1.
         12    1    3    3    0    0  0.18152663934E+01 -0.33243067432E-01  0.73535321441E+00  0.19588367799E+01  0.00000000000E+00 0. -1.
</event>
<event>
 7    1  0.2973028E-011  0.5052879E+02  0.7816164E-02  0.1300439E+00
        -11   -1    0    0    0    0  0.00000000000E+00  0.00000000000E+00  0.45593999997E+02  0.45594000000E+02  0.51100000000E-03 0.  1.
         11   -1    0    0    0    0 -0.00000000000E+00 -0.00000000000E+00 -0.45593999997E+02  0.45594000000E+02  0.51100000000E-03 0. -1.
    9900012    2    1    2    0    0  0.15104347312E+02 -0.28987604886E+02  0.24181585044E+02  0.50528787022E+02  0.29999778630E+02 0.  0.
         12    1    1    2    0    0 -0.15104347312E+02  0.28987604886E+02 -0.24181585044E+02  0.40659212978E+02  0.00000000000E+00 0. -1.
         11    1    3    3    0    0  0.97286483925E+00 -0.28331925106E+02  0.22045870251E+02  0.35911903898E+02  0.51100000000E-03 0. -1.
        -11    1    3    3    0    0  0.53725061039E+01  0.69940749262E+00  0.19299344266E+01  0.57513163563E+01  0.51100000000E-03 0.  1.
         12    1    3    3    0    0  0.87589763687E+01 -0.13550872734E+01  0.20578036595E+00  0.88655667673E+01  0.00000000000E+00 0. -1.
</event>
<event>
 7    1  0.2973028E-011  0.5052886E+02  0.7816164E-02  0.1300439E+00
        -11   -1    0    0    0    0  0.00000000000E+00  0.00000000000E+00  0.45593999997E+02  0.45594000000E+02  0.51100000000E-03 0.  1.
         11   -1    0    0    0    0 -0.00000000000E+00 -0.00000000000E+00 -0.45593999997E+02  0.45594000000E+02  0.51100000000E-03 0. -1.
    9900012    2    1    2    0    0 -0.13399957573E+02  0.24588516707E+02  0.29479002133E+02  0.50528861008E+02  0.30000003519E+02 0.  0.
         12    1    1    2    0    0  0.13399957573E+02 -0.24588516707E+02 -0.29479002133E+02  0.40659138992E+02  0.00000000000E+00 0. -1.
         11    1    3    3    0    0  0.21938072888E+01 -0.27024482130E+01  0.14924246647E+02  0.15324788906E+02  0.51100000000E-03 0. -1.
        -11    1    3    3    0    0 -0.39467786502E+01  0.41462346748E+01  0.54840407280E+00  0.57505713612E+01  0.51100000000E-03 0.  1.
         12    1    3    3    0    0 -0.11646986212E+02  0.23144730246E+02  0.14006351413E+02  0.29453500740E+02  0.00000000000E+00 0. -1.
</event>
<event>
 7    1  0.2973028E-011  0.5052886E+02  0.7816164E-02  0.1300439E+00
        -11   -1    0    0    0    0  0.00000000000E+00  0.00000000000E+00  0.45593999997E+02  0.45594000000E+02  0.51100000000E-03 0. -1.
         11   -1    0    0    0    0 -0.00000000000E+00 -0.00000000000E+00 -0.45593999997E+02  0.45594000000E+02  0.51100000000E-03 0.  1.
    9900012    2    1    2    0    0 -0.11377235831E+01 -0.31807634129E+02 -0.25301104788E+02  0.50528857027E+02  0.29999991418E+02 0.  0.
         12    1    1    2    0    0  0.11377235831E+01  0.31807634129E+02  0.25301104788E+02  0.40659142973E+02  0.00000000000E+00 0. -1.
         11    1    3    3    0    0  0.28581569517E+01  0.46087021947E+01 -0.59630677661E+01  0.80602341483E+01  0.51100000000E-03 0. -1.
        -11    1    3    3    0    0 -0.33170530350E+01 -0.35973202075E+02 -0.20112778422E+02  0.41347284850E+02  0.51100000000E-03 0.  1.
        -12    1    3    3    0    0 -0.67882749980E+00 -0.44313424864E+00  0.77474139989E+00  0.11213380282E+01  0.00000000000E+00 0.  1.
</event>
<event>
 7    1  0.2973028E-011  0.5052886E+02  0.7816164E-02  0.1300439E+00
        -11   -1    0    0    0    0  0.00000000000E+00  0.00000000000E+00  0.45593999997E+02  0.45594000000E+02  0.51100000000E-03 0. -1.
         11   -1    0    0    0    0 -0.00000000000E+00 -0.00000000000E+00 -0.45593999997E+02  0.45594000000E+02  0.51100000000E-03 0.  1.
    9900012    2    1    2    0    0 -0.38139225321E+02  0.65997968185E+01 -0.12450220271E+02  0.50528858212E+02  0.29999995020E+02 0.  0.
         12    1    1    2    0    0  0.38139225321E+02 -0.65997968185E+01  0.12450220271E+02  0.40659141788E+02  0.00000000000E+00 0. -1.
         11    1    3    3    0    0 -0.76386370078E+01 -0.92681578743E+01 -0.24403541849E+01  0.12255727417E+02  0.51100000000E-03 0. -1.
        -11    1    3    3    0    0 -0.18067878186E+02  0.13720326750E+02 -0.88822184945E+00  0.22704284322E+02  0.51100000000E-03 0.  1.
        -12    1    3    3    0    0 -0.12432710128E+02  0.21476279430E+01 -0.91216442365E+01  0.15568846472E+02  0.00000000000E+00 0.  1.
</event>
<event>
 7    1  0.2973028E-011  0.5052886E+02  0.7816164E-02  0.1300439E+00
        -11   -1    0    0    0    0  0.00000000000E+00  0.00000000000E+00  0.45593999997E+02  0.45594000000E+02  0.51100000000E-03 0.  1.
         11   -1    0    0    0    0 -0.00000000000E+00 -0.00000000000E+00 -0.45593999997E+02  0.45594000000E+02  0.51100000000E-03 0. -1.
    9900012    2    1    2    0    0 -0.29553539262E+01 -0.22162854095E+01  0.40490980791E+02  0.50528861258E+02  0.30000004280E+02 0.  0.
         12    1    1    2    0    0  0.29553539262E+01  0.22162854095E+01 -0.40490980791E+02  0.40659138742E+02  0.00000000000E+00 0. -1.
         11    1    3    3    0    0 -0.15393253480E+02 -0.26921867354E+01  0.14237123759E+02  0.21139910485E+02  0.51100000000E-03 0. -1.
        -11    1    3    3    0    0  0.68654531747E+01  0.23607926959E+01  0.15939112743E+02  0.17514654000E+02  0.51100000000E-03 0.  1.
        -12    1    3    3    0    0  0.55724463787E+01 -0.18848913700E+01  0.10314744289E+02  0.11874296773E+02  0.00000000000E+00 0.  1.
</event>
<event>
 7    1  0.2973028E-011  0.5052886E+02  0.7816164E-02  0.1300439E+00
        -11   -1    0    0    0    0  0.00000000000E+00  0.00000000000E+00  0.45593999997E+02  0.45594000000E+02  0.51100000000E-03 0.  1.
         11   -1    0    0    0    0 -0.00000000000E+00 -0.00000000000E+00 -0.45593999997E+02  0.45594000000E+02  0.51100000000E-03 0. -1.
    9900012    2    1    2    0    0  0.20726694923E+02 -0.27971612993E+02  0.21003782396E+02  0.50528857230E+02  0.29999992036E+02 0.  0.
         12    1    1    2    0    0 -0.20726694923E+02  0.27971612993E+02 -0.21003782396E+02  0.40659142770E+02  0.00000000000E+00 0. -1.
         11    1    3    3    0    0  0.62976685639E+01  0.45218958322E+01  0.92224487001E+01  0.12048308244E+02  0.51100000000E-03 0. -1.
        -11    1    3    3    0    0  0.89390615725E+01 -0.19128589218E+02  0.23922248048E+01  0.21249293801E+02  0.51100000000E-03 0.  1.
         12    1    3    3    0    0  0.54899647870E+01 -0.13364919607E+02  0.93891088910E+01  0.17231255185E+02  0.00000000000E+00 0. -1.
</event>
<event>
 7    1  0.2973028E-011  0.5052886E+02  0.7816164E-02  0.1300439E+00
        -11   -1    0    0    0    0  0.00000000000E+00  0.00000000000E+00  0.45593999997E+02  0.45594000000E+02  0.51100000000E-03 0. -1.
         11   -1    0    0    0    0 -0.00000000000E+00 -0.00000000000E+00 -0.45593999997E+02  0.45594000000E+02  0.51100000000E-03 0.  1.
    9900012    2    1    2    0    0 -0.31528593089E+02  0.20395163190E+02 -0.15593287439E+02  0.50528862320E+02  0.30000007509E+02 0.  0.
         12    1    1    2    0    0  0.31528593089E+02 -0.20395163190E+02  0.15593287439E+02  0.40659137680E+02  0.00000000000E+00 0. -1.
         11    1    3    3    0    0 -0.22283013432E+02  0.13957237928E+02 -0.14960484941E+02  0.30251500593E+02  0.51100000000E-03 0.  1.
        -11    1    3    3    0    0 -0.86520338958E+01 -0.41917381801E+01 -0.28617778334E-01  0.96140095040E+01  0.51100000000E-03 0. -1.
        -12    1    3    3    0    0 -0.59354576079E+00  0.10629663442E+02 -0.60418471945E+00  0.10663352223E+02  0.00000000000E+00 0.  1.
</event>
<event>
 7    1  0.2973028E-011  0.5052885E+02  0.7816164E-02  0.1300439E+00
        -11   -1    0    0    0    0  0.00000000000E+00  0.00000000000E+00  0.45593999997E+02  0.45594000000E+02  0.51100000000E-03 0.  1.
         11   -1    0    0    0    0 -0.00000000000E+00 -0.00000000000E+00 -0.45593999997E+02  0.45594000000E+02  0.51100000000E-03 0. -1.
    9900012    2    1    2    0    0 -0.18057451143E+02 -0.34665464500E+01  0.36264004069E+02  0.50528850019E+02  0.29999970117E+02 0.  0.
         12    1    1    2    0    0  0.18057451143E+02  0.34665464500E+01 -0.36264004069E+02  0.40659149981E+02  0.00000000000E+00 0. -1.
         11    1    3    3    0    0 -0.14568039203E+02  0.79830131048E+00  0.30525118719E+01  0.14905800220E+02  0.51100000000E-03 0. -1.
        -11    1    3    3    0    0 -0.41049543163E+00  0.27860574377E+01  0.21013270349E+02  0.21201135667E+02  0.51100000000E-03 0.  1.
         12    1    3    3    0    0 -0.30789165085E+01 -0.70509051982E+01  0.12198221849E+02  0.14421914133E+02  0.00000000000E+00 0. -1.
</event>
<event>
 7    1  0.2973028E-011  0.5052887E+02  0.7816164E-02  0.1300439E+00
        -11   -1    0    0    0    0  0.00000000000E+00  0.00000000000E+00  0.45593999997E+02  0.45594000000E+02  0.51100000000E-03 0.  1.
         11   -1    0    0    0    0 -0.00000000000E+00 -0.00000000000E+00 -0.45593999997E+02  0.45594000000E+02  0.51100000000E-03 0. -1.
    9900012    2    1    2    0    0  0.20024205691E+02 -0.34419111449E+02  0.82171011628E+01  0.50528870669E+02  0.30000032885E+02 0.  0.
         12    1    1    2    0    0 -0.20024205691E+02  0.34419111449E+02 -0.82171011628E+01  0.40659129331E+02  0.00000000000E+00 0. -1.
         11    1    3    3    0    0  0.58899436510E+01 -0.12062828072E+02 -0.10425388758E+02  0.16996822889E+02  0.51100000000E-03 0. -1.
        -11    1    3    3    0    0  0.10060707893E+02 -0.94048535686E+01  0.12618332770E+02  0.18678635821E+02  0.51100000000E-03 0.  1.
         12    1    3    3    0    0  0.40735541464E+01 -0.12951429808E+02  0.60241571503E+01  0.14853411959E+02  0.00000000000E+00 0. -1.
</event>
<event>
 7    1  0.2973028E-011  0.5052886E+02  0.7816164E-02  0.1300439E+00
        -11   -1    0    0    0    0  0.00000000000E+00  0.00000000000E+00  0.45593999997E+02  0.45594000000E+02  0.51100000000E-03 0.  1.
         11   -1    0    0    0    0 -0.00000000000E+00 -0.00000000000E+00 -0.45593999997E+02  0.45594000000E+02  0.51100000000E-03 0. -1.
    9900012    2    1    2    0    0  0.47591095471E+01  0.40328137994E+02  0.20390877802E+01  0.50528859370E+02  0.29999998543E+02 0.  0.
         12    1    1    2    0    0 -0.47591095471E+01 -0.40328137994E+02 -0.20390877802E+01  0.40659140630E+02  0.00000000000E+00 0. -1.
         11    1    3    3    0    0 -0.95456643019E+01  0.43794091340E+01 -0.39865757477E+01  0.11233508703E+02  0.51100000000E-03 0. -1.
        -11    1    3    3    0    0  0.49233561212E+01  0.95206245779E+01  0.62696797106E+00  0.10736611055E+02  0.51100000000E-03 0.  1.
         12    1    3    3    0    0  0.93814177278E+01  0.26428104282E+02  0.53986955568E+01  0.28558739612E+02  0.00000000000E+00 0. -1.
</event>
<event>
 7    1  0.2973028E-011  0.5052886E+02  0.7816164E-02  0.1300439E+00
        -11   -1    0    0    0    0  0.00000000000E+00  0.00000000000E+00  0.45593999997E+02  0.45594000000E+02  0.51100000000E-03 0.  1.
         11   -1    0    0    0    0 -0.00000000000E+00 -0.00000000000E+00 -0.45593999997E+02  0.45594000000E+02  0.51100000000E-03 0. -1.
    9900012    2    1    2    0    0  0.32947291478E+01 -0.22297430234E+02  0.33839843347E+02  0.50528860401E+02  0.30000001675E+02 0.  0.
         12    1    1    2    0    0 -0.32947291478E+01  0.22297430234E+02 -0.33839843347E+02  0.40659139599E+02  0.00000000000E+00 0. -1.
         11    1    3    3    0    0  0.43708623163E+01 -0.11543711864E+02  0.77718160838E+00  0.12367931618E+02  0.51100000000E-03 0. -1.
        -11    1    3    3    0    0  0.71410459569E+01 -0.69889183387E+01  0.18334801569E+02  0.20880719952E+02  0.51100000000E-03 0.  1.
         12    1    3    3    0    0 -0.82171791253E+01 -0.37648000307E+01  0.14727860170E+02  0.17280208831E+02  0.00000000000E+00 0. -1.
</event>
<event>
 7    1  0.2973028E-011  0.5052886E+02  0.7816164E-02  0.1300439E+00
        -11   -1    0    0    0    0  0.00000000000E+00  0.00000000000E+00  0.45593999997E+02  0.45594000000E+02  0.51100000000E-03 0. -1.
         11   -1    0    0    0    0 -0.00000000000E+00 -0.00000000000E+00 -0.45593999997E+02  0.45594000000E+02  0.51100000000E-03 0.  1.
    9900012    2    1    2    0    0 -0.39551831802E+02 -0.21994966044E+01 -0.91640764153E+01  0.50528862272E+02  0.30000007363E+02 0.  0.
         12    1    1    2    0    0  0.39551831802E+02  0.21994966044E+01  0.91640764153E+01  0.40659137728E+02  0.00000000000E+00 0. -1.
         11    1    3    3    0    0 -0.54018043645E+01  0.23542800766E+01  0.36924266271E+01  0.69538579026E+01  0.51100000000E-03 0. -1.
        -11    1    3    3    0    0 -0.17988546983E+02 -0.20100012158E+01 -0.18866847766E+02  0.26145475179E+02  0.51100000000E-03 0.  1.
        -12    1    3    3    0    0 -0.16161480454E+02 -0.25437754652E+01  0.60103447240E+01  0.17429529190E+02  0.00000000000E+00 0.  1.
</event>
<event>
 7    1  0.2973028E-011  0.5052886E+02  0.7816164E-02  0.1300439E+00
        -11   -1    0    0    0    0  0.00000000000E+00  0.00000000000E+00  0.45593999997E+02  0.45594000000E+02  0.51100000000E-03 0. -1.
         11   -1    0    0    0    0 -0.00000000000E+00 -0.00000000000E+00 -0.45593999997E+02  0.45594000000E+02  0.51100000000E-03 0.  1.
    9900012    2    1    2    0    0  0.10319377422E+02  0.36009669132E+02 -0.15810762553E+02  0.50528855471E+02  0.29999986688E+02 0.  0.
         12    1    1    2    0    0 -0.10319377422E+02 -0.36009669132E+02  0.15810762553E+02  0.40659144529E+02  0.00000000000E+00 0. -1.
         11    1    3    3    0    0 -0.51984650683E+01  0.14265029760E+02  0.39569104193E+01  0.15689877420E+02  0.51100000000E-03 0.  1.
        -11    1    3    3    0    0  0.13740121135E+02  0.17232876422E+02 -0.10575199466E+02  0.24445813600E+02  0.51100000000E-03 0. -1.
         12    1    3    3    0    0  0.17777213559E+01  0.45117629499E+01 -0.91924735064E+01  0.10393164451E+02  0.00000000000E+00 0. -1.
</event>
<event>
 7    1  0.2973028E-011  0.5052886E+02  0.7816164E-02  0.1300439E+00
        -11   -1    0    0    0    0  0.00000000000E+00  0.00000000000E+00  0.45593999997E+02  0.45594000000E+02  0.51100000000E-03 0.  1.
         11   -1    0    0    0    0 -0.00000000000E+00 -0.00000000000E+00 -0.45593999997E+02  0.45594000000E+02  0.51100000000E-03 0. -1.
    9900012    2    1    2    0    0  0.29071287042E+02 -0.19199356099E+02  0.20962126305E+02  0.50528859034E+02  0.29999997519E+02 0.  0.
         12    1    1    2    0    0 -0.29071287042E+02  0.19199356099E+02 -0.20962126305E+02  0.40659140966E+02  0.00000000000E+00 0. -1.
         11    1    3    3    0    0 -0.17683714350E+01  0.27565080663E+01  0.86982598916E+01  0.92943638649E+01  0.51100000000E-03 0. -1.
        -11    1    3    3    0    0  0.11681285037E+02 -0.13023151721E+02  0.95248240159E+01  0.19919266394E+02  0.51100000000E-03 0.  1.
         12    1    3    3    0    0  0.19158373440E+02 -0.89327124436E+01  0.27390423974E+01  0.21315228775E+02  0.00000000000E+00 0. -1.
</event>
<event>
 7    1  0.3244314E-011  0.5052886E+02  0.7816164E-02  0.1300439E+00
        -11   -1    0    0    0    0  0.00000000000E+00  0.00000000000E+00  0.45593999997E+02  0.45594000000E+02  0.51100000000E-03 0. -1.
         11   -1    0    0    0    0 -0.00000000000E+00 -0.00000000000E+00 -0.45593999997E+02  0.45594000000E+02  0.51100000000E-03 0.  1.
    9900012    2    1    2    0    0 -0.13343576514E+02  0.11452937953E+02 -0.36659849734E+02  0.50528863211E+02  0.30000010216E+02 0.  0.
         12    1    1    2    0    0  0.13343576514E+02 -0.11452937953E+02  0.36659849734E+02  0.40659136789E+02  0.00000000000E+00 0. -1.
         11    1    3    3    0    0  0.15385386017E+00 -0.10476774983E+01  0.21078429381E+01  0.23588771192E+01  0.51100000000E-03 0. -1.
        -11    1    3    3    0    0 -0.19513142302E+02  0.83906677290E+01 -0.27416597851E+02  0.34681924188E+02  0.51100000000E-03 0.  1.
        -12    1    3    3    0    0  0.60157119277E+01  0.41099477222E+01 -0.11351094821E+02  0.13488061904E+02  0.00000000000E+00 0.  1.
</event>
<event>
 7    1  0.2973028E-011  0.5052887E+02  0.7816164E-02  0.1300439E+00
        -11   -1    0    0    0    0  0.00000000000E+00  0.00000000000E+00  0.45593999997E+02  0.45594000000E+02  0.51100000000E-03 0.  1.
         11   -1    0    0    0    0 -0.00000000000E+00 -0.00000000000E+00 -0.45593999997E+02  0.45594000000E+02  0.51100000000E-03 0. -1.
    9900012    2    1    2    0    0 -0.40324786708E+01  0.37401186655E+02  0.15429050380E+02  0.50528865195E+02  0.30000016247E+02 0.  0.
         12    1    1    2    0    0  0.40324786708E+01 -0.37401186655E+02 -0.15429050380E+02  0.40659134805E+02  0.00000000000E+00 0. -1.
         11    1    3    3    0    0  0.76963722293E+01  0.73348843872E+01  0.87172900132E+01  0.13748666113E+02  0.51100000000E-03 0. -1.
        -11    1    3    3    0    0 -0.15612878620E+02  0.20105342760E+02  0.42320004973E+01  0.25804972675E+02  0.51100000000E-03 0.  1.
        -12    1    3    3    0    0  0.38840277204E+01  0.99609595084E+01  0.24797598691E+01  0.10975226406E+02  0.00000000000E+00 0.  1.
</event>
<event>
 7    1  0.2973028E-011  0.5052880E+02  0.7816164E-02  0.1300439E+00
        -11   -1    0    0    0    0  0.00000000000E+00  0.00000000000E+00  0.45593999997E+02  0.45594000000E+02  0.51100000000E-03 0.  1.
         11   -1    0    0    0    0 -0.00000000000E+00 -0.00000000000E+00 -0.45593999997E+02  0.45594000000E+02  0.51100000000E-03 0. -1.
    9900012    2    1    2    0    0 -0.20616380859E+02 -0.23602762396E+02  0.25904538778E+02  0.50528798314E+02  0.29999812953E+02 0.  0.
         12    1    1    2    0    0  0.20616380859E+02  0.23602762396E+02 -0.25904538778E+02  0.40659201686E+02  0.00000000000E+00 0. -1.
         11    1    3    3    0    0 -0.14259176780E+02 -0.10052548328E+02  0.20291845757E+01  0.17564038278E+02  0.51100000000E-03 0. -1.
        -11    1    3    3    0    0  0.42938165345E+01 -0.89876786717E+01  0.58954032060E+01  0.11574584552E+02  0.51100000000E-03 0.  1.
        -12    1    3    3    0    0 -0.10651020614E+02 -0.45625353963E+01  0.17979950997E+02  0.21390175483E+02  0.00000000000E+00 0.  1.
</event>
<event>
 7    1  0.2973028E-011  0.5052887E+02  0.7816164E-02  0.1300439E+00
        -11   -1    0    0    0    0  0.00000000000E+00  0.00000000000E+00  0.45593999997E+02  0.45594000000E+02  0.51100000000E-03 0. -1.
         11   -1    0    0    0    0 -0.00000000000E+00 -0.00000000000E+00 -0.45593999997E+02  0.45594000000E+02  0.51100000000E-03 0.  1.
    9900012    2    1    2    0    0  0.14548767200E+02 -0.37942651799E+02 -0.13615037833E+01  0.50528866400E+02  0.30000019910E+02 0.  0.
         12    1    1    2    0    0 -0.14548767200E+02  0.37942651799E+02  0.13615037833E+01  0.40659133600E+02  0.00000000000E+00 0. -1.
         11    1    3    3    0    0  0.43236376781E+01 -0.36772098837E+02  0.74162375330E+00  0.37032838154E+02  0.51100000000E-03 0. -1.
        -11    1    3    3    0    0  0.78355436104E+01 -0.29290340710E+01 -0.46634042264E+01  0.95771772198E+01  0.51100000000E-03 0.  1.
         12    1    3    3    0    0  0.23895859111E+01  0.17584811097E+01  0.25602766897E+01  0.39188510265E+01  0.00000000000E+00 0. -1.
</event>
<event>
 7    1  0.2973028E-011  0.5052886E+02  0.7816164E-02  0.1300439E+00
        -11   -1    0    0    0    0  0.00000000000E+00  0.00000000000E+00  0.45593999997E+02  0.45594000000E+02  0.51100000000E-03 0.  1.
         11   -1    0    0    0    0 -0.00000000000E+00 -0.00000000000E+00 -0.45593999997E+02  0.45594000000E+02  0.51100000000E-03 0. -1.
    9900012    2    1    2    0    0 -0.22530498018E+02  0.15137831967E+02  0.30271911168E+02  0.50528857075E+02  0.29999991566E+02 0.  0.
         12    1    1    2    0    0  0.22530498018E+02 -0.15137831967E+02 -0.30271911168E+02  0.40659142925E+02  0.00000000000E+00 0. -1.
         11    1    3    3    0    0 -0.21111142149E+02  0.33026352183E+01  0.13179829556E+02  0.25105689188E+02  0.51100000000E-03 0. -1.
        -11    1    3    3    0    0 -0.48069292713E+01  0.10865465190E+02  0.18195229376E+02  0.21730882980E+02  0.51100000000E-03 0.  1.
         12    1    3    3    0    0  0.33875734015E+01  0.96973155868E+00 -0.11031477638E+01  0.36922849071E+01  0.00000000000E+00 0. -1.
</event>
<event>
 7    1  0.2973028E-011  0.5052886E+02  0.7816164E-02  0.1300439E+00
        -11   -1    0    0    0    0  0.00000000000E+00  0.00000000000E+00  0.45593999997E+02  0.45594000000E+02  0.51100000000E-03 0.  1.
         11   -1    0    0    0    0 -0.00000000000E+00 -0.00000000000E+00 -0.45593999997E+02  0.45594000000E+02  0.51100000000E-03 0. -1.
    9900012    2    1    2    0    0 -0.34532667926E+02 -0.16867691357E+02  0.13271827516E+02  0.50528861158E+02  0.30000003975E+02 0.  0.
         12    1    1    2    0    0  0.34532667926E+02  0.16867691357E+02 -0.13271827516E+02  0.40659138842E+02  0.00000000000E+00 0. -1.
         11    1    3    3    0    0  0.17684892136E+01 -0.72112101683E+01 -0.37387570763E+01  0.83130867268E+01  0.51100000000E-03 0. -1.
        -11    1    3    3    0    0 -0.23538746242E+02 -0.10643078768E+02  0.11635937096E+02  0.28332714883E+02  0.51100000000E-03 0.  1.
         12    1    3    3    0    0 -0.12762410897E+02  0.98659757854E+00  0.53746474965E+01  0.13883059548E+02  0.00000000000E+00 0. -1.
</event>
<event>
 7    1  0.2973028E-011  0.5052885E+02  0.7816164E-02  0.1300439E+00
        -11   -1    0    0    0    0  0.00000000000E+00  0.00000000000E+00  0.45593999997E+02  0.45594000000E+02  0.51100000000E-03 0.  1.
         11   -1    0    0    0    0 -0.00000000000E+00 -0.00000000000E+00 -0.45593999997E+02  0.45594000000E+02  0.51100000000E-03 0. -1.
    9900012    2    1    2    0    0  0.26899960772E+02 -0.18528201577E+01  0.30432308093E+02  0.50528853330E+02  0.29999980182E+02 0.  0.
         12    1    1    2    0    0 -0.26899960772E+02  0.18528201577E+01 -0.30432308093E+02  0.40659146670E+02  0.00000000000E+00 0. -1.
         11    1    3    3    0    0  0.20177901845E+02  0.10843982811E+02  0.19046739960E+02  0.29791240146E+02  0.51100000000E-03 0. -1.
        -11    1    3    3    0    0  0.75356112150E+01 -0.12877538414E+02  0.12417196599E+02  0.19411419413E+02  0.51100000000E-03 0.  1.
         12    1    3    3    0    0 -0.81355228749E+00  0.18073544493E+00 -0.10316284666E+01  0.13261937712E+01  0.00000000000E+00 0. -1.
</event>
<event>
 7    1  0.2973028E-011  0.5052885E+02  0.7816164E-02  0.1300439E+00
        -11   -1    0    0    0    0  0.00000000000E+00  0.00000000000E+00  0.45593999997E+02  0.45594000000E+02  0.51100000000E-03 0. -1.
         11   -1    0    0    0    0 -0.00000000000E+00 -0.00000000000E+00 -0.45593999997E+02  0.45594000000E+02  0.51100000000E-03 0.  1.
    9900012    2    1    2    0    0 -0.27559580661E+02 -0.16728180479E+02 -0.24775063530E+02  0.50528852428E+02  0.29999977441E+02 0.  0.
         12    1    1    2    0    0  0.27559580661E+02  0.16728180479E+02  0.24775063530E+02  0.40659147572E+02  0.00000000000E+00 0. -1.
         11    1    3    3    0    0 -0.16911105240E+02 -0.81455660111E+01 -0.86963514009E+01  0.20687248585E+02  0.51100000000E-03 0. -1.
        -11    1    3    3    0    0  0.28764073328E+01 -0.10337141572E+02 -0.34945058096E+01  0.11284581788E+02  0.51100000000E-03 0.  1.
         12    1    3    3    0    0 -0.13524882754E+02  0.17545271041E+01 -0.12584206320E+02  0.18557022055E+02  0.00000000000E+00 0. -1.
</event>
<event>
 7    1  0.2973028E-011  0.5052886E+02  0.7816164E-02  0.1300439E+00
        -11   -1    0    0    0    0  0.00000000000E+00  0.00000000000E+00  0.45593999997E+02  0.45594000000E+02  0.51100000000E-03 0.  1.
         11   -1    0    0    0    0 -0.00000000000E+00 -0.00000000000E+00 -0.45593999997E+02  0.45594000000E+02  0.51100000000E-03 0. -1.
    9900012    2    1    2    0    0 -0.24958070364E+02 -0.11251046429E+02  0.30061175500E+02  0.50528860873E+02  0.30000003111E+02 0.  0.
         12    1    1    2    0    0  0.24958070364E+02  0.11251046429E+02 -0.30061175500E+02  0.40659139127E+02  0.00000000000E+00 0. -1.
         11    1    3    3    0    0 -0.10424660744E+02  0.55931804007E+01  0.18280058300E+02  0.21774245115E+02  0.51100000000E-03 0. -1.
        -11    1    3    3    0    0  0.10292842860E+01 -0.83530321294E+01  0.48919474756E+01  0.97346660067E+01  0.51100000000E-03 0.  1.
        -12    1    3    3    0    0 -0.15562693906E+02 -0.84911947002E+01  0.68891697251E+01  0.19019949752E+02  0.00000000000E+00 0.  1.
</event>
<event>
 7    1  0.2973028E-011  0.5052886E+02  0.7816164E-02  0.1300439E+00
        -11   -1    0    0    0    0  0.00000000000E+00  0.00000000000E+00  0.45593999997E+02  0.45594000000E+02  0.51100000000E-03 0.  1.
         11   -1    0    0    0    0 -0.00000000000E+00 -0.00000000000E+00 -0.45593999997E+02  0.45594000000E+02  0.51100000000E-03 0. -1.
    9900012    2    1    2    0    0  0.14538721086E+02  0.17867269039E+02  0.33504508577E+02  0.50528858240E+02  0.29999995106E+02 0.  0.
         12    1    1    2    0    0 -0.14538721086E+02 -0.17867269039E+02 -0.33504508577E+02  0.40659141760E+02  0.00000000000E+00 0. -1.
         11    1    3    3    0    0  0.26570702621E+01 -0.34517399370E+01  0.36623319363E+01  0.56909758779E+01  0.51100000000E-03 0. -1.
        -11    1    3    3    0    0  0.13460771247E+02  0.25423027007E+02  0.27743936529E+02  0.39965593692E+02  0.51100000000E-03 0.  1.
        -12    1    3    3    0    0 -0.15791204231E+01 -0.41040180316E+01  0.20982401109E+01  0.48722886694E+01  0.00000000000E+00 0.  1.
</event>
<event>
 7    1  0.2973028E-011  0.5052887E+02  0.7816164E-02  0.1300439E+00
        -11   -1    0    0    0    0  0.00000000000E+00  0.00000000000E+00  0.45593999997E+02  0.45594000000E+02  0.51100000000E-03 0. -1.
         11   -1    0    0    0    0 -0.00000000000E+00 -0.00000000000E+00 -0.45593999997E+02  0.45594000000E+02  0.51100000000E-03 0.  1.
    9900012    2    1    2    0    0  0.28836704094E+02  0.22358674909E+02 -0.17935974452E+02  0.50528867861E+02  0.30000024351E+02 0.  0.
         12    1    1    2    0    0 -0.28836704094E+02 -0.22358674909E+02  0.17935974452E+02  0.40659132139E+02  0.00000000000E+00 0. -1.
         11    1    3    3    0    0 -0.18014549062E+01 -0.39804481841E+01 -0.55011911073E+01  0.70251200264E+01  0.51100000000E-03 0. -1.
        -11    1    3    3    0    0  0.15651112039E+02  0.68919844803E+01 -0.59882517475E+01  0.18119489987E+02  0.51100000000E-03 0.  1.
         12    1    3    3    0    0  0.14987046961E+02  0.19447138613E+02 -0.64465315976E+01  0.25384257848E+02  0.00000000000E+00 0. -1.
</event>
<event>
 7    1  0.2973028E-011  0.5052887E+02  0.7816164E-02  0.1300439E+00
        -11   -1    0    0    0    0  0.00000000000E+00  0.00000000000E+00  0.45593999997E+02  0.45594000000E+02  0.51100000000E-03 0. -1.
         11   -1    0    0    0    0 -0.00000000000E+00 -0.00000000000E+00 -0.45593999997E+02  0.45594000000E+02  0.51100000000E-03 0.  1.
    9900012    2    1    2    0    0  0.40039111563E+02  0.51249192264E+01  0.48754311154E+01  0.50528867196E+02  0.30000022329E+02 0.  0.
         12    1    1    2    0    0 -0.40039111563E+02 -0.51249192264E+01 -0.48754311154E+01  0.40659132804E+02  0.00000000000E+00 0. -1.
         11    1    3    3    0    0  0.15946641515E+01  0.64031424273E+01 -0.44284605893E+01  0.79469774224E+01  0.51100000000E-03 0. -1.
        -11    1    3    3    0    0  0.24512563039E+02 -0.74757090826E+01  0.20867410018E+01  0.25711990613E+02  0.51100000000E-03 0.  1.
        -12    1    3    3    0    0  0.13931884372E+02  0.61974858817E+01  0.72171507029E+01  0.16869899160E+02  0.00000000000E+00 0.  1.
</event>
<event>
 7    1  0.2973028E-011  0.5052886E+02  0.7816164E-02  0.1300439E+00
        -11   -1    0    0    0    0  0.00000000000E+00  0.00000000000E+00  0.45593999997E+02  0.45594000000E+02  0.51100000000E-03 0.  1.
         11   -1    0    0    0    0 -0.00000000000E+00 -0.00000000000E+00 -0.45593999997E+02  0.45594000000E+02  0.51100000000E-03 0. -1.
    9900012    2    1    2    0    0  0.17437545842E+02 -0.85154580135E+01  0.35729327317E+02  0.50528857600E+02  0.29999993161E+02 0.  0.
         12    1    1    2    0    0 -0.17437545842E+02  0.85154580135E+01 -0.35729327317E+02  0.40659142400E+02  0.00000000000E+00 0. -1.
         11    1    3    3    0    0  0.47213974121E-01 -0.37609427698E+01  0.21792866927E+01  0.43469771597E+01  0.51100000000E-03 0. -1.
        -11    1    3    3    0    0  0.21933343931E+02  0.60602245880E+00  0.32295539764E+02  0.39044086981E+02  0.51100000000E-03 0.  1.
        -12    1    3    3    0    0 -0.45430120628E+01 -0.53605377024E+01  0.12545008599E+01  0.71377934595E+01  0.00000000000E+00 0.  1.
</event>
<event>
 7    1  0.2973028E-011  0.5052892E+02  0.7816164E-02  0.1300439E+00
        -11   -1    0    0    0    0  0.00000000000E+00  0.00000000000E+00  0.45593999997E+02  0.45594000000E+02  0.51100000000E-03 0.  1.
         11   -1    0    0    0    0 -0.00000000000E+00 -0.00000000000E+00 -0.45593999997E+02  0.45594000000E+02  0.51100000000E-03 0. -1.
    9900012    2    1    2    0    0  0.38467624253E+02  0.13072786280E+02  0.15826986765E+01  0.50528919933E+02  0.30000182629E+02 0.  0.
         12    1    1    2    0    0 -0.38467624253E+02 -0.13072786280E+02 -0.15826986765E+01  0.40659080067E+02  0.00000000000E+00 0. -1.
         11    1    3    3    0    0  0.17409235307E+01  0.11932643828E+02 -0.36821287901E+01  0.12608603259E+02  0.51100000000E-03 0. -1.
        -11    1    3    3    0    0  0.22807436542E+02  0.34831924172E+01  0.58188954585E+01  0.23794355122E+02  0.51100000000E-03 0.  1.
         12    1    3    3    0    0  0.13919264180E+02 -0.23430499647E+01 -0.55406799202E+00  0.14125961553E+02  0.00000000000E+00 0. -1.
</event>
<event>
 7    1  0.2973028E-011  0.5052887E+02  0.7816164E-02  0.1300439E+00
        -11   -1    0    0    0    0  0.00000000000E+00  0.00000000000E+00  0.45593999997E+02  0.45594000000E+02  0.51100000000E-03 0. -1.
         11   -1    0    0    0    0 -0.00000000000E+00 -0.00000000000E+00 -0.45593999997E+02  0.45594000000E+02  0.51100000000E-03 0.  1.
    9900012    2    1    2    0    0 -0.23204329296E+02  0.28333001620E+02 -0.17662530048E+02  0.50528870071E+02  0.30000031068E+02 0.  0.
         12    1    1    2    0    0  0.23204329296E+02 -0.28333001620E+02  0.17662530048E+02  0.40659129929E+02  0.00000000000E+00 0. -1.
         11    1    3    3    0    0 -0.55863882741E+01  0.16094847893E+02  0.33122515065E+01  0.17355773476E+02  0.51100000000E-03 0. -1.
        -11    1    3    3    0    0 -0.77195750811E+01  0.12435811586E+02 -0.17181620185E+02  0.22570984066E+02  0.51100000000E-03 0.  1.
         12    1    3    3    0    0 -0.98983659405E+01 -0.19765785844E+00 -0.37931613695E+01  0.10602112530E+02  0.00000000000E+00 0. -1.
</event>
<event>
 7    1  0.3077773E-011  0.5052888E+02  0.7816164E-02  0.1300439E+00
        -11   -1    0    0    0    0  0.00000000000E+00  0.00000000000E+00  0.45593999997E+02  0.45594000000E+02  0.51100000000E-03 0. -1.
         11   -1    0    0    0    0 -0.00000000000E+00 -0.00000000000E+00 -0.45593999997E+02  0.45594000000E+02  0.51100000000E-03 0.  1.
    9900012    2    1    2    0    0 -0.37993699616E+02  0.65404689463E+01 -0.12917638629E+02  0.50528876395E+02  0.30000050290E+02 0.  0.
         12    1    1    2    0    0  0.37993699616E+02 -0.65404689463E+01  0.12917638629E+02  0.40659123605E+02  0.00000000000E+00 0. -1.
         11    1    3    3    0    0 -0.12730677734E+02  0.18815385291E+01  0.72145065286E+01  0.14753285990E+02  0.51100000000E-03 0. -1.
        -11    1    3    3    0    0 -0.10973650102E+02  0.87575427452E+01 -0.13570653710E+02  0.19526346147E+02  0.51100000000E-03 0.  1.
        -12    1    3    3    0    0 -0.14289371781E+02 -0.40986123280E+01 -0.65614914476E+01  0.16249244257E+02  0.00000000000E+00 0.  1.
</event>
<event>
 7    1  0.2973028E-011  0.5052885E+02  0.7816164E-02  0.1300439E+00
        -11   -1    0    0    0    0  0.00000000000E+00  0.00000000000E+00  0.45593999997E+02  0.45594000000E+02  0.51100000000E-03 0. -1.
         11   -1    0    0    0    0 -0.00000000000E+00 -0.00000000000E+00 -0.45593999997E+02  0.45594000000E+02  0.51100000000E-03 0.  1.
    9900012    2    1    2    0    0 -0.25639626240E+02 -0.90199144963E+00 -0.31543019319E+02  0.50528854780E+02  0.29999984588E+02 0.  0.
         12    1    1    2    0    0  0.25639626240E+02  0.90199144963E+00  0.31543019319E+02  0.40659145220E+02  0.00000000000E+00 0. -1.
         11    1    3    3    0    0 -0.28574579899E+02 -0.50494780736E+01 -0.17236133819E+02  0.33750380065E+02  0.51100000000E-03 0. -1.
        -11    1    3    3    0    0  0.77138099384E+00 -0.20271455966E+01 -0.28028797240E+01  0.35440771600E+01  0.51100000000E-03 0.  1.
         12    1    3    3    0    0  0.21635726658E+01  0.61746322205E+01 -0.11504005776E+02  0.13234397555E+02  0.00000000000E+00 0. -1.
</event>
<event>
 7    1  0.2973028E-011  0.5052886E+02  0.7816164E-02  0.1300439E+00
        -11   -1    0    0    0    0  0.00000000000E+00  0.00000000000E+00  0.45593999997E+02  0.45594000000E+02  0.51100000000E-03 0. -1.
         11   -1    0    0    0    0 -0.00000000000E+00 -0.00000000000E+00 -0.45593999997E+02  0.45594000000E+02  0.51100000000E-03 0.  1.
    9900012    2    1    2    0    0  0.92195097415E+01  0.19915217981E+02 -0.34227922069E+02  0.50528856916E+02  0.29999991083E+02 0.  0.
         12    1    1    2    0    0 -0.92195097415E+01 -0.19915217981E+02  0.34227922069E+02  0.40659143084E+02  0.00000000000E+00 0. -1.
         11    1    3    3    0    0 -0.52515941063E+01  0.14830767637E+02 -0.10859675601E+02  0.19117098728E+02  0.51100000000E-03 0. -1.
        -11    1    3    3    0    0  0.91492971464E+01  0.98557963566E+01 -0.18019795882E+02  0.22484648185E+02  0.51100000000E-03 0.  1.
         12    1    3    3    0    0  0.53218067014E+01 -0.47713460128E+01 -0.53484505860E+01  0.89271100034E+01  0.00000000000E+00 0. -1.
</event>
<event>
 7    1  0.2973028E-011  0.5052885E+02  0.7816164E-02  0.1300439E+00
        -11   -1    0    0    0    0  0.00000000000E+00  0.00000000000E+00  0.45593999997E+02  0.45594000000E+02  0.51100000000E-03 0. -1.
         11   -1    0    0    0    0 -0.00000000000E+00 -0.00000000000E+00 -0.45593999997E+02  0.45594000000E+02  0.51100000000E-03 0.  1.
    9900012    2    1    2    0    0 -0.38566506726E+02  0.11832270283E+02  0.50782149735E+01  0.50528851848E+02  0.29999975677E+02 0.  0.
         12    1    1    2    0    0  0.38566506726E+02 -0.11832270283E+02 -0.50782149735E+01  0.40659148152E+02  0.00000000000E+00 0. -1.
         11    1    3    3    0    0 -0.29538978226E+01  0.27731249557E+01  0.73815131002E+01  0.84203604600E+01  0.51100000000E-03 0. -1.
        -11    1    3    3    0    0 -0.18868885048E+02  0.52176443546E+01 -0.11416007978E+02  0.22662388973E+02  0.51100000000E-03 0.  1.
        -12    1    3    3    0    0 -0.16743723856E+02  0.38415009732E+01  0.91127098514E+01  0.19446102415E+02  0.00000000000E+00 0.  1.
</event>
<event>
 7    1  0.2973028E-011  0.5052886E+02  0.7816164E-02  0.1300439E+00
        -11   -1    0    0    0    0  0.00000000000E+00  0.00000000000E+00  0.45593999997E+02  0.45594000000E+02  0.51100000000E-03 0.  1.
         11   -1    0    0    0    0 -0.00000000000E+00 -0.00000000000E+00 -0.45593999997E+02  0.45594000000E+02  0.51100000000E-03 0. -1.
    9900012    2    1    2    0    0  0.12169015663E+01 -0.23023778941E+02  0.33490157329E+02  0.50528857312E+02  0.29999992286E+02 0.  0.
         12    1    1    2    0    0 -0.12169015663E+01  0.23023778941E+02 -0.33490157329E+02  0.40659142688E+02  0.00000000000E+00 0. -1.
         11    1    3    3    0    0  0.77236724616E+01 -0.73906060887E+01  0.83859593930E+01  0.13586776286E+02  0.51100000000E-03 0. -1.
        -11    1    3    3    0    0 -0.65833034111E+01 -0.13948269193E+01  0.21105974377E+02  0.22152823310E+02  0.51100000000E-03 0.  1.
        -12    1    3    3    0    0  0.76532515836E-01 -0.14238345933E+02  0.39982235591E+01  0.14789257715E+02  0.00000000000E+00 0.  1.
</event>
<event>
 7    1  0.2973028E-011  0.5052886E+02  0.7816164E-02  0.1300439E+00
        -11   -1    0    0    0    0  0.00000000000E+00  0.00000000000E+00  0.45593999997E+02  0.45594000000E+02  0.51100000000E-03 0. -1.
         11   -1    0    0    0    0 -0.00000000000E+00 -0.00000000000E+00 -0.45593999997E+02  0.45594000000E+02  0.51100000000E-03 0.  1.
    9900012    2    1    2    0    0  0.29772173688E+02 -0.92244542094E+01 -0.26109248034E+02  0.50528859398E+02  0.29999998627E+02 0.  0.
         12    1    1    2    0    0 -0.29772173688E+02  0.92244542094E+01  0.26109248034E+02  0.40659140602E+02  0.00000000000E+00 0. -1.
         11    1    3    3    0    0  0.64111963003E+00  0.14640521948E+01  0.38670193715E+00  0.16443910297E+01  0.51100000000E-03 0. -1.
        -11    1    3    3    0    0  0.28625281346E+02 -0.37771107877E+00 -0.25799482032E+02  0.38537808334E+02  0.51100000000E-03 0.  1.
        -12    1    3    3    0    0  0.50577271155E+00 -0.10310795325E+02 -0.69646793943E+00  0.10346660035E+02  0.00000000000E+00 0.  1.
</event>
<event>
 7    1  0.2973028E-011  0.5052886E+02  0.7816164E-02  0.1300439E+00
        -11   -1    0    0    0    0  0.00000000000E+00  0.00000000000E+00  0.45593999997E+02  0.45594000000E+02  0.51100000000E-03 0.  1.
         11   -1    0    0    0    0 -0.00000000000E+00 -0.00000000000E+00 -0.45593999997E+02  0.45594000000E+02  0.51100000000E-03 0. -1.
    9900012    2    1    2    0    0 -0.30729239289E+02 -0.13325468063E+02  0.23050199334E+02  0.50528856678E+02  0.29999990357E+02 0.  0.
         12    1    1    2    0    0  0.30729239289E+02  0.13325468063E+02 -0.23050199334E+02  0.40659143322E+02  0.00000000000E+00 0. -1.
         11    1    3    3    0    0 -0.50364193481E-01 -0.49744468333E+00 -0.18221235165E+01  0.18894766829E+01  0.51100000000E-03 0. -1.
        -11    1    3    3    0    0 -0.29867000315E+02 -0.11385500249E+02  0.29640785026E+02  0.43591782035E+02  0.51100000000E-03 0.  1.
        -12    1    3    3    0    0 -0.81187478038E+00 -0.14425231314E+01 -0.47684621758E+01  0.50475979600E+01  0.00000000000E+00 0.  1.
</event>
<event>
 7    1  0.2973028E-011  0.5052887E+02  0.7816164E-02  0.1300439E+00
        -11   -1    0    0    0    0  0.00000000000E+00  0.00000000000E+00  0.45593999997E+02  0.45594000000E+02  0.51100000000E-03 0.  1.
         11   -1    0    0    0    0 -0.00000000000E+00 -0.00000000000E+00 -0.45593999997E+02  0.45594000000E+02  0.51100000000E-03 0. -1.
    9900012    2    1    2    0    0  0.18596540153E+02 -0.53875471349E+01  0.35753435093E+02  0.50528867069E+02  0.30000021942E+02 0.  0.
         12    1    1    2    0    0 -0.18596540153E+02  0.53875471349E+01 -0.35753435093E+02  0.40659132931E+02  0.00000000000E+00 0. -1.
         11    1    3    3    0    0  0.20403667823E+02 -0.81968334794E+01  0.19767786178E+02  0.29567940584E+02  0.51100000000E-03 0. -1.
        -11    1    3    3    0    0 -0.27403044039E+01 -0.34247089641E+01  0.71965514157E+00  0.44447501053E+01  0.51100000000E-03 0.  1.
         12    1    3    3    0    0  0.93317673418E+00  0.62339953086E+01  0.15265993773E+02  0.16516176379E+02  0.00000000000E+00 0. -1.
</event>
<event>
 7    1  0.2973028E-011  0.5052886E+02  0.7816164E-02  0.1300439E+00
        -11   -1    0    0    0    0  0.00000000000E+00  0.00000000000E+00  0.45593999997E+02  0.45594000000E+02  0.51100000000E-03 0.  1.
         11   -1    0    0    0    0 -0.00000000000E+00 -0.00000000000E+00 -0.45593999997E+02  0.45594000000E+02  0.51100000000E-03 0. -1.
    9900012    2    1    2    0    0 -0.35633926031E+02 -0.19452176235E+02 -0.22364714396E+01  0.50528860201E+02  0.30000001068E+02 0.  0.
         12    1    1    2    0    0  0.35633926031E+02  0.19452176235E+02  0.22364714396E+01  0.40659139799E+02  0.00000000000E+00 0. -1.
         11    1    3    3    0    0 -0.12033863211E+01  0.38350234459E+01 -0.82749949298E-01  0.40202476644E+01  0.51100000000E-03 0. -1.
        -11    1    3    3    0    0 -0.34667605187E+02 -0.23657759766E+02  0.22996490802E+01  0.42033567928E+02  0.51100000000E-03 0.  1.
        -12    1    3    3    0    0  0.23706547710E+00  0.37056008521E+00 -0.44533705705E+01  0.44750446093E+01  0.00000000000E+00 0.  1.
</event>
<event>
 7    1  0.2973028E-011  0.5052886E+02  0.7816164E-02  0.1300439E+00
        -11   -1    0    0    0    0  0.00000000000E+00  0.00000000000E+00  0.45593999997E+02  0.45594000000E+02  0.51100000000E-03 0. -1.
         11   -1    0    0    0    0 -0.00000000000E+00 -0.00000000000E+00 -0.45593999997E+02  0.45594000000E+02  0.51100000000E-03 0.  1.
    9900012    2    1    2    0    0  0.31753935723E+02  0.23785236127E+02 -0.88946933415E+01  0.50528862513E+02  0.30000008094E+02 0.  0.
         12    1    1    2    0    0 -0.31753935723E+02 -0.23785236127E+02  0.88946933415E+01  0.40659137487E+02  0.00000000000E+00 0. -1.
         11    1    3    3    0    0 -0.29219048920E+01 -0.13224171111E+00 -0.26463876815E+01  0.39444117546E+01  0.51100000000E-03 0. -1.
        -11    1    3    3    0    0  0.17045629547E+02  0.61267618658E+01  0.54852828434E+01  0.18925618240E+02  0.51100000000E-03 0.  1.
        -12    1    3    3    0    0  0.17630211068E+02  0.17790715973E+02 -0.11733588503E+02  0.27658832518E+02  0.00000000000E+00 0.  1.
</event>
<event>
 7    1  0.2973028E-011  0.5052885E+02  0.7816164E-02  0.1300439E+00
        -11   -1    0    0    0    0  0.00000000000E+00  0.00000000000E+00  0.45593999997E+02  0.45594000000E+02  0.51100000000E-03 0.  1.
         11   -1    0    0    0    0 -0.00000000000E+00 -0.00000000000E+00 -0.45593999997E+02  0.45594000000E+02  0.51100000000E-03 0. -1.
    9900012    2    1    2    0    0  0.84618279834E+01 -0.31442862092E+02 -0.24349748487E+02  0.50528851451E+02  0.29999974470E+02 0.  0.
         12    1    1    2    0    0 -0.84618279834E+01  0.31442862092E+02  0.24349748487E+02  0.40659148549E+02  0.00000000000E+00 0. -1.
         11    1    3    3    0    0 -0.75084315694E+01 -0.13372467316E+02 -0.11688726543E+02  0.19282783907E+02  0.51100000000E-03 0. -1.
        -11    1    3    3    0    0  0.14400218762E+02 -0.11424203353E+02 -0.15308915717E+02  0.23921572342E+02  0.51100000000E-03 0.  1.
         12    1    3    3    0    0  0.15700407908E+01 -0.66461914231E+01  0.26478937731E+01  0.73244952011E+01  0.00000000000E+00 0. -1.
</event>
<event>
 7    1  0.2973028E-011  0.5052884E+02  0.7816164E-02  0.1300439E+00
        -11   -1    0    0    0    0  0.00000000000E+00  0.00000000000E+00  0.45593999997E+02  0.45594000000E+02  0.51100000000E-03 0.  1.
         11   -1    0    0    0    0 -0.00000000000E+00 -0.00000000000E+00 -0.45593999997E+02  0.45594000000E+02  0.51100000000E-03 0. -1.
    9900012    2    1    2    0    0 -0.70501538752E+01  0.49395534724E+01  0.39737426141E+02  0.50528844887E+02  0.29999954519E+02 0.  0.
         12    1    1    2    0    0  0.70501538752E+01 -0.49395534724E+01 -0.39737426141E+02  0.40659155113E+02  0.00000000000E+00 0. -1.
         11    1    3    3    0    0  0.54756603637E+01  0.76725711248E+01  0.26040800504E+02  0.27694304382E+02  0.51100000000E-03 0. -1.
        -11    1    3    3    0    0 -0.10002609145E+02  0.19538817934E+01  0.25859479334E+01  0.10514607494E+02  0.51100000000E-03 0.  1.
         12    1    3    3    0    0 -0.25232050935E+01 -0.46868994458E+01  0.11110677704E+02  0.12319933011E+02  0.00000000000E+00 0. -1.
</event>
<event>
 7    1  0.2973028E-011  0.5052887E+02  0.7816164E-02  0.1300439E+00
        -11   -1    0    0    0    0  0.00000000000E+00  0.00000000000E+00  0.45593999997E+02  0.45594000000E+02  0.51100000000E-03 0.  1.
         11   -1    0    0    0    0 -0.00000000000E+00 -0.00000000000E+00 -0.45593999997E+02  0.45594000000E+02  0.51100000000E-03 0. -1.
    9900012    2    1    2    0    0  0.18767519207E+02 -0.16747209748E+02  0.31944889462E+02  0.50528870960E+02  0.30000033771E+02 0.  0.
         12    1    1    2    0    0 -0.18767519207E+02  0.16747209748E+02 -0.31944889462E+02  0.40659129040E+02  0.00000000000E+00 0. -1.
         11    1    3    3    0    0  0.19859914220E+02 -0.15527470828E+02  0.10913502530E+02  0.27470403726E+02  0.51100000000E-03 0. -1.
        -11    1    3    3    0    0  0.11987994690E+01 -0.30226755556E+01  0.19492287285E+02  0.19761653563E+02  0.51100000000E-03 0.  1.
        -12    1    3    3    0    0 -0.22911944818E+01  0.18029366351E+01  0.15390996472E+01  0.32968136720E+01  0.00000000000E+00 0.  1.
</event>
<event>
 7    1  0.2973028E-011  0.5052886E+02  0.7816164E-02  0.1300439E+00
        -11   -1    0    0    0    0  0.00000000000E+00  0.00000000000E+00  0.45593999997E+02  0.45594000000E+02  0.51100000000E-03 0.  1.
         11   -1    0    0    0    0 -0.00000000000E+00 -0.00000000000E+00 -0.45593999997E+02  0.45594000000E+02  0.51100000000E-03 0. -1.
    9900012    2    1    2    0    0 -0.10643939115E+02  0.30724717302E+02  0.24410317372E+02  0.50528864651E+02  0.30000014592E+02 0.  0.
         12    1    1    2    0    0  0.10643939115E+02 -0.30724717302E+02 -0.24410317372E+02  0.40659135349E+02  0.00000000000E+00 0. -1.
         11    1    3    3    0    0  0.29948592618E+01  0.21180950759E+02  0.12870933191E+02  0.24965231393E+02  0.51100000000E-03 0. -1.
        -11    1    3    3    0    0 -0.25705091245E+01  0.22720459928E+01  0.11829731161E+02  0.12317152664E+02  0.51100000000E-03 0.  1.
         12    1    3    3    0    0 -0.11068289252E+02  0.72717205502E+01 -0.29034698018E+00  0.13246480593E+02  0.00000000000E+00 0. -1.
</event>
<event>
 7    1  0.2973028E-011  0.5052886E+02  0.7816164E-02  0.1300439E+00
        -11   -1    0    0    0    0  0.00000000000E+00  0.00000000000E+00  0.45593999997E+02  0.45594000000E+02  0.51100000000E-03 0.  1.
         11   -1    0    0    0    0 -0.00000000000E+00 -0.00000000000E+00 -0.45593999997E+02  0.45594000000E+02  0.51100000000E-03 0. -1.
    9900012    2    1    2    0    0  0.32093978579E+02  0.59579999020E+01  0.24241375424E+02  0.50528861958E+02  0.30000006408E+02 0.  0.
         12    1    1    2    0    0 -0.32093978579E+02 -0.59579999020E+01 -0.24241375424E+02  0.40659138042E+02  0.00000000000E+00 0. -1.
         11    1    3    3    0    0 -0.21882612214E+01  0.65130426000E+01  0.43549140805E+01  0.81347088450E+01  0.51100000000E-03 0. -1.
        -11    1    3    3    0    0  0.33284225287E+02  0.73631383068E+00  0.13708467972E+02  0.36004220661E+02  0.51100000000E-03 0.  1.
        -12    1    3    3    0    0  0.99801451367E+00 -0.12913565287E+01  0.61779933708E+01  0.63899324522E+01  0.00000000000E+00 0.  1.
</event>
<event>
 7    1  0.2973028E-011  0.5052886E+02  0.7816164E-02  0.1300439E+00
        -11   -1    0    0    0    0  0.00000000000E+00  0.00000000000E+00  0.45593999997E+02  0.45594000000E+02  0.51100000000E-03 0.  1.
         11   -1    0    0    0    0 -0.00000000000E+00 -0.00000000000E+00 -0.45593999997E+02  0.45594000000E+02  0.51100000000E-03 0. -1.
    9900012    2    1    2    0    0 -0.17643541528E+02  0.13035505734E+02  0.34233705119E+02  0.50528861622E+02  0.30000005388E+02 0.  0.
         12    1    1    2    0    0  0.17643541528E+02 -0.13035505734E+02 -0.34233705119E+02  0.40659138378E+02  0.00000000000E+00 0. -1.
         11    1    3    3    0    0  0.16120156749E+01 -0.64314832081E+01  0.12794001458E+02  0.14410032767E+02  0.51100000000E-03 0. -1.
        -11    1    3    3    0    0 -0.96868979378E+01  0.98465643109E+01  0.16865222941E+02  0.21799691867E+02  0.51100000000E-03 0.  1.
         12    1    3    3    0    0 -0.95686592653E+01  0.96204246313E+01  0.45744807205E+01  0.14319136988E+02  0.00000000000E+00 0. -1.
</event>
<event>
 7    1  0.2973028E-011  0.5052885E+02  0.7816164E-02  0.1300439E+00
        -11   -1    0    0    0    0  0.00000000000E+00  0.00000000000E+00  0.45593999997E+02  0.45594000000E+02  0.51100000000E-03 0.  1.
         11   -1    0    0    0    0 -0.00000000000E+00 -0.00000000000E+00 -0.45593999997E+02  0.45594000000E+02  0.51100000000E-03 0. -1.
    9900012    2    1    2    0    0 -0.24523783792E+02  0.32426008158E+02 -0.55171187600E+00  0.50528851429E+02  0.29999974402E+02 0.  0.
         12    1    1    2    0    0  0.24523783792E+02 -0.32426008158E+02  0.55171187600E+00  0.40659148571E+02  0.00000000000E+00 0. -1.
         11    1    3    3    0    0 -0.30468284576E+01  0.20280785152E+01 -0.10615296629E+02  0.11228570207E+02  0.51100000000E-03 0. -1.
        -11    1    3    3    0    0 -0.16115857736E+02  0.26890363518E+02  0.66744095241E+01  0.32052461114E+02  0.51100000000E-03 0.  1.
        -12    1    3    3    0    0 -0.53610975985E+01  0.35075661245E+01  0.33891752286E+01  0.72478201073E+01  0.00000000000E+00 0.  1.
</event>
<event>
 7    1  0.2973028E-011  0.5052886E+02  0.7816164E-02  0.1300439E+00
        -11   -1    0    0    0    0  0.00000000000E+00  0.00000000000E+00  0.45593999997E+02  0.45594000000E+02  0.51100000000E-03 0.  1.
         11   -1    0    0    0    0 -0.00000000000E+00 -0.00000000000E+00 -0.45593999997E+02  0.45594000000E+02  0.51100000000E-03 0. -1.
    9900012    2    1    2    0    0  0.18515879029E+02 -0.44014769414E+01  0.35929862204E+02  0.50528858673E+02  0.29999996421E+02 0.  0.
         12    1    1    2    0    0 -0.18515879029E+02  0.44014769414E+01 -0.35929862204E+02  0.40659141327E+02  0.00000000000E+00 0. -1.
         11    1    3    3    0    0  0.28702091871E+01 -0.11362383518E+02  0.12641956017E+02  0.17238355843E+02  0.51100000000E-03 0.  1.
        -11    1    3    3    0    0  0.51584471869E+01  0.71909334645E+01  0.13214165758E+01  0.89479183891E+01  0.51100000000E-03 0. -1.
        -12    1    3    3    0    0  0.10487222655E+02 -0.23002688839E+00  0.21966489611E+02  0.24342584440E+02  0.00000000000E+00 0.  1.
</event>
<event>
 7    1  0.2973028E-011  0.5052887E+02  0.7816164E-02  0.1300439E+00
        -11   -1    0    0    0    0  0.00000000000E+00  0.00000000000E+00  0.45593999997E+02  0.45594000000E+02  0.51100000000E-03 0. -1.
         11   -1    0    0    0    0 -0.00000000000E+00 -0.00000000000E+00 -0.45593999997E+02  0.45594000000E+02  0.51100000000E-03 0.  1.
    9900012    2    1    2    0    0 -0.34179710419E+02 -0.27606600086E+01 -0.21846982192E+02  0.50528874592E+02  0.30000044811E+02 0.  0.
         12    1    1    2    0    0  0.34179710419E+02  0.27606600086E+01  0.21846982192E+02  0.40659125408E+02  0.00000000000E+00 0. -1.
         11    1    3    3    0    0 -0.59619518576E+01 -0.11677374445E+02 -0.34746771968E+01  0.13563897882E+02  0.51100000000E-03 0. -1.
        -11    1    3    3    0    0 -0.21967263243E+02  0.18490884666E+01 -0.94696117746E+01  0.23992776620E+02  0.51100000000E-03 0.  1.
         12    1    3    3    0    0 -0.62504953191E+01  0.70676259699E+01 -0.89026932204E+01  0.12972200089E+02  0.00000000000E+00 0. -1.
</event>
<event>
 7    1  0.2973028E-011  0.5052885E+02  0.7816164E-02  0.1300439E+00
        -11   -1    0    0    0    0  0.00000000000E+00  0.00000000000E+00  0.45593999997E+02  0.45594000000E+02  0.51100000000E-03 0.  1.
         11   -1    0    0    0    0 -0.00000000000E+00 -0.00000000000E+00 -0.45593999997E+02  0.45594000000E+02  0.51100000000E-03 0. -1.
    9900012    2    1    2    0    0  0.23366836666E+02 -0.23069966382E+02  0.23977780627E+02  0.50528851357E+02  0.29999974183E+02 0.  0.
         12    1    1    2    0    0 -0.23366836666E+02  0.23069966382E+02 -0.23977780627E+02  0.40659148643E+02  0.00000000000E+00 0. -1.
         11    1    3    3    0    0  0.18332851323E+02 -0.38525253031E+01  0.47366739102E+01  0.19322822486E+02  0.51100000000E-03 0. -1.
        -11    1    3    3    0    0  0.54891570344E+01 -0.20487094637E+02  0.20399763135E+02  0.29427915791E+02  0.51100000000E-03 0.  1.
         12    1    3    3    0    0 -0.45517169194E+00  0.12696535575E+01 -0.11586564185E+01  0.17781130789E+01  0.00000000000E+00 0. -1.
</event>
<event>
 7    1  0.2973028E-011  0.5052885E+02  0.7816164E-02  0.1300439E+00
        -11   -1    0    0    0    0  0.00000000000E+00  0.00000000000E+00  0.45593999997E+02  0.45594000000E+02  0.51100000000E-03 0.  1.
         11   -1    0    0    0    0 -0.00000000000E+00 -0.00000000000E+00 -0.45593999997E+02  0.45594000000E+02  0.51100000000E-03 0. -1.
    9900012    2    1    2    0    0 -0.10517834872E+02  0.38026916282E+02  0.98231929757E+01  0.50528851798E+02  0.29999975524E+02 0.  0.
         12    1    1    2    0    0  0.10517834872E+02 -0.38026916282E+02 -0.98231929757E+01  0.40659148202E+02  0.00000000000E+00 0. -1.
         11    1    3    3    0    0  0.86635102723E+01  0.58521512497E+01  0.42400199683E+01  0.11281925992E+02  0.51100000000E-03 0. -1.
        -11    1    3    3    0    0 -0.14972393246E+02  0.15115843642E+02  0.28893727575E+01  0.21471137923E+02  0.51100000000E-03 0.  1.
         12    1    3    3    0    0 -0.42089518983E+01  0.17058921390E+02  0.26938002498E+01  0.17775787883E+02  0.00000000000E+00 0. -1.
</event>
<event>
 7    1  0.2973028E-011  0.5052886E+02  0.7816164E-02  0.1300439E+00
        -11   -1    0    0    0    0  0.00000000000E+00  0.00000000000E+00  0.45593999997E+02  0.45594000000E+02  0.51100000000E-03 0.  1.
         11   -1    0    0    0    0 -0.00000000000E+00 -0.00000000000E+00 -0.45593999997E+02  0.45594000000E+02  0.51100000000E-03 0. -1.
    9900012    2    1    2    0    0 -0.32102069219E+02 -0.24757341562E+02 -0.31139770198E+01  0.50528860041E+02  0.30000000580E+02 0.  0.
         12    1    1    2    0    0  0.32102069219E+02  0.24757341562E+02  0.31139770198E+01  0.40659139959E+02  0.00000000000E+00 0. -1.
         11    1    3    3    0    0  0.30084152889E+01 -0.30805018750E+01  0.49225507569E+00  0.43338631350E+01  0.51100000000E-03 0. -1.
        -11    1    3    3    0    0 -0.25733663338E+02 -0.25133588954E+02 -0.40049963622E+01  0.36193351856E+02  0.51100000000E-03 0.  1.
        -12    1    3    3    0    0 -0.93768211702E+01  0.34567492673E+01  0.39876426670E+00  0.10001645049E+02  0.00000000000E+00 0.  1.
</event>
<event>
 7    1  0.2973028E-011  0.5052887E+02  0.7816164E-02  0.1300439E+00
        -11   -1    0    0    0    0  0.00000000000E+00  0.00000000000E+00  0.45593999997E+02  0.45594000000E+02  0.51100000000E-03 0. -1.
         11   -1    0    0    0    0 -0.00000000000E+00 -0.00000000000E+00 -0.45593999997E+02  0.45594000000E+02  0.51100000000E-03 0.  1.
    9900012    2    1    2    0    0 -0.28562802318E+02  0.17514976300E+02 -0.23033826958E+02  0.50528865044E+02  0.30000015788E+02 0.  0.
         12    1    1    2    0    0  0.28562802318E+02 -0.17514976300E+02  0.23033826958E+02  0.40659134956E+02  0.00000000000E+00 0. -1.
         11    1    3    3    0    0 -0.18751253263E+02  0.15228050215E+02 -0.86170016533E+01  0.25646748917E+02  0.51100000000E-03 0. -1.
        -11    1    3    3    0    0 -0.85200251081E+01 -0.61393078009E+01 -0.12153664520E+02  0.16062175745E+02  0.51100000000E-03 0.  1.
         12    1    3    3    0    0 -0.12915239467E+01  0.84262338859E+01 -0.22631607847E+01  0.88199403820E+01  0.00000000000E+00 0. -1.
</event>
<event>
 7    1  0.2973028E-011  0.5052886E+02  0.7816164E-02  0.1300439E+00
        -11   -1    0    0    0    0  0.00000000000E+00  0.00000000000E+00  0.45593999997E+02  0.45594000000E+02  0.51100000000E-03 0.  1.
         11   -1    0    0    0    0 -0.00000000000E+00 -0.00000000000E+00 -0.45593999997E+02  0.45594000000E+02  0.51100000000E-03 0. -1.
    9900012    2    1    2    0    0 -0.38001624824E+02  0.79606546918E+01 -0.12069390833E+02  0.50528859484E+02  0.29999998888E+02 0.  0.
         12    1    1    2    0    0  0.38001624824E+02 -0.79606546918E+01  0.12069390833E+02  0.40659140516E+02  0.00000000000E+00 0. -1.
         11    1    3    3    0    0 -0.24699755654E+02  0.14180573816E+02 -0.12597407737E+02  0.31142595991E+02  0.51100000000E-03 0. -1.
        -11    1    3    3    0    0 -0.78419584531E+01 -0.19259127254E+01  0.63897609881E+01  0.10297305373E+02  0.51100000000E-03 0.  1.
        -12    1    3    3    0    0 -0.54599107170E+01 -0.42940063986E+01 -0.58617440843E+01  0.90889581195E+01  0.00000000000E+00 0.  1.
</event>
<event>
 7    1  0.2973028E-011  0.5052886E+02  0.7816164E-02  0.1300439E+00
        -11   -1    0    0    0    0  0.00000000000E+00  0.00000000000E+00  0.45593999997E+02  0.45594000000E+02  0.51100000000E-03 0. -1.
         11   -1    0    0    0    0 -0.00000000000E+00 -0.00000000000E+00 -0.45593999997E+02  0.45594000000E+02  0.51100000000E-03 0.  1.
    9900012    2    1    2    0    0  0.21295558520E+02 -0.32757726597E+02 -0.11251485905E+02  0.50528863270E+02  0.30000010396E+02 0.  0.
         12    1    1    2    0    0 -0.21295558520E+02  0.32757726597E+02  0.11251485905E+02  0.40659136730E+02  0.00000000000E+00 0. -1.
         11    1    3    3    0    0  0.87588902187E+01  0.32998127705E+01  0.51420384665E+00  0.93739707724E+01  0.51100000000E-03 0. -1.
        -11    1    3    3    0    0  0.17864614308E+01 -0.16144450392E+02 -0.83675924516E+01  0.18271598906E+02  0.51100000000E-03 0.  1.
        -12    1    3    3    0    0  0.10750206871E+02 -0.19913088976E+02 -0.33980973005E+01  0.22883293592E+02  0.00000000000E+00 0.  1.
</event>
<event>
 7    1  0.2973028E-011  0.5052895E+02  0.7816164E-02  0.1300438E+00
        -11   -1    0    0    0    0  0.00000000000E+00  0.00000000000E+00  0.45593999997E+02  0.45594000000E+02  0.51100000000E-03 0.  1.
         11   -1    0    0    0    0 -0.00000000000E+00 -0.00000000000E+00 -0.45593999997E+02  0.45594000000E+02  0.51100000000E-03 0. -1.
    9900012    2    1    2    0    0 -0.13210098829E+02  0.63754233907E+00  0.38447953410E+02  0.50528950666E+02  0.30000276043E+02 0.  0.
         12    1    1    2    0    0  0.13210098829E+02 -0.63754233907E+00 -0.38447953410E+02  0.40659049334E+02  0.00000000000E+00 0. -1.
         11    1    3    3    0    0  0.31303184186E+01 -0.30177791454E+01 -0.23744283044E+01  0.49541693962E+01  0.51100000000E-03 0. -1.
        -11    1    3    3    0    0 -0.97900794896E+01  0.56266797319E+01  0.14500247236E+02  0.18378311984E+02  0.51100000000E-03 0.  1.
         12    1    3    3    0    0 -0.65503377578E+01 -0.19713582474E+01  0.26322134479E+02  0.27196469286E+02  0.00000000000E+00 0. -1.
</event>
<event>
 7    1  0.2973028E-011  0.5052886E+02  0.7816164E-02  0.1300439E+00
        -11   -1    0    0    0    0  0.00000000000E+00  0.00000000000E+00  0.45593999997E+02  0.45594000000E+02  0.51100000000E-03 0. -1.
         11   -1    0    0    0    0 -0.00000000000E+00 -0.00000000000E+00 -0.45593999997E+02  0.45594000000E+02  0.51100000000E-03 0.  1.
    9900012    2    1    2    0    0 -0.39355792189E+01  0.37719783264E+02 -0.14659281910E+02  0.50528863519E+02  0.30000011152E+02 0.  0.
         12    1    1    2    0    0  0.39355792189E+01 -0.37719783264E+02  0.14659281910E+02  0.40659136481E+02  0.00000000000E+00 0. -1.
         11    1    3    3    0    0  0.25376857604E+00  0.68321085595E+01  0.33820021092E+01  0.76275844398E+01  0.51100000000E-03 0. -1.
        -11    1    3    3    0    0 -0.18890865840E+01  0.33742144595E+02 -0.19428510501E+02  0.38981636581E+02  0.51100000000E-03 0.  1.
        -12    1    3    3    0    0 -0.23002612110E+01 -0.28544698910E+01  0.13872264814E+01  0.39196424975E+01  0.00000000000E+00 0.  1.
</event>
<event>
 7    1  0.2973028E-011  0.5052888E+02  0.7816164E-02  0.1300439E+00
        -11   -1    0    0    0    0  0.00000000000E+00  0.00000000000E+00  0.45593999997E+02  0.45594000000E+02  0.51100000000E-03 0. -1.
         11   -1    0    0    0    0 -0.00000000000E+00 -0.00000000000E+00 -0.45593999997E+02  0.45594000000E+02  0.51100000000E-03 0.  1.
    9900012    2    1    2    0    0  0.17468913504E+02 -0.36494172967E+02  0.40219666512E+01  0.50528882753E+02  0.30000069616E+02 0.  0.
         12    1    1    2    0    0 -0.17468913504E+02  0.36494172967E+02 -0.40219666512E+01  0.40659117247E+02  0.00000000000E+00 0. -1.
         11    1    3    3    0    0  0.71728237094E+01 -0.28535139999E+02  0.32389555726E+01  0.29600581890E+02  0.51100000000E-03 0. -1.
        -11    1    3    3    0    0  0.36200296546E+01  0.49239677551E+01 -0.13596978596E+01  0.62608986323E+01  0.51100000000E-03 0.  1.
        -12    1    3    3    0    0  0.66760601403E+01 -0.12883000723E+02  0.21427089383E+01  0.14667402231E+02  0.00000000000E+00 0.  1.
</event>
<event>
 7    1  0.2973028E-011  0.5052885E+02  0.7816164E-02  0.1300439E+00
        -11   -1    0    0    0    0  0.00000000000E+00  0.00000000000E+00  0.45593999997E+02  0.45594000000E+02  0.51100000000E-03 0.  1.
         11   -1    0    0    0    0 -0.00000000000E+00 -0.00000000000E+00 -0.45593999997E+02  0.45594000000E+02  0.51100000000E-03 0. -1.
    9900012    2    1    2    0    0  0.22888577285E+02 -0.33525896874E+02 -0.23007727257E+01  0.50528852364E+02  0.29999977245E+02 0.  0.
         12    1    1    2    0    0 -0.22888577285E+02  0.33525896874E+02  0.23007727257E+01  0.40659147636E+02  0.00000000000E+00 0. -1.
         11    1    3    3    0    0  0.63481628889E+01 -0.21232638899E+01  0.46417464316E+01  0.81457493091E+01  0.51100000000E-03 0. -1.
        -11    1    3    3    0    0 -0.22606119961E+01 -0.12144703987E+02 -0.91590349994E+01  0.15378300423E+02  0.51100000000E-03 0.  1.
        -12    1    3    3    0    0  0.18801026392E+02 -0.19257928998E+02  0.22165158421E+01  0.27004802631E+02  0.00000000000E+00 0.  1.
</event>
<event>
 7    1  0.2973028E-011  0.5052884E+02  0.7816164E-02  0.1300439E+00
        -11   -1    0    0    0    0  0.00000000000E+00  0.00000000000E+00  0.45593999997E+02  0.45594000000E+02  0.51100000000E-03 0.  1.
         11   -1    0    0    0    0 -0.00000000000E+00 -0.00000000000E+00 -0.45593999997E+02  0.45594000000E+02  0.51100000000E-03 0. -1.
    9900012    2    1    2    0    0 -0.33340680639E+02  0.22960550748E+02  0.37919944884E+01  0.50528842380E+02  0.29999946898E+02 0.  0.
         12    1    1    2    0    0  0.33340680639E+02 -0.22960550748E+02 -0.37919944884E+01  0.40659157620E+02  0.00000000000E+00 0. -1.
         11    1    3    3    0    0 -0.89165151241E+01 -0.49222302242E+00 -0.66132685306E+01  0.11112238585E+02  0.51100000000E-03 0. -1.
        -11    1    3    3    0    0 -0.12384803883E+02  0.22643478027E+02  0.86671137964E+01  0.27225527106E+02  0.51100000000E-03 0.  1.
        -12    1    3    3    0    0 -0.12039361632E+02  0.80929574413E+00  0.17381492225E+01  0.12191076689E+02  0.00000000000E+00 0.  1.
</event>
<event>
 7    1  0.2973028E-011  0.5052886E+02  0.7816164E-02  0.1300439E+00
        -11   -1    0    0    0    0  0.00000000000E+00  0.00000000000E+00  0.45593999997E+02  0.45594000000E+02  0.51100000000E-03 0.  1.
         11   -1    0    0    0    0 -0.00000000000E+00 -0.00000000000E+00 -0.45593999997E+02  0.45594000000E+02  0.51100000000E-03 0. -1.
    9900012    2    1    2    0    0  0.16413260716E+02 -0.22011761613E+02  0.29987546478E+02  0.50528859326E+02  0.29999998406E+02 0.  0.
         12    1    1    2    0    0 -0.16413260716E+02  0.22011761613E+02 -0.29987546478E+02  0.40659140674E+02  0.00000000000E+00 0. -1.
         11    1    3    3    0    0 -0.52898552077E+01 -0.48450129986E+01  0.38439426055E+01  0.81383422200E+01  0.51100000000E-03 0. -1.
        -11    1    3    3    0    0  0.21855649396E+02 -0.19946295312E+02  0.20198666572E+02  0.35826111131E+02  0.51100000000E-03 0.  1.
         12    1    3    3    0    0 -0.15253347243E+00  0.27795466979E+01  0.59449372999E+01  0.65644059751E+01  0.00000000000E+00 0. -1.
</event>
<event>
 7    1  0.2973028E-011  0.5052884E+02  0.7816164E-02  0.1300439E+00
        -11   -1    0    0    0    0  0.00000000000E+00  0.00000000000E+00  0.45593999997E+02  0.45594000000E+02  0.51100000000E-03 0.  1.
         11   -1    0    0    0    0 -0.00000000000E+00 -0.00000000000E+00 -0.45593999997E+02  0.45594000000E+02  0.51100000000E-03 0. -1.
    9900012    2    1    2    0    0  0.26507671103E+02  0.24952792131E+02  0.18107150559E+02  0.50528839116E+02  0.29999936976E+02 0.  0.
         12    1    1    2    0    0 -0.26507671103E+02 -0.24952792131E+02 -0.18107150559E+02  0.40659160884E+02  0.00000000000E+00 0. -1.
         11    1    3    3    0    0  0.68099649341E+01  0.11938943558E+02  0.43873620621E+01  0.14427852986E+02  0.51100000000E-03 0. -1.
        -11    1    3    3    0    0  0.95408012716E+01 -0.50681510788E+01  0.10587512695E+02  0.15126416283E+02  0.51100000000E-03 0.  1.
        -12    1    3    3    0    0  0.10156904898E+02  0.18081999652E+02  0.31322758020E+01  0.20974569846E+02  0.00000000000E+00 0.  1.
</event>
<event>
 7    1  0.2973028E-011  0.5052888E+02  0.7816164E-02  0.1300439E+00
        -11   -1    0    0    0    0  0.00000000000E+00  0.00000000000E+00  0.45593999997E+02  0.45594000000E+02  0.51100000000E-03 0.  1.
         11   -1    0    0    0    0 -0.00000000000E+00 -0.00000000000E+00 -0.45593999997E+02  0.45594000000E+02  0.51100000000E-03 0. -1.
    9900012    2    1    2    0    0  0.86758858414E+01 -0.34450448499E+02  0.19775227185E+02  0.50528880394E+02  0.30000062446E+02 0.  0.
         12    1    1    2    0    0 -0.86758858414E+01  0.34450448499E+02 -0.19775227185E+02  0.40659119606E+02  0.00000000000E+00 0. -1.
         11    1    3    3    0    0 -0.34181504049E+01 -0.12159479013E+00  0.10110717004E+00  0.34218065995E+01  0.51100000000E-03 0. -1.
        -11    1    3    3    0    0  0.13043443428E+02 -0.25373540763E+02  0.23845170901E+02  0.37182524967E+02  0.51100000000E-03 0.  1.
        -12    1    3    3    0    0 -0.94940718185E+00 -0.89553129451E+01 -0.41710508861E+01  0.99245488279E+01  0.00000000000E+00 0.  1.
</event>
<event>
 7    1  0.2973028E-011  0.5052886E+02  0.7816164E-02  0.1300439E+00
        -11   -1    0    0    0    0  0.00000000000E+00  0.00000000000E+00  0.45593999997E+02  0.45594000000E+02  0.51100000000E-03 0.  1.
         11   -1    0    0    0    0 -0.00000000000E+00 -0.00000000000E+00 -0.45593999997E+02  0.45594000000E+02  0.51100000000E-03 0. -1.
    9900012    2    1    2    0    0 -0.37305002643E+00 -0.21621696425E+02  0.34431510965E+02  0.50528857486E+02  0.29999992815E+02 0.  0.
         12    1    1    2    0    0  0.37305002643E+00  0.21621696425E+02 -0.34431510965E+02  0.40659142514E+02  0.00000000000E+00 0. -1.
         11    1    3    3    0    0  0.53515267556E+01 -0.17631185293E+02  0.12331423183E+02  0.22171186965E+02  0.51100000000E-03 0. -1.
        -11    1    3    3    0    0 -0.30867515081E+00 -0.41238061503E+01  0.22545716114E+02  0.22921831796E+02  0.51100000000E-03 0.  1.
         12    1    3    3    0    0 -0.54159016313E+01  0.13329501865E+00 -0.44562833165E+00  0.54358387257E+01  0.00000000000E+00 0. -1.
</event>
<event>
 7    1  0.2973028E-011  0.5052885E+02  0.7816164E-02  0.1300439E+00
        -11   -1    0    0    0    0  0.00000000000E+00  0.00000000000E+00  0.45593999997E+02  0.45594000000E+02  0.51100000000E-03 0.  1.
         11   -1    0    0    0    0 -0.00000000000E+00 -0.00000000000E+00 -0.45593999997E+02  0.45594000000E+02  0.51100000000E-03 0. -1.
    9900012    2    1    2    0    0  0.55633612099E+01 -0.21041587779E+02  0.34343365396E+02  0.50528854031E+02  0.29999982312E+02 0.  0.
         12    1    1    2    0    0 -0.55633612099E+01  0.21041587779E+02 -0.34343365396E+02  0.40659145969E+02  0.00000000000E+00 0. -1.
         11    1    3    3    0    0 -0.59863342086E+01 -0.68808717465E+01  0.31149465884E+01  0.96377116454E+01  0.51100000000E-03 0. -1.
        -11    1    3    3    0    0  0.15829376386E+02 -0.14676746941E+02  0.22640547638E+02  0.31282110784E+02  0.51100000000E-03 0.  1.
        -12    1    3    3    0    0 -0.42796809674E+01  0.51603090834E+00  0.85878711700E+01  0.96090316012E+01  0.00000000000E+00 0.  1.
</event>
<event>
 7    1  0.2973028E-011  0.5052882E+02  0.7816164E-02  0.1300439E+00
        -11   -1    0    0    0    0  0.00000000000E+00  0.00000000000E+00  0.45593999997E+02  0.45594000000E+02  0.51100000000E-03 0. -1.
         11   -1    0    0    0    0 -0.00000000000E+00 -0.00000000000E+00 -0.45593999997E+02  0.45594000000E+02  0.51100000000E-03 0.  1.
    9900012    2    1    2    0    0 -0.15477116448E+02 -0.14959896410E+02 -0.34493896260E+02  0.50528824979E+02  0.29999894007E+02 0.  0.
         12    1    1    2    0    0  0.15477116448E+02  0.14959896410E+02  0.34493896260E+02  0.40659175021E+02  0.00000000000E+00 0. -1.
         11    1    3    3    0    0 -0.58971234316E+01  0.60618950220E+01  0.41203474564E+00  0.84671369966E+01  0.51100000000E-03 0. -1.
        -11    1    3    3    0    0 -0.63880588230E+01 -0.96963399664E+01 -0.15496162536E+02  0.19363815685E+02  0.51100000000E-03 0.  1.
         12    1    3    3    0    0 -0.31919341939E+01 -0.11325451466E+02 -0.19409768470E+02  0.22697872298E+02  0.00000000000E+00 0. -1.
</event>
<event>
 7    1  0.2973028E-011  0.5052885E+02  0.7816164E-02  0.1300439E+00
        -11   -1    0    0    0    0  0.00000000000E+00  0.00000000000E+00  0.45593999997E+02  0.45594000000E+02  0.51100000000E-03 0. -1.
         11   -1    0    0    0    0 -0.00000000000E+00 -0.00000000000E+00 -0.45593999997E+02  0.45594000000E+02  0.51100000000E-03 0.  1.
    9900012    2    1    2    0    0 -0.96070312499E+01  0.12883901370E+02 -0.37348041042E+02  0.50528854244E+02  0.29999982960E+02 0.  0.
         12    1    1    2    0    0  0.96070312499E+01 -0.12883901370E+02  0.37348041042E+02  0.40659145756E+02  0.00000000000E+00 0. -1.
         11    1    3    3    0    0  0.46576463321E+01  0.68219494378E+01  0.72383001878E+00  0.82919595781E+01  0.51100000000E-03 0. -1.
        -11    1    3    3    0    0 -0.32058794327E+01  0.14095046425E+01 -0.21469330562E+02  0.21753080732E+02  0.51100000000E-03 0.  1.
         12    1    3    3    0    0 -0.11058798149E+02  0.46524472899E+01 -0.16602540498E+02  0.20483813934E+02  0.00000000000E+00 0. -1.
</event>
<event>
 7    1  0.2973028E-011  0.5052886E+02  0.7816164E-02  0.1300439E+00
        -11   -1    0    0    0    0  0.00000000000E+00  0.00000000000E+00  0.45593999997E+02  0.45594000000E+02  0.51100000000E-03 0. -1.
         11   -1    0    0    0    0 -0.00000000000E+00 -0.00000000000E+00 -0.45593999997E+02  0.45594000000E+02  0.51100000000E-03 0.  1.
    9900012    2    1    2    0    0 -0.78033647555E+01 -0.16531136239E+02 -0.36317969295E+02  0.50528857601E+02  0.29999993165E+02 0.  0.
         12    1    1    2    0    0  0.78033647555E+01  0.16531136239E+02  0.36317969295E+02  0.40659142399E+02  0.00000000000E+00 0. -1.
         11    1    3    3    0    0 -0.32767774088E+01 -0.97984172590E+00 -0.46130838150E+01  0.57426389874E+01  0.51100000000E-03 0. -1.
        -11    1    3    3    0    0 -0.14230833924E+02 -0.43823701560E+01 -0.23630220461E+02  0.27930433610E+02  0.51100000000E-03 0.  1.
        -12    1    3    3    0    0  0.97042465771E+01 -0.11168924357E+02 -0.80746650194E+01  0.16855785004E+02  0.00000000000E+00 0.  1.
</event>
<event>
 7    1  0.2973028E-011  0.5052888E+02  0.7816164E-02  0.1300439E+00
        -11   -1    0    0    0    0  0.00000000000E+00  0.00000000000E+00  0.45593999997E+02  0.45594000000E+02  0.51100000000E-03 0.  1.
         11   -1    0    0    0    0 -0.00000000000E+00 -0.00000000000E+00 -0.45593999997E+02  0.45594000000E+02  0.51100000000E-03 0. -1.
    9900012    2    1    2    0    0 -0.49491429239E+01 -0.40164599405E+02  0.39338197354E+01  0.50528880497E+02  0.30000062758E+02 0.  0.
         12    1    1    2    0    0  0.49491429239E+01  0.40164599405E+02 -0.39338197354E+01  0.40659119503E+02  0.00000000000E+00 0. -1.
         11    1    3    3    0    0  0.41523690491E+01 -0.27245933945E+02  0.25212628546E+01  0.27675618366E+02  0.51100000000E-03 0. -1.
        -11    1    3    3    0    0 -0.97855373779E+01 -0.79108860264E+01 -0.59529620950E+01  0.13920367002E+02  0.51100000000E-03 0.  1.
        -12    1    3    3    0    0  0.68402540483E+00 -0.50077794334E+01  0.73655189758E+01  0.89328951293E+01  0.00000000000E+00 0.  1.
</event>
<event>
 7    1  0.2973028E-011  0.5052886E+02  0.7816164E-02  0.1300439E+00
        -11   -1    0    0    0    0  0.00000000000E+00  0.00000000000E+00  0.45593999997E+02  0.45594000000E+02  0.51100000000E-03 0.  1.
         11   -1    0    0    0    0 -0.00000000000E+00 -0.00000000000E+00 -0.45593999997E+02  0.45594000000E+02  0.51100000000E-03 0. -1.
    9900012    2    1    2    0    0  0.58021510482E+01  0.35956635397E+02  0.18072660785E+02  0.50528860146E+02  0.30000000899E+02 0.  0.
         12    1    1    2    0    0 -0.58021510482E+01 -0.35956635397E+02 -0.18072660785E+02  0.40659139854E+02  0.00000000000E+00 0. -1.
         11    1    3    3    0    0  0.14194425984E+02  0.84055217038E+01  0.85311871546E+01  0.18571905628E+02  0.51100000000E-03 0. -1.
        -11    1    3    3    0    0  0.15444618709E+01  0.11489172522E+02  0.41869145812E+01  0.12325449350E+02  0.51100000000E-03 0.  1.
         12    1    3    3    0    0 -0.99367368063E+01  0.16061941171E+02  0.53545590493E+01  0.19631505168E+02  0.00000000000E+00 0. -1.
</event>
<event>
 7    1  0.2973028E-011  0.5052888E+02  0.7816164E-02  0.1300439E+00
        -11   -1    0    0    0    0  0.00000000000E+00  0.00000000000E+00  0.45593999997E+02  0.45594000000E+02  0.51100000000E-03 0. -1.
         11   -1    0    0    0    0 -0.00000000000E+00 -0.00000000000E+00 -0.45593999997E+02  0.45594000000E+02  0.51100000000E-03 0.  1.
    9900012    2    1    2    0    0 -0.24569362196E+02 -0.17576769606E+01 -0.32348430722E+02  0.50528881008E+02  0.30000064312E+02 0.  0.
         12    1    1    2    0    0  0.24569362196E+02  0.17576769606E+01  0.32348430722E+02  0.40659118992E+02  0.00000000000E+00 0. -1.
         11    1    3    3    0    0 -0.16989382863E+02  0.17107247250E+00 -0.18100884469E+01  0.17086392724E+02  0.51100000000E-03 0. -1.
        -11    1    3    3    0    0 -0.72924955685E+01 -0.60099661714E+01 -0.22995817761E+02  0.24861774268E+02  0.51100000000E-03 0.  1.
        -12    1    3    3    0    0 -0.28748376440E+00  0.40812167383E+01 -0.75425245139E+01  0.85807140159E+01  0.00000000000E+00 0.  1.
</event>
<event>
 7    1  0.2973028E-011  0.5052892E+02  0.7816164E-02  0.1300439E+00
        -11   -1    0    0    0    0  0.00000000000E+00  0.00000000000E+00  0.45593999997E+02  0.45594000000E+02  0.51100000000E-03 0. -1.
         11   -1    0    0    0    0 -0.00000000000E+00 -0.00000000000E+00 -0.45593999997E+02  0.45594000000E+02  0.51100000000E-03 0.  1.
    9900012    2    1    2    0    0  0.16316195732E+02 -0.52295406067E+01 -0.36872674317E+02  0.50528924145E+02  0.30000195430E+02 0.  0.
         12    1    1    2    0    0 -0.16316195732E+02  0.52295406067E+01  0.36872674317E+02  0.40659075855E+02  0.00000000000E+00 0. -1.
         11    1    3    3    0    0 -0.66575266069E+01  0.34921368527E+01 -0.15595366570E+02  0.17312802749E+02  0.51100000000E-03 0. -1.
        -11    1    3    3    0    0  0.13012920137E+02 -0.48544057114E+01 -0.16340498987E+02  0.21445588187E+02  0.51100000000E-03 0.  1.
         12    1    3    3    0    0  0.99608022014E+01 -0.38672717480E+01 -0.49368087604E+01  0.11770533208E+02  0.00000000000E+00 0. -1.
</event>
<event>
 7    1  0.2973028E-011  0.5052887E+02  0.7816164E-02  0.1300439E+00
        -11   -1    0    0    0    0  0.00000000000E+00  0.00000000000E+00  0.45593999997E+02  0.45594000000E+02  0.51100000000E-03 0. -1.
         11   -1    0    0    0    0 -0.00000000000E+00 -0.00000000000E+00 -0.45593999997E+02  0.45594000000E+02  0.51100000000E-03 0.  1.
    9900012    2    1    2    0    0  0.14926297043E+02  0.30606562906E+02 -0.22217314282E+02  0.50528867075E+02  0.30000021961E+02 0.  0.
         12    1    1    2    0    0 -0.14926297043E+02 -0.30606562906E+02  0.22217314282E+02  0.40659132925E+02  0.00000000000E+00 0. -1.
         11    1    3    3    0    0  0.14309463342E+02  0.22349692095E+02 -0.95663164091E+01  0.28209641752E+02  0.51100000000E-03 0.  1.
        -11    1    3    3    0    0  0.50706904215E+01 -0.15481438810E+01 -0.98588112602E+01  0.11193963130E+02  0.51100000000E-03 0. -1.
         12    1    3    3    0    0 -0.44538567202E+01  0.98050146920E+01 -0.27921866126E+01  0.11125262194E+02  0.00000000000E+00 0. -1.
</event>
<event>
 7    1  0.2973028E-011  0.5052886E+02  0.7816164E-02  0.1300439E+00
        -11   -1    0    0    0    0  0.00000000000E+00  0.00000000000E+00  0.45593999997E+02  0.45594000000E+02  0.51100000000E-03 0. -1.
         11   -1    0    0    0    0 -0.00000000000E+00 -0.00000000000E+00 -0.45593999997E+02  0.45594000000E+02  0.51100000000E-03 0.  1.
    9900012    2    1    2    0    0 -0.23586567608E+02  0.12324525656E+02  0.30739969792E+02  0.50528857768E+02  0.29999993672E+02 0.  0.
         12    1    1    2    0    0  0.23586567608E+02 -0.12324525656E+02 -0.30739969792E+02  0.40659142232E+02  0.00000000000E+00 0. -1.
         11    1    3    3    0    0 -0.16600670817E+02  0.43335430751E+00  0.11634110150E+02  0.20276158087E+02  0.51100000000E-03 0. -1.
        -11    1    3    3    0    0 -0.19721769843E+01  0.12606217383E+02  0.26455930405E+01  0.13030938629E+02  0.51100000000E-03 0.  1.
        -12    1    3    3    0    0 -0.50137198065E+01 -0.71504603377E+00  0.16460266602E+02  0.17221761052E+02  0.00000000000E+00 0.  1.
</event>
<event>
 7    1  0.2973028E-011  0.5052887E+02  0.7816164E-02  0.1300439E+00
        -11   -1    0    0    0    0  0.00000000000E+00  0.00000000000E+00  0.45593999997E+02  0.45594000000E+02  0.51100000000E-03 0.  1.
         11   -1    0    0    0    0 -0.00000000000E+00 -0.00000000000E+00 -0.45593999997E+02  0.45594000000E+02  0.51100000000E-03 0. -1.
    9900012    2    1    2    0    0 -0.29657766012E+02  0.15064219714E+01  0.27772516563E+02  0.50528867345E+02  0.30000022782E+02 0.  0.
         12    1    1    2    0    0  0.29657766012E+02 -0.15064219714E+01 -0.27772516563E+02  0.40659132655E+02  0.00000000000E+00 0. -1.
         11    1    3    3    0    0  0.16252246753E+01  0.68983194296E+01  0.36497208870E+01  0.79717393969E+01  0.51100000000E-03 0. -1.
        -11    1    3    3    0    0 -0.23478720798E+02 -0.44584465015E+01  0.90431821852E+01  0.25552049229E+02  0.51100000000E-03 0.  1.
        -12    1    3    3    0    0 -0.78042698898E+01 -0.93345095674E+00  0.15079613491E+02  0.17005078719E+02  0.00000000000E+00 0.  1.
</event>
<event>
 7    1  0.2973028E-011  0.5052886E+02  0.7816164E-02  0.1300439E+00
        -11   -1    0    0    0    0  0.00000000000E+00  0.00000000000E+00  0.45593999997E+02  0.45594000000E+02  0.51100000000E-03 0.  1.
         11   -1    0    0    0    0 -0.00000000000E+00 -0.00000000000E+00 -0.45593999997E+02  0.45594000000E+02  0.51100000000E-03 0. -1.
    9900012    2    1    2    0    0 -0.27052921006E+02  0.12000614467E+02  0.27879923245E+02  0.50528863232E+02  0.30000010280E+02 0.  0.
         12    1    1    2    0    0  0.27052921006E+02 -0.12000614467E+02 -0.27879923245E+02  0.40659136768E+02  0.00000000000E+00 0. -1.
         11    1    3    3    0    0 -0.40764542412E+01 -0.10845337254E+01 -0.39097159005E+01  0.57514842663E+01  0.51100000000E-03 0. -1.
        -11    1    3    3    0    0 -0.14176556546E+02  0.16791197273E+02  0.22693343101E+02  0.31589664175E+02  0.51100000000E-03 0.  1.
        -12    1    3    3    0    0 -0.87999102191E+01 -0.37060490808E+01  0.90962960449E+01  0.13187714790E+02  0.00000000000E+00 0.  1.
</event>
<event>
 7    1  0.2973028E-011  0.5052888E+02  0.7816164E-02  0.1300439E+00
        -11   -1    0    0    0    0  0.00000000000E+00  0.00000000000E+00  0.45593999997E+02  0.45594000000E+02  0.51100000000E-03 0.  1.
         11   -1    0    0    0    0 -0.00000000000E+00 -0.00000000000E+00 -0.45593999997E+02  0.45594000000E+02  0.51100000000E-03 0. -1.
    9900012    2    1    2    0    0 -0.19409730469E+02  0.27535135388E+02  0.22764953604E+02  0.50528875190E+02  0.30000046629E+02 0.  0.
         12    1    1    2    0    0  0.19409730469E+02 -0.27535135388E+02 -0.22764953604E+02  0.40659124810E+02  0.00000000000E+00 0. -1.
         11    1    3    3    0    0 -0.60950175449E+01  0.42616803871E+01  0.16239593028E+02  0.17861566017E+02  0.51100000000E-03 0. -1.
        -11    1    3    3    0    0 -0.14613646187E+02  0.23181202764E+02  0.98320066558E+01  0.29113487795E+02  0.51100000000E-03 0.  1.
         12    1    3    3    0    0  0.12989332631E+01  0.92252236948E-01 -0.33066460795E+01  0.35538213788E+01  0.00000000000E+00 0. -1.
</event>
<event>
 7    1  0.2973028E-011  0.5052888E+02  0.7816164E-02  0.1300439E+00
        -11   -1    0    0    0    0  0.00000000000E+00  0.00000000000E+00  0.45593999997E+02  0.45594000000E+02  0.51100000000E-03 0.  1.
         11   -1    0    0    0    0 -0.00000000000E+00 -0.00000000000E+00 -0.45593999997E+02  0.45594000000E+02  0.51100000000E-03 0. -1.
    9900012    2    1    2    0    0 -0.79929282289E+01 -0.13637470745E+02  0.37460595222E+02  0.50528884117E+02  0.30000073762E+02 0.  0.
         12    1    1    2    0    0  0.79929282289E+01  0.13637470745E+02 -0.37460595222E+02  0.40659115883E+02  0.00000000000E+00 0. -1.
         11    1    3    3    0    0 -0.12944137112E+02 -0.15956549467E+02  0.14668437417E+02  0.25245300810E+02  0.51100000000E-03 0. -1.
        -11    1    3    3    0    0  0.24779966749E+01  0.19192112316E+01  0.22549773030E+02  0.22766556684E+02  0.51100000000E-03 0.  1.
        -12    1    3    3    0    0  0.24732122086E+01  0.39986749007E+00  0.24238477414E+00  0.25170266223E+01  0.00000000000E+00 0.  1.
</event>
<event>
 7    1  0.2973028E-011  0.5052889E+02  0.7816164E-02  0.1300439E+00
        -11   -1    0    0    0    0  0.00000000000E+00  0.00000000000E+00  0.45593999997E+02  0.45594000000E+02  0.51100000000E-03 0.  1.
         11   -1    0    0    0    0 -0.00000000000E+00 -0.00000000000E+00 -0.45593999997E+02  0.45594000000E+02  0.51100000000E-03 0. -1.
    9900012    2    1    2    0    0  0.54403008609E+01 -0.14964706694E+02  0.37411550711E+02  0.50528887288E+02  0.30000083401E+02 0.  0.
         12    1    1    2    0    0 -0.54403008609E+01  0.14964706694E+02 -0.37411550711E+02  0.40659112712E+02  0.00000000000E+00 0. -1.
         11    1    3    3    0    0 -0.39525228316E+01 -0.10262204587E+02  0.23673447268E+01  0.11248982223E+02  0.51100000000E-03 0. -1.
        -11    1    3    3    0    0 -0.13483672273E+01 -0.21311393421E+01  0.22188388359E+02  0.22331243299E+02  0.51100000000E-03 0.  1.
         12    1    3    3    0    0  0.10741190920E+02 -0.25713627648E+01  0.12855817626E+02  0.16948661766E+02  0.00000000000E+00 0. -1.
</event>
<event>
 7    1  0.2973028E-011  0.5052886E+02  0.7816164E-02  0.1300439E+00
        -11   -1    0    0    0    0  0.00000000000E+00  0.00000000000E+00  0.45593999997E+02  0.45594000000E+02  0.51100000000E-03 0. -1.
         11   -1    0    0    0    0 -0.00000000000E+00 -0.00000000000E+00 -0.45593999997E+02  0.45594000000E+02  0.51100000000E-03 0.  1.
    9900012    2    1    2    0    0  0.41322645097E+01  0.18065442650E+02 -0.36190190988E+02  0.50528858938E+02  0.29999997229E+02 0.  0.
         12    1    1    2    0    0 -0.41322645097E+01 -0.18065442650E+02  0.36190190988E+02  0.40659141062E+02  0.00000000000E+00 0. -1.
         11    1    3    3    0    0  0.42672306602E+00  0.26426600191E+01  0.46624416364E+01  0.53762539770E+01  0.51100000000E-03 0. -1.
        -11    1    3    3    0    0  0.56613978639E+01  0.10126344554E+02 -0.16605329807E+02  0.20256634914E+02  0.51100000000E-03 0.  1.
         12    1    3    3    0    0 -0.19558564202E+01  0.52964380769E+01 -0.24247302818E+02  0.24895970047E+02  0.00000000000E+00 0. -1.
</event>
<event>
 7    1  0.2973028E-011  0.5052873E+02  0.7816164E-02  0.1300439E+00
        -11   -1    0    0    0    0  0.00000000000E+00  0.00000000000E+00  0.45593999997E+02  0.45594000000E+02  0.51100000000E-03 0.  1.
         11   -1    0    0    0    0 -0.00000000000E+00 -0.00000000000E+00 -0.45593999997E+02  0.45594000000E+02  0.51100000000E-03 0. -1.
    9900012    2    1    2    0    0 -0.29444701533E+02  0.23635080699E+02 -0.15085394899E+02  0.50528725200E+02  0.29999590714E+02 0.  0.
         12    1    1    2    0    0  0.29444701533E+02 -0.23635080699E+02  0.15085394899E+02  0.40659274800E+02  0.00000000000E+00 0. -1.
         11    1    3    3    0    0 -0.19740620565E+02  0.23903149223E+01  0.14486850755E+01  0.19937512243E+02  0.51100000000E-03 0. -1.
        -11    1    3    3    0    0 -0.11097291008E+02  0.11858868284E+02 -0.10801320006E+02  0.19505156724E+02  0.51100000000E-03 0.  1.
         12    1    3    3    0    0  0.13932100390E+01  0.93858974924E+01 -0.57327599691E+01  0.11086056234E+02  0.00000000000E+00 0. -1.
</event>
<event>
 7    1  0.2973028E-011  0.5052886E+02  0.7816164E-02  0.1300439E+00
        -11   -1    0    0    0    0  0.00000000000E+00  0.00000000000E+00  0.45593999997E+02  0.45594000000E+02  0.51100000000E-03 0.  1.
         11   -1    0    0    0    0 -0.00000000000E+00 -0.00000000000E+00 -0.45593999997E+02  0.45594000000E+02  0.51100000000E-03 0. -1.
    9900012    2    1    2    0    0 -0.40447951833E+02 -0.24409454597E+01  0.33423004868E+01  0.50528855951E+02  0.29999988149E+02 0.  0.
         12    1    1    2    0    0  0.40447951833E+02  0.24409454597E+01 -0.33423004868E+01  0.40659144049E+02  0.00000000000E+00 0. -1.
         11    1    3    3    0    0 -0.79824091617E+01  0.68887422578E+01  0.68212711798E+01  0.12558000107E+02  0.51100000000E-03 0. -1.
        -11    1    3    3    0    0 -0.30567868580E+02 -0.43610975461E+01 -0.69105464737E+01  0.31641261261E+02  0.51100000000E-03 0.  1.
        -12    1    3    3    0    0 -0.18976740913E+01 -0.49685901714E+01  0.34315757807E+01  0.63295945831E+01  0.00000000000E+00 0.  1.
</event>
<event>
 7    1  0.2973028E-011  0.5052888E+02  0.7816164E-02  0.1300439E+00
        -11   -1    0    0    0    0  0.00000000000E+00  0.00000000000E+00  0.45593999997E+02  0.45594000000E+02  0.51100000000E-03 0. -1.
         11   -1    0    0    0    0 -0.00000000000E+00 -0.00000000000E+00 -0.45593999997E+02  0.45594000000E+02  0.51100000000E-03 0.  1.
    9900012    2    1    2    0    0 -0.36834142018E+02 -0.17214463626E+02  0.26820643307E+00  0.50528884038E+02  0.30000073521E+02 0.  0.
         12    1    1    2    0    0  0.36834142018E+02  0.17214463626E+02 -0.26820643307E+00  0.40659115962E+02  0.00000000000E+00 0. -1.
         11    1    3    3    0    0 -0.22027868077E+02 -0.11657671713E+02  0.12803759229E+02  0.28019003059E+02  0.51100000000E-03 0. -1.
        -11    1    3    3    0    0 -0.49884021642E+01 -0.38830701360E+01 -0.10633034002E+02  0.12370278985E+02  0.51100000000E-03 0.  1.
        -12    1    3    3    0    0 -0.98178717769E+01 -0.16737217766E+01 -0.19025187940E+01  0.10139601993E+02  0.00000000000E+00 0.  1.
</event>
<event>
 7    1  0.2973028E-011  0.5052887E+02  0.7816164E-02  0.1300439E+00
        -11   -1    0    0    0    0  0.00000000000E+00  0.00000000000E+00  0.45593999997E+02  0.45594000000E+02  0.51100000000E-03 0. -1.
         11   -1    0    0    0    0 -0.00000000000E+00 -0.00000000000E+00 -0.45593999997E+02  0.45594000000E+02  0.51100000000E-03 0.  1.
    9900012    2    1    2    0    0 -0.13246411303E+02 -0.73910737493E+01 -0.37723596784E+02  0.50528866489E+02  0.30000020179E+02 0.  0.
         12    1    1    2    0    0  0.13246411303E+02  0.73910737493E+01  0.37723596784E+02  0.40659133511E+02  0.00000000000E+00 0. -1.
         11    1    3    3    0    0 -0.12420376586E+02 -0.58057418018E+01 -0.80494170551E+01  0.15898600806E+02  0.51100000000E-03 0. -1.
        -11    1    3    3    0    0  0.72793316102E+01 -0.51007944903E+01 -0.16956367116E+02  0.19144846805E+02  0.51100000000E-03 0.  1.
         12    1    3    3    0    0 -0.81053663274E+01  0.35154625428E+01 -0.12717812612E+02  0.15485418878E+02  0.00000000000E+00 0. -1.
</event>
<event>
 7    1  0.2973028E-011  0.5052886E+02  0.7816164E-02  0.1300439E+00
        -11   -1    0    0    0    0  0.00000000000E+00  0.00000000000E+00  0.45593999997E+02  0.45594000000E+02  0.51100000000E-03 0. -1.
         11   -1    0    0    0    0 -0.00000000000E+00 -0.00000000000E+00 -0.45593999997E+02  0.45594000000E+02  0.51100000000E-03 0.  1.
    9900012    2    1    2    0    0  0.93661476137E+01 -0.24143652435E+01 -0.39491916981E+02  0.50528863420E+02  0.30000010850E+02 0.  0.
         12    1    1    2    0    0 -0.93661476137E+01  0.24143652435E+01  0.39491916981E+02  0.40659136580E+02  0.00000000000E+00 0. -1.
         11    1    3    3    0    0  0.43414709057E+01  0.49752770111E+01  0.11552783409E+01  0.67034632294E+01  0.51100000000E-03 0. -1.
        -11    1    3    3    0    0  0.55503642669E+00  0.17671795708E+01 -0.25516290079E+02  0.25583433091E+02  0.51100000000E-03 0.  1.
         12    1    3    3    0    0  0.44696402813E+01 -0.91568218253E+01 -0.15130905243E+02  0.18241967099E+02  0.00000000000E+00 0. -1.
</event>
<event>
 7    1  0.2973028E-011  0.5052879E+02  0.7816164E-02  0.1300439E+00
        -11   -1    0    0    0    0  0.00000000000E+00  0.00000000000E+00  0.45593999997E+02  0.45594000000E+02  0.51100000000E-03 0. -1.
         11   -1    0    0    0    0 -0.00000000000E+00 -0.00000000000E+00 -0.45593999997E+02  0.45594000000E+02  0.51100000000E-03 0.  1.
    9900012    2    1    2    0    0  0.36793524304E+02 -0.14227842395E+02 -0.98476457977E+01  0.50528793691E+02  0.29999798903E+02 0.  0.
         12    1    1    2    0    0 -0.36793524304E+02  0.14227842395E+02  0.98476457977E+01  0.40659206309E+02  0.00000000000E+00 0. -1.
         11    1    3    3    0    0  0.92015759384E+01 -0.68629389758E+01  0.73714144983E+01  0.13642092329E+02  0.51100000000E-03 0. -1.
        -11    1    3    3    0    0  0.88673830840E+01 -0.58682434134E+01 -0.14387172818E+02  0.17890151075E+02  0.51100000000E-03 0.  1.
         12    1    3    3    0    0  0.18724565281E+02 -0.14966600059E+01 -0.28318874779E+01  0.18996550288E+02  0.00000000000E+00 0. -1.
</event>
<event>
 7    1  0.2973028E-011  0.5052886E+02  0.7816164E-02  0.1300439E+00
        -11   -1    0    0    0    0  0.00000000000E+00  0.00000000000E+00  0.45593999997E+02  0.45594000000E+02  0.51100000000E-03 0. -1.
         11   -1    0    0    0    0 -0.00000000000E+00 -0.00000000000E+00 -0.45593999997E+02  0.45594000000E+02  0.51100000000E-03 0.  1.
    9900012    2    1    2    0    0 -0.14672542002E+02 -0.23712757666E-01 -0.37919407626E+02  0.50528861719E+02  0.30000005681E+02 0.  0.
         12    1    1    2    0    0  0.14672542002E+02  0.23712757666E-01  0.37919407626E+02  0.40659138281E+02  0.00000000000E+00 0. -1.
         11    1    3    3    0    0 -0.23408953380E+01  0.44893069098E+01 -0.22346527304E+01  0.55341973764E+01  0.51100000000E-03 0. -1.
        -11    1    3    3    0    0 -0.14092423760E+02 -0.49142350973E+01 -0.38701026729E+02  0.41479098160E+02  0.51100000000E-03 0.  1.
        -12    1    3    3    0    0  0.17607770961E+01  0.40121542982E+00  0.30162718342E+01  0.35155661822E+01  0.00000000000E+00 0.  1.
</event>
<event>
 7    1  0.2973028E-011  0.5052886E+02  0.7816164E-02  0.1300439E+00
        -11   -1    0    0    0    0  0.00000000000E+00  0.00000000000E+00  0.45593999997E+02  0.45594000000E+02  0.51100000000E-03 0.  1.
         11   -1    0    0    0    0 -0.00000000000E+00 -0.00000000000E+00 -0.45593999997E+02  0.45594000000E+02  0.51100000000E-03 0. -1.
    9900012    2    1    2    0    0 -0.34306475178E+02 -0.19776728185E+02 -0.92256227473E+01  0.50528864103E+02  0.30000012927E+02 0.  0.
         12    1    1    2    0    0  0.34306475178E+02  0.19776728185E+02  0.92256227473E+01  0.40659135897E+02  0.00000000000E+00 0. -1.
         11    1    3    3    0    0 -0.92377072231E+01 -0.48840425043E+01 -0.16338803563E+02  0.19394473648E+02  0.51100000000E-03 0. -1.
        -11    1    3    3    0    0 -0.18188990424E+02 -0.14696402759E+02  0.61941629247E+01  0.24190727176E+02  0.51100000000E-03 0.  1.
         12    1    3    3    0    0 -0.68797775305E+01 -0.19628292175E+00  0.91901789134E+00  0.69436632795E+01  0.00000000000E+00 0. -1.
</event>
<event>
 7    1  0.2973028E-011  0.5052886E+02  0.7816164E-02  0.1300439E+00
        -11   -1    0    0    0    0  0.00000000000E+00  0.00000000000E+00  0.45593999997E+02  0.45594000000E+02  0.51100000000E-03 0. -1.
         11   -1    0    0    0    0 -0.00000000000E+00 -0.00000000000E+00 -0.45593999997E+02  0.45594000000E+02  0.51100000000E-03 0.  1.
    9900012    2    1    2    0    0  0.34953020366E+02 -0.20770342344E+02 -0.21226197367E+00  0.50528858236E+02  0.29999995096E+02 0.  0.
         12    1    1    2    0    0 -0.34953020366E+02  0.20770342344E+02  0.21226197367E+00  0.40659141764E+02  0.00000000000E+00 0. -1.
         11    1    3    3    0    0  0.17747189861E+02 -0.41399020129E+01 -0.62646259373E+01  0.19270367797E+02  0.51100000000E-03 0. -1.
        -11    1    3    3    0    0  0.11369301566E+01 -0.11368196949E+02  0.84097535897E+01  0.14186347936E+02  0.51100000000E-03 0.  1.
        -12    1    3    3    0    0  0.16068900349E+02 -0.52622433828E+01 -0.23573896261E+01  0.17072142504E+02  0.00000000000E+00 0.  1.
</event>
<event>
 7    1  0.2973028E-011  0.5052889E+02  0.7816164E-02  0.1300439E+00
        -11   -1    0    0    0    0  0.00000000000E+00  0.00000000000E+00  0.45593999997E+02  0.45594000000E+02  0.51100000000E-03 0.  1.
         11   -1    0    0    0    0 -0.00000000000E+00 -0.00000000000E+00 -0.45593999997E+02  0.45594000000E+02  0.51100000000E-03 0. -1.
    9900012    2    1    2    0    0  0.17174537841E+02  0.31817864967E+02  0.18596296840E+02  0.50528886172E+02  0.30000080009E+02 0.  0.
         12    1    1    2    0    0 -0.17174537841E+02 -0.31817864967E+02 -0.18596296840E+02  0.40659113828E+02  0.00000000000E+00 0. -1.
         11    1    3    3    0    0  0.77215902607E+01 -0.17327320432E+01  0.23835171885E+01  0.82647728908E+01  0.51100000000E-03 0. -1.
        -11    1    3    3    0    0  0.51329112045E+01  0.21808084280E+02  0.19080218750E+02  0.29427777103E+02  0.51100000000E-03 0.  1.
        -12    1    3    3    0    0  0.43200363755E+01  0.11742512730E+02 -0.28674390986E+01  0.12836336178E+02  0.00000000000E+00 0.  1.
</event>
<event>
 7    1  0.2973028E-011  0.5052886E+02  0.7816164E-02  0.1300439E+00
        -11   -1    0    0    0    0  0.00000000000E+00  0.00000000000E+00  0.45593999997E+02  0.45594000000E+02  0.51100000000E-03 0.  1.
         11   -1    0    0    0    0 -0.00000000000E+00 -0.00000000000E+00 -0.45593999997E+02  0.45594000000E+02  0.51100000000E-03 0. -1.
    9900012    2    1    2    0    0 -0.36722333339E+02 -0.14357170526E+02 -0.99250939640E+01  0.50528860786E+02  0.30000002846E+02 0.  0.
         12    1    1    2    0    0  0.36722333339E+02  0.14357170526E+02  0.99250939640E+01  0.40659139214E+02  0.00000000000E+00 0. -1.
         11    1    3    3    0    0 -0.58109026935E+01  0.78806375342E+00 -0.84436882228E+01  0.10280248327E+02  0.51100000000E-03 0. -1.
        -11    1    3    3    0    0 -0.20996122593E+02 -0.52444246569E+01  0.82805440318E+01  0.23171287484E+02  0.51100000000E-03 0.  1.
        -12    1    3    3    0    0 -0.99153080527E+01 -0.99008096228E+01 -0.97619497730E+01  0.17077324976E+02  0.00000000000E+00 0.  1.
</event>
<event>
 7    1  0.2973028E-011  0.5052886E+02  0.7816164E-02  0.1300439E+00
        -11   -1    0    0    0    0  0.00000000000E+00  0.00000000000E+00  0.45593999997E+02  0.45594000000E+02  0.51100000000E-03 0.  1.
         11   -1    0    0    0    0 -0.00000000000E+00 -0.00000000000E+00 -0.45593999997E+02  0.45594000000E+02  0.51100000000E-03 0. -1.
    9900012    2    1    2    0    0  0.22434000309E+02  0.33022430350E+02  0.77071833203E+01  0.50528856492E+02  0.29999989794E+02 0.  0.
         12    1    1    2    0    0 -0.22434000309E+02 -0.33022430350E+02 -0.77071833203E+01  0.40659143508E+02  0.00000000000E+00 0. -1.
         11    1    3    3    0    0  0.10222833524E+02  0.29280799326E+02  0.13976429743E+02  0.34017820669E+02  0.51100000000E-03 0. -1.
        -11    1    3    3    0    0  0.37851591712E+01 -0.26579678086E+01 -0.11983100741E+01  0.47778834350E+01  0.51100000000E-03 0.  1.
         12    1    3    3    0    0  0.84260076138E+01  0.63995988325E+01 -0.50709363491E+01  0.11733152389E+02  0.00000000000E+00 0. -1.
</event>
<event>
 7    1  0.2973028E-011  0.5052886E+02  0.7816164E-02  0.1300439E+00
        -11   -1    0    0    0    0  0.00000000000E+00  0.00000000000E+00  0.45593999997E+02  0.45594000000E+02  0.51100000000E-03 0.  1.
         11   -1    0    0    0    0 -0.00000000000E+00 -0.00000000000E+00 -0.45593999997E+02  0.45594000000E+02  0.51100000000E-03 0. -1.
    9900012    2    1    2    0    0 -0.29803010652E+02  0.13585545879E+02  0.24091051494E+02  0.50528864953E+02  0.30000015510E+02 0.  0.
         12    1    1    2    0    0  0.29803010652E+02 -0.13585545879E+02 -0.24091051494E+02  0.40659135047E+02  0.00000000000E+00 0. -1.
         11    1    3    3    0    0 -0.12363481716E+02  0.15396821340E+02  0.46108498313E+01  0.20277517697E+02  0.51100000000E-03 0. -1.
        -11    1    3    3    0    0 -0.11076304753E+02  0.92233713057E+00  0.20433233070E+02  0.23260529803E+02  0.51100000000E-03 0.  1.
         12    1    3    3    0    0 -0.63632241823E+01 -0.27336125915E+01 -0.95303140738E+00  0.69908174528E+01  0.00000000000E+00 0. -1.
</event>
<event>
 7    1  0.2973028E-011  0.5052886E+02  0.7816164E-02  0.1300439E+00
        -11   -1    0    0    0    0  0.00000000000E+00  0.00000000000E+00  0.45593999997E+02  0.45594000000E+02  0.51100000000E-03 0.  1.
         11   -1    0    0    0    0 -0.00000000000E+00 -0.00000000000E+00 -0.45593999997E+02  0.45594000000E+02  0.51100000000E-03 0. -1.
    9900012    2    1    2    0    0 -0.38543884024E+02  0.34039611016E+01  0.12487905940E+02  0.50528859065E+02  0.29999997614E+02 0.  0.
         12    1    1    2    0    0  0.38543884024E+02 -0.34039611016E+01 -0.12487905940E+02  0.40659140935E+02  0.00000000000E+00 0. -1.
         11    1    3    3    0    0 -0.23644660550E+01 -0.26839591530E+01 -0.37024107618E+01  0.51480270173E+01  0.51100000000E-03 0. -1.
        -11    1    3    3    0    0 -0.37313226232E+02  0.59077057048E+01  0.19042719705E+02  0.42306063543E+02  0.51100000000E-03 0.  1.
        -12    1    3    3    0    0  0.11338082628E+01  0.18021454974E+00 -0.28524030035E+01  0.30747685043E+01  0.00000000000E+00 0.  1.
</event>
<event>
 7    1  0.2973028E-011  0.5052886E+02  0.7816164E-02  0.1300439E+00
        -11   -1    0    0    0    0  0.00000000000E+00  0.00000000000E+00  0.45593999997E+02  0.45594000000E+02  0.51100000000E-03 0.  1.
         11   -1    0    0    0    0 -0.00000000000E+00 -0.00000000000E+00 -0.45593999997E+02  0.45594000000E+02  0.51100000000E-03 0. -1.
    9900012    2    1    2    0    0  0.19782800456E+02  0.19974522933E+01  0.35465705709E+02  0.50528864606E+02  0.30000014456E+02 0.  0.
         12    1    1    2    0    0 -0.19782800456E+02 -0.19974522933E+01 -0.35465705709E+02  0.40659135394E+02  0.00000000000E+00 0. -1.
         11    1    3    3    0    0  0.91524777344E+01  0.79199942408E+01  0.71712277714E+01  0.14068427967E+02  0.51100000000E-03 0. -1.
        -11    1    3    3    0    0 -0.25596722599E+01 -0.17140236980E+01  0.20177613181E+02  0.20411415268E+02  0.51100000000E-03 0.  1.
        -12    1    3    3    0    0  0.13189994981E+02 -0.42085182495E+01  0.81168647570E+01  0.16049021370E+02  0.00000000000E+00 0.  1.
</event>
<event>
 7    1  0.2973028E-011  0.5052890E+02  0.7816164E-02  0.1300439E+00
        -11   -1    0    0    0    0  0.00000000000E+00  0.00000000000E+00  0.45593999997E+02  0.45594000000E+02  0.51100000000E-03 0. -1.
         11   -1    0    0    0    0 -0.00000000000E+00 -0.00000000000E+00 -0.45593999997E+02  0.45594000000E+02  0.51100000000E-03 0.  1.
    9900012    2    1    2    0    0  0.10004906930E+02 -0.36165886941E+02 -0.15655450442E+02  0.50528896845E+02  0.30000112449E+02 0.  0.
         12    1    1    2    0    0 -0.10004906930E+02  0.36165886941E+02  0.15655450442E+02  0.40659103155E+02  0.00000000000E+00 0. -1.
         11    1    3    3    0    0  0.68489296855E+01 -0.80977552471E+01  0.73323937785E+01  0.12893621550E+02  0.51100000000E-03 0. -1.
        -11    1    3    3    0    0  0.11454219271E+01 -0.19519903609E+02 -0.20876338058E+02  0.28603498374E+02  0.51100000000E-03 0.  1.
        -12    1    3    3    0    0  0.20105553172E+01 -0.85482280847E+01 -0.21115061623E+01  0.90317769207E+01  0.00000000000E+00 0.  1.
</event>
<event>
 7    1  0.2973028E-011  0.5052886E+02  0.7816164E-02  0.1300439E+00
        -11   -1    0    0    0    0  0.00000000000E+00  0.00000000000E+00  0.45593999997E+02  0.45594000000E+02  0.51100000000E-03 0. -1.
         11   -1    0    0    0    0 -0.00000000000E+00 -0.00000000000E+00 -0.45593999997E+02  0.45594000000E+02  0.51100000000E-03 0.  1.
    9900012    2    1    2    0    0  0.31753437029E+02  0.11693684018E+02 -0.22542014188E+02  0.50528863109E+02  0.30000009905E+02 0.  0.
         12    1    1    2    0    0 -0.31753437029E+02 -0.11693684018E+02  0.22542014188E+02  0.40659136891E+02  0.00000000000E+00 0. -1.
         11    1    3    3    0    0  0.15497196083E+02 -0.28042425313E+01  0.16004537762E+00  0.15749681819E+02  0.51100000000E-03 0. -1.
        -11    1    3    3    0    0  0.16451362124E+02  0.80448223442E+01 -0.21447858143E+02  0.28202430773E+02  0.51100000000E-03 0.  1.
        -12    1    3    3    0    0 -0.19512117751E+00  0.64531042056E+01 -0.12542014220E+01  0.65767505175E+01  0.00000000000E+00 0.  1.
</event>
<event>
 7    1  0.2973028E-011  0.5052886E+02  0.7816164E-02  0.1300439E+00
        -11   -1    0    0    0    0  0.00000000000E+00  0.00000000000E+00  0.45593999997E+02  0.45594000000E+02  0.51100000000E-03 0.  1.
         11   -1    0    0    0    0 -0.00000000000E+00 -0.00000000000E+00 -0.45593999997E+02  0.45594000000E+02  0.51100000000E-03 0. -1.
    9900012    2    1    2    0    0  0.51746528349E+01  0.15739070870E+02  0.37130447200E+02  0.50528862120E+02  0.30000006901E+02 0.  0.
         12    1    1    2    0    0 -0.51746528349E+01 -0.15739070870E+02 -0.37130447200E+02  0.40659137880E+02  0.00000000000E+00 0. -1.
         11    1    3    3    0    0  0.75780796775E+01 -0.29873465146E+01  0.29017951104E+01  0.86470773051E+01  0.51100000000E-03 0. -1.
        -11    1    3    3    0    0  0.29471374837E+01  0.18535277857E+02  0.27183959227E+02  0.33033464609E+02  0.51100000000E-03 0.  1.
        -12    1    3    3    0    0 -0.53505643263E+01  0.19113952708E+00  0.70446928634E+01  0.88483202060E+01  0.00000000000E+00 0.  1.
</event>
<event>
 7    1  0.2973028E-011  0.5052886E+02  0.7816164E-02  0.1300439E+00
        -11   -1    0    0    0    0  0.00000000000E+00  0.00000000000E+00  0.45593999997E+02  0.45594000000E+02  0.51100000000E-03 0. -1.
         11   -1    0    0    0    0 -0.00000000000E+00 -0.00000000000E+00 -0.45593999997E+02  0.45594000000E+02  0.51100000000E-03 0.  1.
    9900012    2    1    2    0    0 -0.40134421234E+02 -0.29194214261E+01  0.58198662252E+01  0.50528860411E+02  0.30000001704E+02 0.  0.
         12    1    1    2    0    0  0.40134421234E+02  0.29194214261E+01 -0.58198662252E+01  0.40659139589E+02  0.00000000000E+00 0. -1.
         11    1    3    3    0    0 -0.25065353019E+01 -0.78266790042E+01 -0.74241045423E+00  0.82517147914E+01  0.51100000000E-03 0. -1.
        -11    1    3    3    0    0 -0.18222348375E+02  0.11157755960E+02  0.38292601173E+01  0.21707434940E+02  0.51100000000E-03 0.  1.
        -12    1    3    3    0    0 -0.19405537557E+02 -0.62504983815E+01  0.27330165621E+01  0.20569710679E+02  0.00000000000E+00 0.  1.
</event>
<event>
 7    1  0.2973028E-011  0.5052886E+02  0.7816164E-02  0.1300439E+00
        -11   -1    0    0    0    0  0.00000000000E+00  0.00000000000E+00  0.45593999997E+02  0.45594000000E+02  0.51100000000E-03 0. -1.
         11   -1    0    0    0    0 -0.00000000000E+00 -0.00000000000E+00 -0.45593999997E+02  0.45594000000E+02  0.51100000000E-03 0.  1.
    9900012    2    1    2    0    0 -0.39967897772E+02 -0.23868046057E+01 -0.70736333933E+01  0.50528856158E+02  0.29999988779E+02 0.  0.
         12    1    1    2    0    0  0.39967897772E+02  0.23868046057E+01  0.70736333933E+01  0.40659143842E+02  0.00000000000E+00 0. -1.
         11    1    3    3    0    0 -0.28306763581E+02 -0.32603598493E+00  0.21700906994E+00  0.28309472921E+02  0.51100000000E-03 0.  1.
        -11    1    3    3    0    0 -0.53050835552E+00  0.52397507767E+01  0.23667573409E+01  0.57739040422E+01  0.51100000000E-03 0. -1.
         12    1    3    3    0    0 -0.11130625836E+02 -0.73005193974E+01 -0.96573998042E+01  0.16445479195E+02  0.00000000000E+00 0. -1.
</event>
<event>
 7    1  0.2973028E-011  0.5052886E+02  0.7816164E-02  0.1300439E+00
        -11   -1    0    0    0    0  0.00000000000E+00  0.00000000000E+00  0.45593999997E+02  0.45594000000E+02  0.51100000000E-03 0.  1.
         11   -1    0    0    0    0 -0.00000000000E+00 -0.00000000000E+00 -0.45593999997E+02  0.45594000000E+02  0.51100000000E-03 0. -1.
    9900012    2    1    2    0    0  0.58796779711E+01 -0.27625757410E+02  0.29247434371E+02  0.50528862001E+02  0.30000006538E+02 0.  0.
         12    1    1    2    0    0 -0.58796779711E+01  0.27625757410E+02 -0.29247434371E+02  0.40659137999E+02  0.00000000000E+00 0. -1.
         11    1    3    3    0    0 -0.60545118073E+01 -0.15484672076E+02  0.26660495558E+02  0.31419965089E+02  0.51100000000E-03 0. -1.
        -11    1    3    3    0    0  0.91367857062E+01 -0.88114322600E+01  0.55426366362E+01  0.13850740509E+02  0.51100000000E-03 0.  1.
         12    1    3    3    0    0  0.27974040723E+01 -0.33296530736E+01 -0.29556978228E+01  0.52581564026E+01  0.00000000000E+00 0. -1.
</event>
<event>
 7    1  0.2973028E-011  0.5052885E+02  0.7816164E-02  0.1300439E+00
        -11   -1    0    0    0    0  0.00000000000E+00  0.00000000000E+00  0.45593999997E+02  0.45594000000E+02  0.51100000000E-03 0.  1.
         11   -1    0    0    0    0 -0.00000000000E+00 -0.00000000000E+00 -0.45593999997E+02  0.45594000000E+02  0.51100000000E-03 0. -1.
    9900012    2    1    2    0    0  0.11963466102E+01  0.35456042711E+02  0.19864646571E+02  0.50528851050E+02  0.29999973253E+02 0.  0.
         12    1    1    2    0    0 -0.11963466102E+01 -0.35456042711E+02 -0.19864646571E+02  0.40659148950E+02  0.00000000000E+00 0. -1.
         11    1    3    3    0    0 -0.46149681498E+01 -0.53139442679E+00  0.79084367505E+01  0.91718963775E+01  0.51100000000E-03 0. -1.
        -11    1    3    3    0    0  0.72859973631E+01  0.22181665489E+02  0.14149383142E+02  0.27300496058E+02  0.51100000000E-03 0.  1.
         12    1    3    3    0    0 -0.14746826031E+01  0.13805771648E+02 -0.21931733209E+01  0.14056458615E+02  0.00000000000E+00 0. -1.
</event>
<event>
 7    1  0.2973028E-011  0.5052885E+02  0.7816164E-02  0.1300439E+00
        -11   -1    0    0    0    0  0.00000000000E+00  0.00000000000E+00  0.45593999997E+02  0.45594000000E+02  0.51100000000E-03 0.  1.
         11   -1    0    0    0    0 -0.00000000000E+00 -0.00000000000E+00 -0.45593999997E+02  0.45594000000E+02  0.51100000000E-03 0. -1.
    9900012    2    1    2    0    0  0.34850611232E+02 -0.10010895066E+02  0.18395206041E+02  0.50528846928E+02  0.29999960722E+02 0.  0.
         12    1    1    2    0    0 -0.34850611232E+02  0.10010895066E+02 -0.18395206041E+02  0.40659153072E+02  0.00000000000E+00 0. -1.
         11    1    3    3    0    0  0.87628943269E+00  0.34379576537E+01  0.18530524345E+01  0.40026540676E+01  0.51100000000E-03 0. -1.
        -11    1    3    3    0    0  0.23026838671E+02 -0.18109468833E+02  0.18237291337E+02  0.34507781096E+02  0.51100000000E-03 0.  1.
        -12    1    3    3    0    0  0.10947483129E+02  0.46606161141E+01 -0.16951377305E+01  0.12018411764E+02  0.00000000000E+00 0.  1.
</event>
<event>
 7    1  0.2973028E-011  0.5052886E+02  0.7816164E-02  0.1300439E+00
        -11   -1    0    0    0    0  0.00000000000E+00  0.00000000000E+00  0.45593999997E+02  0.45594000000E+02  0.51100000000E-03 0. -1.
         11   -1    0    0    0    0 -0.00000000000E+00 -0.00000000000E+00 -0.45593999997E+02  0.45594000000E+02  0.51100000000E-03 0.  1.
    9900012    2    1    2    0    0  0.20830179390E+02 -0.31405705088E+02  0.15262727111E+02  0.50528861736E+02  0.30000005733E+02 0.  0.
         12    1    1    2    0    0 -0.20830179390E+02  0.31405705088E+02 -0.15262727111E+02  0.40659138264E+02  0.00000000000E+00 0. -1.
         11    1    3    3    0    0  0.12154578369E+02 -0.13535694420E+02 -0.15859250277E+01  0.18260995515E+02  0.51100000000E-03 0.  1.
        -11    1    3    3    0    0 -0.20163489036E+01  0.31682337719E+01  0.36086866341E+01  0.52082614776E+01  0.51100000000E-03 0. -1.
        -12    1    3    3    0    0  0.10691949924E+02 -0.21038244440E+02  0.13239965504E+02  0.27059604743E+02  0.00000000000E+00 0.  1.
</event>
<event>
 7    1  0.2973028E-011  0.5052888E+02  0.7816164E-02  0.1300439E+00
        -11   -1    0    0    0    0  0.00000000000E+00  0.00000000000E+00  0.45593999997E+02  0.45594000000E+02  0.51100000000E-03 0. -1.
         11   -1    0    0    0    0 -0.00000000000E+00 -0.00000000000E+00 -0.45593999997E+02  0.45594000000E+02  0.51100000000E-03 0.  1.
    9900012    2    1    2    0    0  0.15770873444E+02 -0.36067569454E+02  0.10177132995E+02  0.50528879848E+02  0.30000060786E+02 0.  0.
         12    1    1    2    0    0 -0.15770873444E+02  0.36067569454E+02 -0.10177132995E+02  0.40659120152E+02  0.00000000000E+00 0. -1.
         11    1    3    3    0    0  0.55711345776E+01  0.27511143302E+01 -0.38167350164E+01  0.72920255750E+01  0.51100000000E-03 0. -1.
        -11    1    3    3    0    0  0.72933768676E+01 -0.26939381789E+02  0.57704374032E+01  0.28499501494E+02  0.51100000000E-03 0.  1.
         12    1    3    3    0    0  0.29063619992E+01 -0.11879301995E+02  0.82234306084E+01  0.14737352779E+02  0.00000000000E+00 0. -1.
</event>
<event>
 7    1  0.2973028E-011  0.5052889E+02  0.7816164E-02  0.1300439E+00
        -11   -1    0    0    0    0  0.00000000000E+00  0.00000000000E+00  0.45593999997E+02  0.45594000000E+02  0.51100000000E-03 0.  1.
         11   -1    0    0    0    0 -0.00000000000E+00 -0.00000000000E+00 -0.45593999997E+02  0.45594000000E+02  0.51100000000E-03 0. -1.
    9900012    2    1    2    0    0  0.30852935533E+02 -0.26471267952E+02 -0.72925767071E+00  0.50528886941E+02  0.30000082346E+02 0.  0.
         12    1    1    2    0    0 -0.30852935533E+02  0.26471267952E+02  0.72925767071E+00  0.40659113059E+02  0.00000000000E+00 0. -1.
         11    1    3    3    0    0  0.51989566872E+01  0.43943341820E+01 -0.47355784963E+01  0.82924681184E+01  0.51100000000E-03 0. -1.
        -11    1    3    3    0    0  0.10408050536E+02 -0.82348844514E+01  0.66073787918E+01  0.14825595862E+02  0.51100000000E-03 0.  1.
         12    1    3    3    0    0  0.15245928309E+02 -0.22630717683E+02 -0.26010579662E+01  0.27410822961E+02  0.00000000000E+00 0. -1.
</event>
<event>
 7    1  0.2973028E-011  0.5052885E+02  0.7816164E-02  0.1300439E+00
        -11   -1    0    0    0    0  0.00000000000E+00  0.00000000000E+00  0.45593999997E+02  0.45594000000E+02  0.51100000000E-03 0.  1.
         11   -1    0    0    0    0 -0.00000000000E+00 -0.00000000000E+00 -0.45593999997E+02  0.45594000000E+02  0.51100000000E-03 0. -1.
    9900012    2    1    2    0    0  0.43815945058E+01 -0.18692042524E+02  0.35840982746E+02  0.50528845209E+02  0.29999955498E+02 0.  0.
         12    1    1    2    0    0 -0.43815945058E+01  0.18692042524E+02 -0.35840982746E+02  0.40659154791E+02  0.00000000000E+00 0. -1.
         11    1    3    3    0    0  0.39886918375E+01 -0.18096145726E+02  0.53385368861E+01  0.19284193762E+02  0.51100000000E-03 0. -1.
        -11    1    3    3    0    0  0.19221521929E+01  0.25463539326E+01  0.12113271851E+02  0.12526369889E+02  0.51100000000E-03 0.  1.
         12    1    3    3    0    0 -0.15292495245E+01 -0.31422507309E+01  0.18389174009E+02  0.18718281558E+02  0.00000000000E+00 0. -1.
</event>
<event>
 7    1  0.2973028E-011  0.5052884E+02  0.7816164E-02  0.1300439E+00
        -11   -1    0    0    0    0  0.00000000000E+00  0.00000000000E+00  0.45593999997E+02  0.45594000000E+02  0.51100000000E-03 0.  1.
         11   -1    0    0    0    0 -0.00000000000E+00 -0.00000000000E+00 -0.45593999997E+02  0.45594000000E+02  0.51100000000E-03 0. -1.
    9900012    2    1    2    0    0 -0.29628033375E+02  0.15282302619E+02  0.23276559797E+02  0.50528839027E+02  0.29999936708E+02 0.  0.
         12    1    1    2    0    0  0.29628033375E+02 -0.15282302619E+02 -0.23276559797E+02  0.40659160973E+02  0.00000000000E+00 0. -1.
         11    1    3    3    0    0 -0.45117956552E+00 -0.37917929197E+00  0.54592041526E+01  0.54909243463E+01  0.51100000000E-03 0. -1.
        -11    1    3    3    0    0 -0.13875387330E+02  0.17447398374E+01 -0.44217658956E+01  0.14667055075E+02  0.51100000000E-03 0.  1.
        -12    1    3    3    0    0 -0.15301466479E+02  0.13916742074E+02  0.22239121540E+02  0.30370859606E+02  0.00000000000E+00 0.  1.
</event>
<event>
 7    1  0.2973028E-011  0.5052888E+02  0.7816164E-02  0.1300439E+00
        -11   -1    0    0    0    0  0.00000000000E+00  0.00000000000E+00  0.45593999997E+02  0.45594000000E+02  0.51100000000E-03 0.  1.
         11   -1    0    0    0    0 -0.00000000000E+00 -0.00000000000E+00 -0.45593999997E+02  0.45594000000E+02  0.51100000000E-03 0. -1.
    9900012    2    1    2    0    0  0.20361124545E+02 -0.14902824966E+02  0.31882515759E+02  0.50528875614E+02  0.30000047917E+02 0.  0.
         12    1    1    2    0    0 -0.20361124545E+02  0.14902824966E+02 -0.31882515759E+02  0.40659124386E+02  0.00000000000E+00 0. -1.
         11    1    3    3    0    0  0.49037752606E+01  0.69751244303E+01  0.10246625502E+01  0.85877416256E+01  0.51100000000E-03 0. -1.
        -11    1    3    3    0    0  0.13940295173E+02 -0.19937662475E+02  0.22181756862E+02  0.32922219734E+02  0.51100000000E-03 0.  1.
         12    1    3    3    0    0  0.15170541117E+01 -0.19402869215E+01  0.86760963464E+01  0.90189142544E+01  0.00000000000E+00 0. -1.
</event>
<event>
 7    1  0.2973028E-011  0.5052886E+02  0.7816164E-02  0.1300439E+00
        -11   -1    0    0    0    0  0.00000000000E+00  0.00000000000E+00  0.45593999997E+02  0.45594000000E+02  0.51100000000E-03 0.  1.
         11   -1    0    0    0    0 -0.00000000000E+00 -0.00000000000E+00 -0.45593999997E+02  0.45594000000E+02  0.51100000000E-03 0. -1.
    9900012    2    1    2    0    0  0.24401296677E+02 -0.21095959109E+02  0.24752833383E+02  0.50528861657E+02  0.30000005494E+02 0.  0.
         12    1    1    2    0    0 -0.24401296677E+02  0.21095959109E+02 -0.24752833383E+02  0.40659138343E+02  0.00000000000E+00 0. -1.
         11    1    3    3    0    0  0.56432854111E+01  0.16435056788E+01 -0.15626415912E+01  0.60819100742E+01  0.51100000000E-03 0. -1.
        -11    1    3    3    0    0 -0.37211183045E+01 -0.53356170162E+01  0.91866742824E+01  0.11256576523E+02  0.51100000000E-03 0.  1.
        -12    1    3    3    0    0  0.22479129571E+02 -0.17403847772E+02  0.17128800692E+02  0.33190375061E+02  0.00000000000E+00 0.  1.
</event>
<event>
 7    1  0.2973028E-011  0.5052882E+02  0.7816164E-02  0.1300439E+00
        -11   -1    0    0    0    0  0.00000000000E+00  0.00000000000E+00  0.45593999997E+02  0.45594000000E+02  0.51100000000E-03 0.  1.
         11   -1    0    0    0    0 -0.00000000000E+00 -0.00000000000E+00 -0.45593999997E+02  0.45594000000E+02  0.51100000000E-03 0. -1.
    9900012    2    1    2    0    0  0.17065150316E+02  0.12010380339E+02  0.34895567951E+02  0.50528815874E+02  0.29999866330E+02 0.  0.
         12    1    1    2    0    0 -0.17065150316E+02 -0.12010380339E+02 -0.34895567951E+02  0.40659184126E+02  0.00000000000E+00 0. -1.
         11    1    3    3    0    0 -0.63177303701E+01  0.10725527676E+01  0.39263048696E+01  0.75153148077E+01  0.51100000000E-03 0. -1.
        -11    1    3    3    0    0  0.11114416201E+02  0.13180896623E+02  0.15912104827E+02  0.23461913042E+02  0.51100000000E-03 0.  1.
         12    1    3    3    0    0  0.12268464485E+02 -0.22430690521E+01  0.15057158254E+02  0.19551588024E+02  0.00000000000E+00 0. -1.
</event>
<event>
 7    1  0.2973028E-011  0.5052886E+02  0.7816164E-02  0.1300439E+00
        -11   -1    0    0    0    0  0.00000000000E+00  0.00000000000E+00  0.45593999997E+02  0.45594000000E+02  0.51100000000E-03 0.  1.
         11   -1    0    0    0    0 -0.00000000000E+00 -0.00000000000E+00 -0.45593999997E+02  0.45594000000E+02  0.51100000000E-03 0. -1.
    9900012    2    1    2    0    0  0.29904248813E+02  0.24791085406E+02  0.12012642802E+02  0.50528860809E+02  0.30000002914E+02 0.  0.
         12    1    1    2    0    0 -0.29904248813E+02 -0.24791085406E+02 -0.12012642802E+02  0.40659139191E+02  0.00000000000E+00 0. -1.
         11    1    3    3    0    0  0.25688009133E+02  0.58588612828E+01  0.21477431856E+01  0.26435068938E+02  0.51100000000E-03 0. -1.
        -11    1    3    3    0    0  0.32591937096E+01  0.16113427375E+02  0.12065238682E+02  0.20392029573E+02  0.51100000000E-03 0.  1.
         12    1    3    3    0    0  0.95704597084E+00  0.28187967492E+01 -0.22003390655E+01  0.37017622974E+01  0.00000000000E+00 0. -1.
</event>
<event>
 7    1  0.2973028E-011  0.5052888E+02  0.7816164E-02  0.1300439E+00
        -11   -1    0    0    0    0  0.00000000000E+00  0.00000000000E+00  0.45593999997E+02  0.45594000000E+02  0.51100000000E-03 0. -1.
         11   -1    0    0    0    0 -0.00000000000E+00 -0.00000000000E+00 -0.45593999997E+02  0.45594000000E+02  0.51100000000E-03 0.  1.
    9900012    2    1    2    0    0  0.33846074234E-02  0.96928064354E+00 -0.40647568895E+02  0.50528875889E+02  0.30000048751E+02 0.  0.
         12    1    1    2    0    0 -0.33846074234E-02 -0.96928064354E+00  0.40647568895E+02  0.40659124111E+02  0.00000000000E+00 0. -1.
         11    1    3    3    0    0  0.19655197971E+01 -0.30586361795E+00  0.41266705431E+01  0.45810730902E+01  0.51100000000E-03 0. -1.
        -11    1    3    3    0    0 -0.52752382299E+01  0.16877721837E+01 -0.15052939314E+02  0.16039566565E+02  0.51100000000E-03 0.  1.
         12    1    3    3    0    0  0.33131030403E+01 -0.41262792224E+00 -0.29721300124E+02  0.29908236234E+02  0.00000000000E+00 0. -1.
</event>
<event>
 7    1  0.2973028E-011  0.5052887E+02  0.7816164E-02  0.1300439E+00
        -11   -1    0    0    0    0  0.00000000000E+00  0.00000000000E+00  0.45593999997E+02  0.45594000000E+02  0.51100000000E-03 0. -1.
         11   -1    0    0    0    0 -0.00000000000E+00 -0.00000000000E+00 -0.45593999997E+02  0.45594000000E+02  0.51100000000E-03 0.  1.
    9900012    2    1    2    0    0 -0.27597730777E+02  0.34551931463E+01 -0.29657916170E+02  0.50528867013E+02  0.30000021771E+02 0.  0.
         12    1    1    2    0    0  0.27597730777E+02 -0.34551931463E+01  0.29657916170E+02  0.40659132987E+02  0.00000000000E+00 0. -1.
         11    1    3    3    0    0 -0.12505150208E+02  0.50122880502E+01  0.31108489685E+01  0.13826756481E+02  0.51100000000E-03 0. -1.
        -11    1    3    3    0    0 -0.14286017942E+02 -0.12978791876E+01 -0.24503927098E+02  0.28393964896E+02  0.51100000000E-03 0.  1.
         12    1    3    3    0    0 -0.80656262693E+00 -0.25921571623E+00 -0.82648380406E+01  0.83081456352E+01  0.00000000000E+00 0. -1.
</event>
<event>
 7    1  0.2973028E-011  0.5052885E+02  0.7816164E-02  0.1300439E+00
        -11   -1    0    0    0    0  0.00000000000E+00  0.00000000000E+00  0.45593999997E+02  0.45594000000E+02  0.51100000000E-03 0. -1.
         11   -1    0    0    0    0 -0.00000000000E+00 -0.00000000000E+00 -0.45593999997E+02  0.45594000000E+02  0.51100000000E-03 0.  1.
    9900012    2    1    2    0    0 -0.85301822631E+01  0.19118921032E+02 -0.34854973181E+02  0.50528852121E+02  0.29999976506E+02 0.  0.
         12    1    1    2    0    0  0.85301822631E+01 -0.19118921032E+02  0.34854973181E+02  0.40659147879E+02  0.00000000000E+00 0. -1.
         11    1    3    3    0    0 -0.16126015571E+01 -0.60976532147E+00  0.13566749694E+01  0.21938242325E+01  0.51100000000E-03 0. -1.
        -11    1    3    3    0    0 -0.75293596142E+01  0.98745700117E+00 -0.25784840138E+02  0.26879812290E+02  0.51100000000E-03 0.  1.
        -12    1    3    3    0    0  0.61177890827E+00  0.18741229352E+02 -0.10426808012E+02  0.21455215598E+02  0.00000000000E+00 0.  1.
</event>
<event>
 7    1  0.2973028E-011  0.5052886E+02  0.7816164E-02  0.1300439E+00
        -11   -1    0    0    0    0  0.00000000000E+00  0.00000000000E+00  0.45593999997E+02  0.45594000000E+02  0.51100000000E-03 0.  1.
         11   -1    0    0    0    0 -0.00000000000E+00 -0.00000000000E+00 -0.45593999997E+02  0.45594000000E+02  0.51100000000E-03 0. -1.
    9900012    2    1    2    0    0 -0.48472566549E+01  0.21790623684E+02  0.33982909818E+02  0.50528864037E+02  0.30000012726E+02 0.  0.
         12    1    1    2    0    0  0.48472566549E+01 -0.21790623684E+02 -0.33982909818E+02  0.40659135963E+02  0.00000000000E+00 0. -1.
         11    1    3    3    0    0 -0.10146593040E+02  0.10215804377E+02  0.23987337986E+01  0.14596915204E+02  0.51100000000E-03 0. -1.
        -11    1    3    3    0    0  0.83885403866E+01  0.11234439558E+02  0.26166918012E+02  0.29686492560E+02  0.51100000000E-03 0.  1.
         12    1    3    3    0    0 -0.30892040020E+01  0.34037974834E+00  0.54172580068E+01  0.62454562725E+01  0.00000000000E+00 0. -1.
</event>
<event>
 7    1  0.2973028E-011  0.5052885E+02  0.7816164E-02  0.1300439E+00
        -11   -1    0    0    0    0  0.00000000000E+00  0.00000000000E+00  0.45593999997E+02  0.45594000000E+02  0.51100000000E-03 0.  1.
         11   -1    0    0    0    0 -0.00000000000E+00 -0.00000000000E+00 -0.45593999997E+02  0.45594000000E+02  0.51100000000E-03 0. -1.
    9900012    2    1    2    0    0  0.29940421108E+02  0.16357625017E+02  0.22117087156E+02  0.50528852732E+02  0.29999978364E+02 0.  0.
         12    1    1    2    0    0 -0.29940421108E+02 -0.16357625017E+02 -0.22117087156E+02  0.40659147268E+02  0.00000000000E+00 0. -1.
         11    1    3    3    0    0  0.15866524184E+02 -0.48359101592E+01  0.58001326831E+01  0.17571970753E+02  0.51100000000E-03 0. -1.
        -11    1    3    3    0    0  0.66904899173E+01  0.78716181304E+01  0.14228246855E+02  0.17583174803E+02  0.51100000000E-03 0.  1.
         12    1    3    3    0    0  0.73834070064E+01  0.13321917046E+02  0.20887076171E+01  0.15373707175E+02  0.00000000000E+00 0. -1.
</event>
<event>
 7    1  0.2973028E-011  0.5052885E+02  0.7816164E-02  0.1300439E+00
        -11   -1    0    0    0    0  0.00000000000E+00  0.00000000000E+00  0.45593999997E+02  0.45594000000E+02  0.51100000000E-03 0.  1.
         11   -1    0    0    0    0 -0.00000000000E+00 -0.00000000000E+00 -0.45593999997E+02  0.45594000000E+02  0.51100000000E-03 0. -1.
    9900012    2    1    2    0    0 -0.22812068084E+02 -0.31832281041E+02  0.10930793891E+02  0.50528845783E+02  0.29999957241E+02 0.  0.
         12    1    1    2    0    0  0.22812068084E+02  0.31832281041E+02 -0.10930793891E+02  0.40659154217E+02  0.00000000000E+00 0. -1.
         11    1    3    3    0    0  0.54950524681E+00 -0.22270542679E+02  0.76435150298E+01  0.23552119851E+02  0.51100000000E-03 0. -1.
        -11    1    3    3    0    0 -0.97229230243E+01 -0.80823068380E+01 -0.78077806151E+00  0.12667617400E+02  0.51100000000E-03 0.  1.
         12    1    3    3    0    0 -0.13638650307E+02 -0.14794315247E+01  0.40680569223E+01  0.14309108531E+02  0.00000000000E+00 0. -1.
</event>
<event>
 7    1  0.2973028E-011  0.5052887E+02  0.7816164E-02  0.1300439E+00
        -11   -1    0    0    0    0  0.00000000000E+00  0.00000000000E+00  0.45593999997E+02  0.45594000000E+02  0.51100000000E-03 0.  1.
         11   -1    0    0    0    0 -0.00000000000E+00 -0.00000000000E+00 -0.45593999997E+02  0.45594000000E+02  0.51100000000E-03 0. -1.
    9900012    2    1    2    0    0 -0.29757880844E+01  0.31933526753E+02  0.24991184250E+02  0.50528871433E+02  0.30000035208E+02 0.  0.
         12    1    1    2    0    0  0.29757880844E+01 -0.31933526753E+02 -0.24991184250E+02  0.40659128567E+02  0.00000000000E+00 0. -1.
         11    1    3    3    0    0 -0.71994197589E+01  0.55514542307E+01 -0.45556051086E+01  0.10168767236E+02  0.51100000000E-03 0. -1.
        -11    1    3    3    0    0  0.26683691543E+01  0.96924483018E+01  0.15580306388E+02  0.18542106014E+02  0.51100000000E-03 0.  1.
         12    1    3    3    0    0  0.15552625202E+01  0.16689624221E+02  0.13966482970E+02  0.21817998182E+02  0.00000000000E+00 0. -1.
</event>
<event>
 7    1  0.2973028E-011  0.5052886E+02  0.7816164E-02  0.1300439E+00
        -11   -1    0    0    0    0  0.00000000000E+00  0.00000000000E+00  0.45593999997E+02  0.45594000000E+02  0.51100000000E-03 0. -1.
         11   -1    0    0    0    0 -0.00000000000E+00 -0.00000000000E+00 -0.45593999997E+02  0.45594000000E+02  0.51100000000E-03 0.  1.
    9900012    2    1    2    0    0  0.28585479214E+02  0.33300954270E+01 -0.28721880946E+02  0.50528860775E+02  0.30000002811E+02 0.  0.
         12    1    1    2    0    0 -0.28585479214E+02 -0.33300954270E+01  0.28721880946E+02  0.40659139225E+02  0.00000000000E+00 0. -1.
         11    1    3    3    0    0  0.19254331522E+01  0.44228484445E+01 -0.43575577177E+01  0.65005531081E+01  0.51100000000E-03 0. -1.
        -11    1    3    3    0    0  0.29995839658E+02 -0.58923446965E+01 -0.18410567137E+02  0.35684998324E+02  0.51100000000E-03 0.  1.
        -12    1    3    3    0    0 -0.33357935959E+01  0.47995916790E+01 -0.59537560911E+01  0.83433093429E+01  0.00000000000E+00 0.  1.
</event>
<event>
 7    1  0.2973028E-011  0.5052886E+02  0.7816164E-02  0.1300439E+00
        -11   -1    0    0    0    0  0.00000000000E+00  0.00000000000E+00  0.45593999997E+02  0.45594000000E+02  0.51100000000E-03 0.  1.
         11   -1    0    0    0    0 -0.00000000000E+00 -0.00000000000E+00 -0.45593999997E+02  0.45594000000E+02  0.51100000000E-03 0. -1.
    9900012    2    1    2    0    0 -0.11639183553E+02  0.38395472548E+02 -0.65941640640E+01  0.50528857047E+02  0.29999991481E+02 0.  0.
         12    1    1    2    0    0  0.11639183553E+02 -0.38395472548E+02  0.65941640640E+01  0.40659142953E+02  0.00000000000E+00 0. -1.
         11    1    3    3    0    0 -0.10139501579E+02  0.52757770842E+00  0.24762973511E+01  0.10450831515E+02  0.51100000000E-03 0. -1.
        -11    1    3    3    0    0 -0.26639546867E+01  0.30512988739E+02 -0.36037669118E+01  0.30840335156E+02  0.51100000000E-03 0.  1.
        -12    1    3    3    0    0  0.11642727127E+01  0.73549061005E+01 -0.54666945032E+01  0.92376903763E+01  0.00000000000E+00 0.  1.
</event>
<event>
 7    1  0.2973028E-011  0.5052885E+02  0.7816164E-02  0.1300439E+00
        -11   -1    0    0    0    0  0.00000000000E+00  0.00000000000E+00  0.45593999997E+02  0.45594000000E+02  0.51100000000E-03 0.  1.
         11   -1    0    0    0    0 -0.00000000000E+00 -0.00000000000E+00 -0.45593999997E+02  0.45594000000E+02  0.51100000000E-03 0. -1.
    9900012    2    1    2    0    0  0.12352010580E+02  0.30727013827E+02  0.23589077383E+02  0.50528854462E+02  0.29999983622E+02 0.  0.
         12    1    1    2    0    0 -0.12352010580E+02 -0.30727013827E+02 -0.23589077383E+02  0.40659145538E+02  0.00000000000E+00 0. -1.
         11    1    3    3    0    0  0.77125243957E-01  0.25550581343E+02  0.15408878663E+02  0.29837421088E+02  0.51100000000E-03 0. -1.
        -11    1    3    3    0    0  0.99897612967E+01 -0.46673014818E+00  0.10192363882E+02  0.14279266422E+02  0.51100000000E-03 0.  1.
         12    1    3    3    0    0  0.22851240395E+01  0.56431626324E+01 -0.20121651618E+01  0.64121669512E+01  0.00000000000E+00 0. -1.
</event>
<event>
 7    1  0.2973028E-011  0.5052886E+02  0.7816164E-02  0.1300439E+00
        -11   -1    0    0    0    0  0.00000000000E+00  0.00000000000E+00  0.45593999997E+02  0.45594000000E+02  0.51100000000E-03 0. -1.
         11   -1    0    0    0    0 -0.00000000000E+00 -0.00000000000E+00 -0.45593999997E+02  0.45594000000E+02  0.51100000000E-03 0.  1.
    9900012    2    1    2    0    0  0.40026351515E+02 -0.27897642978E+01 -0.65783016155E+01  0.50528860159E+02  0.30000000939E+02 0.  0.
         12    1    1    2    0    0 -0.40026351515E+02  0.27897642978E+01  0.65783016155E+01  0.40659139841E+02  0.00000000000E+00 0. -1.
         11    1    3    3    0    0  0.42283520880E+01 -0.99470961600E+01  0.52522269654E+01  0.12017053372E+02  0.51100000000E-03 0. -1.
        -11    1    3    3    0    0  0.11959092308E+02  0.98835804179E+00 -0.45550748125E+01  0.12835320302E+02  0.51100000000E-03 0.  1.
         12    1    3    3    0    0  0.23838907120E+02  0.61689738205E+01 -0.72754537683E+01  0.25676486484E+02  0.00000000000E+00 0. -1.
</event>
<event>
 7    1  0.2973028E-011  0.5052886E+02  0.7816164E-02  0.1300439E+00
        -11   -1    0    0    0    0  0.00000000000E+00  0.00000000000E+00  0.45593999997E+02  0.45594000000E+02  0.51100000000E-03 0.  1.
         11   -1    0    0    0    0 -0.00000000000E+00 -0.00000000000E+00 -0.45593999997E+02  0.45594000000E+02  0.51100000000E-03 0. -1.
    9900012    2    1    2    0    0 -0.32344495920E+02 -0.92146998932E+01  0.22849257514E+02  0.50528859830E+02  0.29999999938E+02 0.  0.
         12    1    1    2    0    0  0.32344495920E+02  0.92146998932E+01 -0.22849257514E+02  0.40659140170E+02  0.00000000000E+00 0. -1.
         11    1    3    3    0    0 -0.10371597576E+01 -0.85531615708E+01  0.41188654414E+01  0.95497291064E+01  0.51100000000E-03 0. -1.
        -11    1    3    3    0    0 -0.21580133141E+02 -0.95954942926E+00  0.21883646201E+02  0.30749257760E+02  0.51100000000E-03 0.  1.
        -12    1    3    3    0    0 -0.97272030214E+01  0.29801110691E+00 -0.31532541285E+01  0.10229872963E+02  0.00000000000E+00 0.  1.
</event>
<event>
 7    1  0.2973028E-011  0.5052886E+02  0.7816164E-02  0.1300439E+00
        -11   -1    0    0    0    0  0.00000000000E+00  0.00000000000E+00  0.45593999997E+02  0.45594000000E+02  0.51100000000E-03 0.  1.
         11   -1    0    0    0    0 -0.00000000000E+00 -0.00000000000E+00 -0.45593999997E+02  0.45594000000E+02  0.51100000000E-03 0. -1.
    9900012    2    1    2    0    0  0.33771002696E+01 -0.14753129584E+02  0.37737330195E+02  0.50528859219E+02  0.29999998083E+02 0.  0.
         12    1    1    2    0    0 -0.33771002696E+01  0.14753129584E+02 -0.37737330195E+02  0.40659140781E+02  0.00000000000E+00 0. -1.
         11    1    3    3    0    0  0.17421497584E+01  0.40453293590E+00  0.69749008624E+01  0.72005537967E+01  0.51100000000E-03 0. -1.
        -11    1    3    3    0    0  0.54355485319E+01 -0.54104114282E+01 -0.28066697979E+01  0.81667089626E+01  0.51100000000E-03 0.  1.
        -12    1    3    3    0    0 -0.38005980206E+01 -0.97472510922E+01  0.33569099131E+02  0.35161596460E+02  0.00000000000E+00 0.  1.
</event>
<event>
 7    1  0.2973028E-011  0.5052886E+02  0.7816164E-02  0.1300439E+00
        -11   -1    0    0    0    0  0.00000000000E+00  0.00000000000E+00  0.45593999997E+02  0.45594000000E+02  0.51100000000E-03 0. -1.
         11   -1    0    0    0    0 -0.00000000000E+00 -0.00000000000E+00 -0.45593999997E+02  0.45594000000E+02  0.51100000000E-03 0.  1.
    9900012    2    1    2    0    0 -0.12896600550E+02  0.34697961352E+02 -0.16819477228E+02  0.50528860290E+02  0.30000001338E+02 0.  0.
         12    1    1    2    0    0  0.12896600550E+02 -0.34697961352E+02  0.16819477228E+02  0.40659139710E+02  0.00000000000E+00 0. -1.
         11    1    3    3    0    0  0.38731745245E+01  0.10066819028E+02 -0.10890174111E+02  0.15327694499E+02  0.51100000000E-03 0. -1.
        -11    1    3    3    0    0 -0.17107953511E+02  0.17841552155E+02  0.19492118343E+01  0.24795210902E+02  0.51100000000E-03 0.  1.
        -12    1    3    3    0    0  0.33817843625E+00  0.67895901690E+01 -0.78785149511E+01  0.10405954889E+02  0.00000000000E+00 0.  1.
</event>
<event>
 7    1  0.2973028E-011  0.5052886E+02  0.7816164E-02  0.1300439E+00
        -11   -1    0    0    0    0  0.00000000000E+00  0.00000000000E+00  0.45593999997E+02  0.45594000000E+02  0.51100000000E-03 0.  1.
         11   -1    0    0    0    0 -0.00000000000E+00 -0.00000000000E+00 -0.45593999997E+02  0.45594000000E+02  0.51100000000E-03 0. -1.
    9900012    2    1    2    0    0  0.20999805823E+02 -0.31316838029E+02  0.15212804712E+02  0.50528860610E+02  0.30000002310E+02 0.  0.
         12    1    1    2    0    0 -0.20999805823E+02  0.31316838029E+02 -0.15212804712E+02  0.40659139390E+02  0.00000000000E+00 0. -1.
         11    1    3    3    0    0  0.57285207918E+01  0.37697879594E+01  0.63157043309E+01  0.93228414756E+01  0.51100000000E-03 0. -1.
        -11    1    3    3    0    0  0.16339134023E+02 -0.25962784108E+02  0.91646625905E+01  0.32016003810E+02  0.51100000000E-03 0.  1.
         12    1    3    3    0    0 -0.10678489926E+01 -0.91238418803E+01 -0.26756220951E+00  0.91900153245E+01  0.00000000000E+00 0. -1.
</event>
<event>
 7    1  0.2973028E-011  0.5052885E+02  0.7816164E-02  0.1300439E+00
        -11   -1    0    0    0    0  0.00000000000E+00  0.00000000000E+00  0.45593999997E+02  0.45594000000E+02  0.51100000000E-03 0. -1.
         11   -1    0    0    0    0 -0.00000000000E+00 -0.00000000000E+00 -0.45593999997E+02  0.45594000000E+02  0.51100000000E-03 0.  1.
    9900012    2    1    2    0    0  0.36761989097E+02  0.15222091964E+02 -0.83672142246E+01  0.50528853428E+02  0.29999980479E+02 0.  0.
         12    1    1    2    0    0 -0.36761989097E+02 -0.15222091964E+02  0.83672142246E+01  0.40659146572E+02  0.00000000000E+00 0. -1.
         11    1    3    3    0    0  0.59522340681E+01 -0.35072191905E+01 -0.22749768566E+01  0.72735958652E+01  0.51100000000E-03 0. -1.
        -11    1    3    3    0    0  0.48680612544E+01  0.14128169612E+02 -0.77940165485E+01  0.16853779730E+02  0.51100000000E-03 0.  1.
        -12    1    3    3    0    0  0.25941693774E+02  0.46011415421E+01  0.17017791805E+01  0.26401477833E+02  0.00000000000E+00 0.  1.
</event>
<event>
 7    1  0.2973028E-011  0.5052885E+02  0.7816164E-02  0.1300439E+00
        -11   -1    0    0    0    0  0.00000000000E+00  0.00000000000E+00  0.45593999997E+02  0.45594000000E+02  0.51100000000E-03 0.  1.
         11   -1    0    0    0    0 -0.00000000000E+00 -0.00000000000E+00 -0.45593999997E+02  0.45594000000E+02  0.51100000000E-03 0. -1.
    9900012    2    1    2    0    0 -0.13618647109E+01  0.30492740033E+02  0.26860831209E+02  0.50528854369E+02  0.29999983339E+02 0.  0.
         12    1    1    2    0    0  0.13618647109E+01 -0.30492740033E+02 -0.26860831209E+02  0.40659145631E+02  0.00000000000E+00 0. -1.
         11    1    3    3    0    0 -0.46281610022E+01  0.13954592732E+01 -0.58648691106E+00  0.48694094101E+01  0.51100000000E-03 0. -1.
        -11    1    3    3    0    0  0.97776817838E+01  0.26500353351E+02  0.26224524328E+02  0.38543449058E+02  0.51100000000E-03 0.  1.
        -12    1    3    3    0    0 -0.65113854925E+01  0.25969274094E+01  0.12227937921E+01  0.71159959008E+01  0.00000000000E+00 0.  1.
</event>
<event>
 7    1  0.2973028E-011  0.5052885E+02  0.7816164E-02  0.1300439E+00
        -11   -1    0    0    0    0  0.00000000000E+00  0.00000000000E+00  0.45593999997E+02  0.45594000000E+02  0.51100000000E-03 0.  1.
         11   -1    0    0    0    0 -0.00000000000E+00 -0.00000000000E+00 -0.45593999997E+02  0.45594000000E+02  0.51100000000E-03 0. -1.
    9900012    2    1    2    0    0  0.28400195548E+02  0.58189406027E+01  0.28508513880E+02  0.50528849240E+02  0.29999967749E+02 0.  0.
         12    1    1    2    0    0 -0.28400195548E+02 -0.58189406027E+01 -0.28508513880E+02  0.40659150760E+02  0.00000000000E+00 0. -1.
         11    1    3    3    0    0  0.17760576385E+02  0.12502513386E+02  0.76998236222E+01  0.23044266067E+02  0.51100000000E-03 0. -1.
        -11    1    3    3    0    0  0.36309043003E+01 -0.48513383613E+01  0.68683871528E+00  0.60984176321E+01  0.51100000000E-03 0.  1.
         12    1    3    3    0    0  0.70087148624E+01 -0.18322344224E+01  0.20121851543E+02  0.21386165540E+02  0.00000000000E+00 0. -1.
</event>
<event>
 7    1  0.2973028E-011  0.5052886E+02  0.7816164E-02  0.1300439E+00
        -11   -1    0    0    0    0  0.00000000000E+00  0.00000000000E+00  0.45593999997E+02  0.45594000000E+02  0.51100000000E-03 0. -1.
         11   -1    0    0    0    0 -0.00000000000E+00 -0.00000000000E+00 -0.45593999997E+02  0.45594000000E+02  0.51100000000E-03 0.  1.
    9900012    2    1    2    0    0 -0.22251738627E+01 -0.39980762409E+02 -0.70535859990E+01  0.50528857892E+02  0.29999994049E+02 0.  0.
         12    1    1    2    0    0  0.22251738627E+01  0.39980762409E+02  0.70535859990E+01  0.40659142108E+02  0.00000000000E+00 0. -1.
         11    1    3    3    0    0  0.86512984273E-01  0.43099877763E+01  0.16927331793E+01  0.46312876186E+01  0.51100000000E-03 0. -1.
        -11    1    3    3    0    0 -0.13737514565E+01 -0.12398864597E+02  0.10578979835E+01  0.12519512161E+02  0.51100000000E-03 0.  1.
         12    1    3    3    0    0 -0.93793539041E+00 -0.31891885589E+02 -0.98042171618E+01  0.33378058112E+02  0.00000000000E+00 0. -1.
</event>
<event>
 7    1  0.2973028E-011  0.5052886E+02  0.7816164E-02  0.1300439E+00
        -11   -1    0    0    0    0  0.00000000000E+00  0.00000000000E+00  0.45593999997E+02  0.45594000000E+02  0.51100000000E-03 0. -1.
         11   -1    0    0    0    0 -0.00000000000E+00 -0.00000000000E+00 -0.45593999997E+02  0.45594000000E+02  0.51100000000E-03 0.  1.
    9900012    2    1    2    0    0  0.11321030654E+02  0.14217395799E+02 -0.36371215605E+02  0.50528863228E+02  0.30000010269E+02 0.  0.
         12    1    1    2    0    0 -0.11321030654E+02 -0.14217395799E+02  0.36371215605E+02  0.40659136772E+02  0.00000000000E+00 0. -1.
         11    1    3    3    0    0  0.71654555640E-01  0.15610170046E+02 -0.41536004707E+01  0.16153480751E+02  0.51100000000E-03 0. -1.
        -11    1    3    3    0    0  0.14789033222E+01  0.16265384886E+00 -0.92301801637E+01  0.93493228325E+01  0.51100000000E-03 0.  1.
         12    1    3    3    0    0  0.97704727760E+01 -0.15554280950E+01 -0.22987434971E+02  0.25026059645E+02  0.00000000000E+00 0. -1.
</event>
<event>
 7    1  0.2973028E-011  0.5052886E+02  0.7816164E-02  0.1300439E+00
        -11   -1    0    0    0    0  0.00000000000E+00  0.00000000000E+00  0.45593999997E+02  0.45594000000E+02  0.51100000000E-03 0.  1.
         11   -1    0    0    0    0 -0.00000000000E+00 -0.00000000000E+00 -0.45593999997E+02  0.45594000000E+02  0.51100000000E-03 0. -1.
    9900012    2    1    2    0    0 -0.22487814029E+02 -0.24415950744E+02  0.23480324007E+02  0.50528855321E+02  0.29999986234E+02 0.  0.
         12    1    1    2    0    0  0.22487814029E+02  0.24415950744E+02 -0.23480324007E+02  0.40659144679E+02  0.00000000000E+00 0. -1.
         11    1    3    3    0    0 -0.37156253178E+01  0.53435934818E+01  0.46585790106E+00  0.65250966771E+01  0.51100000000E-03 0. -1.
        -11    1    3    3    0    0 -0.73203705331E+01 -0.62122354048E+01  0.12560541802E+02  0.15809709171E+02  0.51100000000E-03 0.  1.
         12    1    3    3    0    0 -0.11451818178E+02 -0.23547308821E+02  0.10453924304E+02  0.28194049473E+02  0.00000000000E+00 0. -1.
</event>
<event>
 7    1  0.2973028E-011  0.5052886E+02  0.7816164E-02  0.1300439E+00
        -11   -1    0    0    0    0  0.00000000000E+00  0.00000000000E+00  0.45593999997E+02  0.45594000000E+02  0.51100000000E-03 0.  1.
         11   -1    0    0    0    0 -0.00000000000E+00 -0.00000000000E+00 -0.45593999997E+02  0.45594000000E+02  0.51100000000E-03 0. -1.
    9900012    2    1    2    0    0  0.18780961487E+02 -0.20717063839E+02  0.29516855560E+02  0.50528855756E+02  0.29999987555E+02 0.  0.
         12    1    1    2    0    0 -0.18780961487E+02  0.20717063839E+02 -0.29516855560E+02  0.40659144244E+02  0.00000000000E+00 0. -1.
         11    1    3    3    0    0 -0.51457584734E+01 -0.59258586810E+01 -0.28382248091E+00  0.78533551324E+01  0.51100000000E-03 0. -1.
        -11    1    3    3    0    0  0.99165286932E+01 -0.12831928224E+02  0.18232987046E+02  0.24401592984E+02  0.51100000000E-03 0.  1.
         12    1    3    3    0    0  0.14010191267E+02 -0.19592769343E+01  0.11567690995E+02  0.18273907639E+02  0.00000000000E+00 0. -1.
</event>
<event>
 7    1  0.2973028E-011  0.5052886E+02  0.7816164E-02  0.1300439E+00
        -11   -1    0    0    0    0  0.00000000000E+00  0.00000000000E+00  0.45593999997E+02  0.45594000000E+02  0.51100000000E-03 0.  1.
         11   -1    0    0    0    0 -0.00000000000E+00 -0.00000000000E+00 -0.45593999997E+02  0.45594000000E+02  0.51100000000E-03 0. -1.
    9900012    2    1    2    0    0 -0.38733478159E+02 -0.94135187359E+01  0.80168095894E+01  0.50528857101E+02  0.29999991645E+02 0.  0.
         12    1    1    2    0    0  0.38733478159E+02  0.94135187359E+01 -0.80168095894E+01  0.40659142899E+02  0.00000000000E+00 0. -1.
         11    1    3    3    0    0 -0.35168552469E+02 -0.13149023544E+02  0.56012912482E+00  0.37550468010E+02  0.51100000000E-03 0. -1.
        -11    1    3    3    0    0 -0.45237978770E+01 -0.14715622391E+01  0.56455317874E+01  0.73825654131E+01  0.51100000000E-03 0.  1.
         12    1    3    3    0    0  0.95887218690E+00  0.52070670472E+01  0.18111486771E+01  0.55958236780E+01  0.00000000000E+00 0. -1.
</event>
<event>
 7    1  0.2973028E-011  0.5052886E+02  0.7816164E-02  0.1300439E+00
        -11   -1    0    0    0    0  0.00000000000E+00  0.00000000000E+00  0.45593999997E+02  0.45594000000E+02  0.51100000000E-03 0. -1.
         11   -1    0    0    0    0 -0.00000000000E+00 -0.00000000000E+00 -0.45593999997E+02  0.45594000000E+02  0.51100000000E-03 0.  1.
    9900012    2    1    2    0    0  0.23611902254E+02  0.33077415255E+02  0.12361981804E+01  0.50528861864E+02  0.30000006122E+02 0.  0.
         12    1    1    2    0    0 -0.23611902254E+02 -0.33077415255E+02 -0.12361981804E+01  0.40659138136E+02  0.00000000000E+00 0. -1.
         11    1    3    3    0    0  0.22782954093E+01  0.19155939223E+02  0.28027193176E+01  0.19493482843E+02  0.51100000000E-03 0. -1.
        -11    1    3    3    0    0  0.14510630494E+02  0.66061579689E+01  0.74223860016E+01  0.17586686290E+02  0.51100000000E-03 0.  1.
        -12    1    3    3    0    0  0.68229763510E+01  0.73153180629E+01 -0.89889071387E+01  0.13448692732E+02  0.00000000000E+00 0.  1.
</event>
<event>
 7    1  0.2973028E-011  0.5052886E+02  0.7816164E-02  0.1300439E+00
        -11   -1    0    0    0    0  0.00000000000E+00  0.00000000000E+00  0.45593999997E+02  0.45594000000E+02  0.51100000000E-03 0. -1.
         11   -1    0    0    0    0 -0.00000000000E+00 -0.00000000000E+00 -0.45593999997E+02  0.45594000000E+02  0.51100000000E-03 0.  1.
    9900012    2    1    2    0    0  0.13198760151E+02  0.37383469890E+02 -0.90240981980E+01  0.50528862788E+02  0.30000008929E+02 0.  0.
         12    1    1    2    0    0 -0.13198760151E+02 -0.37383469890E+02  0.90240981980E+01  0.40659137212E+02  0.00000000000E+00 0. -1.
         11    1    3    3    0    0 -0.61734111428E+01  0.19050514151E+02  0.24151175416E+00  0.20027266982E+02  0.51100000000E-03 0. -1.
        -11    1    3    3    0    0  0.11457940013E+02  0.33468230876E+01 -0.21882984823E+01  0.12135660865E+02  0.51100000000E-03 0.  1.
         12    1    3    3    0    0  0.79142312810E+01  0.14986132652E+02 -0.70773114698E+01  0.18365934941E+02  0.00000000000E+00 0. -1.
</event>
<event>
 7    1  0.2973028E-011  0.5052886E+02  0.7816164E-02  0.1300439E+00
        -11   -1    0    0    0    0  0.00000000000E+00  0.00000000000E+00  0.45593999997E+02  0.45594000000E+02  0.51100000000E-03 0.  1.
         11   -1    0    0    0    0 -0.00000000000E+00 -0.00000000000E+00 -0.45593999997E+02  0.45594000000E+02  0.51100000000E-03 0. -1.
    9900012    2    1    2    0    0  0.78245173342E+01  0.18043638752E+02  0.35586084365E+02  0.50528863617E+02  0.30000011452E+02 0.  0.
         12    1    1    2    0    0 -0.78245173342E+01 -0.18043638752E+02 -0.35586084365E+02  0.40659136383E+02  0.00000000000E+00 0. -1.
         11    1    3    3    0    0  0.23729007481E+01  0.14150456025E+02  0.90681793015E+01  0.16973448082E+02  0.51100000000E-03 0. -1.
        -11    1    3    3    0    0  0.10254358980E+02 -0.33835012301E+01  0.19783901910E+02  0.22538915983E+02  0.51100000000E-03 0.  1.
         12    1    3    3    0    0 -0.48027423938E+01  0.72766839576E+01  0.67340031539E+01  0.11016499553E+02  0.00000000000E+00 0. -1.
</event>
<event>
 7    1  0.2973028E-011  0.5052886E+02  0.7816164E-02  0.1300439E+00
        -11   -1    0    0    0    0  0.00000000000E+00  0.00000000000E+00  0.45593999997E+02  0.45594000000E+02  0.51100000000E-03 0.  1.
         11   -1    0    0    0    0 -0.00000000000E+00 -0.00000000000E+00 -0.45593999997E+02  0.45594000000E+02  0.51100000000E-03 0. -1.
    9900012    2    1    2    0    0 -0.21164601951E+02  0.85047321591E+01  0.33658502098E+02  0.50528860704E+02  0.30000002596E+02 0.  0.
         12    1    1    2    0    0  0.21164601951E+02 -0.85047321591E+01 -0.33658502098E+02  0.40659139296E+02  0.00000000000E+00 0. -1.
         11    1    3    3    0    0  0.81875654540E+00 -0.46948959514E+01  0.11415379551E+02  0.12370258721E+02  0.51100000000E-03 0. -1.
        -11    1    3    3    0    0 -0.12836379765E+02  0.46776699561E+01  0.12424522921E+01  0.13718488606E+02  0.51100000000E-03 0.  1.
        -12    1    3    3    0    0 -0.91469787313E+01  0.85219581544E+01  0.21000670255E+02  0.24440113376E+02  0.00000000000E+00 0.  1.
</event>
<event>
 7    1  0.2973028E-011  0.5052886E+02  0.7816164E-02  0.1300439E+00
        -11   -1    0    0    0    0  0.00000000000E+00  0.00000000000E+00  0.45593999997E+02  0.45594000000E+02  0.51100000000E-03 0. -1.
         11   -1    0    0    0    0 -0.00000000000E+00 -0.00000000000E+00 -0.45593999997E+02  0.45594000000E+02  0.51100000000E-03 0.  1.
    9900012    2    1    2    0    0  0.14347145942E+02 -0.34353169185E+02 -0.16345791490E+02  0.50528859217E+02  0.29999998076E+02 0.  0.
         12    1    1    2    0    0 -0.14347145942E+02  0.34353169185E+02  0.16345791490E+02  0.40659140783E+02  0.00000000000E+00 0. -1.
         11    1    3    3    0    0 -0.20275931868E+01  0.36586196180E+00  0.51428649060E+00  0.21235536165E+01  0.51100000000E-03 0. -1.
        -11    1    3    3    0    0  0.19147921476E+02 -0.35592722663E+02 -0.19131437599E+02  0.44715732223E+02  0.51100000000E-03 0.  1.
        -12    1    3    3    0    0 -0.27731823469E+01  0.87369151562E+00  0.22713596182E+01  0.36895733776E+01  0.00000000000E+00 0.  1.
</event>
<event>
 7    1  0.2973028E-011  0.5052885E+02  0.7816164E-02  0.1300439E+00
        -11   -1    0    0    0    0  0.00000000000E+00  0.00000000000E+00  0.45593999997E+02  0.45594000000E+02  0.51100000000E-03 0.  1.
         11   -1    0    0    0    0 -0.00000000000E+00 -0.00000000000E+00 -0.45593999997E+02  0.45594000000E+02  0.51100000000E-03 0. -1.
    9900012    2    1    2    0    0 -0.13954733975E+01  0.69228247345E+01  0.40041144656E+02  0.50528854489E+02  0.29999983705E+02 0.  0.
         12    1    1    2    0    0  0.13954733975E+01 -0.69228247345E+01 -0.40041144656E+02  0.40659145511E+02  0.00000000000E+00 0. -1.
         11    1    3    3    0    0 -0.94263943323E+01 -0.44689733038E+01  0.23999706089E+02  0.26168961101E+02  0.51100000000E-03 0. -1.
        -11    1    3    3    0    0  0.10264542855E+02  0.52114903133E+01  0.12079752144E+02  0.16686547979E+02  0.51100000000E-03 0.  1.
         12    1    3    3    0    0 -0.22336219206E+01  0.61803077249E+01  0.39616864232E+01  0.76733454096E+01  0.00000000000E+00 0. -1.
</event>
<event>
 7    1  0.2973028E-011  0.5052885E+02  0.7816164E-02  0.1300439E+00
        -11   -1    0    0    0    0  0.00000000000E+00  0.00000000000E+00  0.45593999997E+02  0.45594000000E+02  0.51100000000E-03 0.  1.
         11   -1    0    0    0    0 -0.00000000000E+00 -0.00000000000E+00 -0.45593999997E+02  0.45594000000E+02  0.51100000000E-03 0. -1.
    9900012    2    1    2    0    0  0.33922460053E+02 -0.15732283304E+01  0.22359736986E+02  0.50528853655E+02  0.29999981169E+02 0.  0.
         12    1    1    2    0    0 -0.33922460053E+02  0.15732283304E+01 -0.22359736986E+02  0.40659146345E+02  0.00000000000E+00 0. -1.
         11    1    3    3    0    0  0.33604398114E+02  0.66857667415E+01  0.14624253193E+02  0.37253507637E+02  0.51100000000E-03 0. -1.
        -11    1    3    3    0    0 -0.43823645643E+00 -0.24909606411E+01  0.69614554363E+01  0.74066725430E+01  0.51100000000E-03 0.  1.
         12    1    3    3    0    0  0.75629839585E+00 -0.57680344309E+01  0.77402835693E+00  0.58686734751E+01  0.00000000000E+00 0. -1.
</event>
<event>
 7    1  0.2973028E-011  0.5052886E+02  0.7816164E-02  0.1300439E+00
        -11   -1    0    0    0    0  0.00000000000E+00  0.00000000000E+00  0.45593999997E+02  0.45594000000E+02  0.51100000000E-03 0. -1.
         11   -1    0    0    0    0 -0.00000000000E+00 -0.00000000000E+00 -0.45593999997E+02  0.45594000000E+02  0.51100000000E-03 0.  1.
    9900012    2    1    2    0    0 -0.30925035756E+02  0.21394296479E+02 -0.15462601067E+02  0.50528858468E+02  0.29999995800E+02 0.  0.
         12    1    1    2    0    0  0.30925035756E+02 -0.21394296479E+02  0.15462601067E+02  0.40659141532E+02  0.00000000000E+00 0. -1.
         11    1    3    3    0    0 -0.19485580605E+02  0.85809560371E+01  0.56159206794E+01  0.22019519145E+02  0.51100000000E-03 0. -1.
        -11    1    3    3    0    0 -0.50318299389E+00  0.59146392888E+01 -0.92137469025E+01  0.10960350509E+02  0.51100000000E-03 0.  1.
         12    1    3    3    0    0 -0.10936272157E+02  0.68987011529E+01 -0.11864774844E+02  0.17548988814E+02  0.00000000000E+00 0. -1.
</event>
<event>
 7    1  0.2973028E-011  0.5052886E+02  0.7816164E-02  0.1300439E+00
        -11   -1    0    0    0    0  0.00000000000E+00  0.00000000000E+00  0.45593999997E+02  0.45594000000E+02  0.51100000000E-03 0. -1.
         11   -1    0    0    0    0 -0.00000000000E+00 -0.00000000000E+00 -0.45593999997E+02  0.45594000000E+02  0.51100000000E-03 0.  1.
    9900012    2    1    2    0    0 -0.31327370087E+02 -0.20573405416E+02 -0.15763760524E+02  0.50528864829E+02  0.30000015134E+02 0.  0.
         12    1    1    2    0    0  0.31327370087E+02  0.20573405416E+02  0.15763760524E+02  0.40659135171E+02  0.00000000000E+00 0. -1.
         11    1    3    3    0    0  0.25672755385E+01 -0.94990416235E+01  0.71714521556E+00  0.98659511947E+01  0.51100000000E-03 0. -1.
        -11    1    3    3    0    0 -0.16224964245E+02 -0.37548713694E+01 -0.13215961282E+02  0.21260530488E+02  0.51100000000E-03 0.  1.
         12    1    3    3    0    0 -0.17669681381E+02 -0.73194924233E+01 -0.32649444572E+01  0.19402383146E+02  0.00000000000E+00 0. -1.
</event>
<event>
 7    1  0.2973028E-011  0.5052886E+02  0.7816164E-02  0.1300439E+00
        -11   -1    0    0    0    0  0.00000000000E+00  0.00000000000E+00  0.45593999997E+02  0.45594000000E+02  0.51100000000E-03 0.  1.
         11   -1    0    0    0    0 -0.00000000000E+00 -0.00000000000E+00 -0.45593999997E+02  0.45594000000E+02  0.51100000000E-03 0. -1.
    9900012    2    1    2    0    0  0.13318732378E+02  0.10527057311E+02  0.36945336680E+02  0.50528862403E+02  0.30000007759E+02 0.  0.
         12    1    1    2    0    0 -0.13318732378E+02 -0.10527057311E+02 -0.36945336680E+02  0.40659137597E+02  0.00000000000E+00 0. -1.
         11    1    3    3    0    0  0.63291564170E+00 -0.40618654611E+01  0.10263351566E+02  0.11056026360E+02  0.51100000000E-03 0. -1.
        -11    1    3    3    0    0  0.53214780127E+01  0.19483435705E+02  0.17479738239E+02  0.26710740242E+02  0.51100000000E-03 0.  1.
        -12    1    3    3    0    0  0.73643387237E+01 -0.48945129328E+01  0.92022468747E+01  0.12762095801E+02  0.00000000000E+00 0.  1.
</event>
<event>
 7    1  0.2973028E-011  0.5052886E+02  0.7816164E-02  0.1300439E+00
        -11   -1    0    0    0    0  0.00000000000E+00  0.00000000000E+00  0.45593999997E+02  0.45594000000E+02  0.51100000000E-03 0.  1.
         11   -1    0    0    0    0 -0.00000000000E+00 -0.00000000000E+00 -0.45593999997E+02  0.45594000000E+02  0.51100000000E-03 0. -1.
    9900012    2    1    2    0    0  0.79910910670E+01  0.38228342312E+02  0.11309364961E+02  0.50528862919E+02  0.30000009328E+02 0.  0.
         12    1    1    2    0    0 -0.79910910670E+01 -0.38228342312E+02 -0.11309364961E+02  0.40659137081E+02  0.00000000000E+00 0. -1.
         11    1    3    3    0    0  0.10863734016E+02  0.24015531904E+02 -0.24796149183E+01  0.26474798957E+02  0.51100000000E-03 0. -1.
        -11    1    3    3    0    0 -0.43558406169E+01  0.14465299215E+02  0.62204627490E+01  0.16337453471E+02  0.51100000000E-03 0.  1.
         12    1    3    3    0    0  0.14831976680E+01 -0.25248880616E+00  0.75685171302E+01  0.77166104910E+01  0.00000000000E+00 0. -1.
</event>
<event>
 7    1  0.2973028E-011  0.5052886E+02  0.7816164E-02  0.1300439E+00
        -11   -1    0    0    0    0  0.00000000000E+00  0.00000000000E+00  0.45593999997E+02  0.45594000000E+02  0.51100000000E-03 0.  1.
         11   -1    0    0    0    0 -0.00000000000E+00 -0.00000000000E+00 -0.45593999997E+02  0.45594000000E+02  0.51100000000E-03 0. -1.
    9900012    2    1    2    0    0 -0.55685289507E+01  0.12769896311E+02  0.38197997117E+02  0.50528858959E+02  0.29999997292E+02 0.  0.
         12    1    1    2    0    0  0.55685289507E+01 -0.12769896311E+02 -0.38197997117E+02  0.40659141041E+02  0.00000000000E+00 0. -1.
         11    1    3    3    0    0  0.24110512718E+01 -0.80344139752E+01  0.38937292076E+01  0.92480324158E+01  0.51100000000E-03 0. -1.
        -11    1    3    3    0    0 -0.34696215367E+01  0.14803953596E+02  0.25713335081E+02  0.29872578009E+02  0.51100000000E-03 0.  1.
        -12    1    3    3    0    0 -0.45099586858E+01  0.60003566902E+01  0.85909328286E+01  0.11408248534E+02  0.00000000000E+00 0.  1.
</event>
<event>
 7    1  0.2973028E-011  0.5052886E+02  0.7816164E-02  0.1300439E+00
        -11   -1    0    0    0    0  0.00000000000E+00  0.00000000000E+00  0.45593999997E+02  0.45594000000E+02  0.51100000000E-03 0.  1.
         11   -1    0    0    0    0 -0.00000000000E+00 -0.00000000000E+00 -0.45593999997E+02  0.45594000000E+02  0.51100000000E-03 0. -1.
    9900012    2    1    2    0    0 -0.38090349995E+02  0.62465295395E+01 -0.12777776485E+02  0.50528862455E+02  0.30000007918E+02 0.  0.
         12    1    1    2    0    0  0.38090349995E+02 -0.62465295395E+01  0.12777776485E+02  0.40659137545E+02  0.00000000000E+00 0. -1.
         11    1    3    3    0    0  0.90404058962E+00  0.69985913962E+00  0.48261456576E+01  0.49597151503E+01  0.51100000000E-03 0. -1.
        -11    1    3    3    0    0 -0.19907058552E+02 -0.37982552627E+01 -0.12146660237E+02  0.23627506818E+02  0.51100000000E-03 0.  1.
         12    1    3    3    0    0 -0.19087332032E+02  0.93449256627E+01 -0.54572619056E+01  0.21941640487E+02  0.00000000000E+00 0. -1.
</event>
<event>
 7    1  0.2973028E-011  0.5052886E+02  0.7816164E-02  0.1300439E+00
        -11   -1    0    0    0    0  0.00000000000E+00  0.00000000000E+00  0.45593999997E+02  0.45594000000E+02  0.51100000000E-03 0. -1.
         11   -1    0    0    0    0 -0.00000000000E+00 -0.00000000000E+00 -0.45593999997E+02  0.45594000000E+02  0.51100000000E-03 0.  1.
    9900012    2    1    2    0    0 -0.32832707791E+02 -0.35894731847E+01 -0.23712758301E+02  0.50528856811E+02  0.29999990762E+02 0.  0.
         12    1    1    2    0    0  0.32832707791E+02  0.35894731847E+01  0.23712758301E+02  0.40659143189E+02  0.00000000000E+00 0. -1.
         11    1    3    3    0    0 -0.17913899845E+02  0.11611566161E+02 -0.15600024699E+02  0.26440443400E+02  0.51100000000E-03 0. -1.
        -11    1    3    3    0    0 -0.13841510635E+01 -0.26741597333E+01 -0.43111356464E+01  0.52586020261E+01  0.51100000000E-03 0.  1.
         12    1    3    3    0    0 -0.13534656883E+02 -0.12526879612E+02 -0.38015979564E+01  0.18829811384E+02  0.00000000000E+00 0. -1.
</event>
<event>
 7    1  0.2973028E-011  0.5052886E+02  0.7816164E-02  0.1300439E+00
        -11   -1    0    0    0    0  0.00000000000E+00  0.00000000000E+00  0.45593999997E+02  0.45594000000E+02  0.51100000000E-03 0.  1.
         11   -1    0    0    0    0 -0.00000000000E+00 -0.00000000000E+00 -0.45593999997E+02  0.45594000000E+02  0.51100000000E-03 0. -1.
    9900012    2    1    2    0    0  0.36304504798E+02  0.43555703989E+01  0.17781385755E+02  0.50528859066E+02  0.29999997617E+02 0.  0.
         12    1    1    2    0    0 -0.36304504798E+02 -0.43555703989E+01 -0.17781385755E+02  0.40659140934E+02  0.00000000000E+00 0. -1.
         11    1    3    3    0    0  0.88827308383E+01  0.55053373079E+01 -0.10873932133E+01  0.10506858250E+02  0.51100000000E-03 0. -1.
        -11    1    3    3    0    0  0.19775915376E+02 -0.10299609949E+02  0.16804866442E+02  0.27920822525E+02  0.51100000000E-03 0.  1.
        -12    1    3    3    0    0  0.76458585834E+01  0.91498430398E+01  0.20639125265E+01  0.12101178292E+02  0.00000000000E+00 0.  1.
</event>
<event>
 7    1  0.2973028E-011  0.5052886E+02  0.7816164E-02  0.1300439E+00
        -11   -1    0    0    0    0  0.00000000000E+00  0.00000000000E+00  0.45593999997E+02  0.45594000000E+02  0.51100000000E-03 0.  1.
         11   -1    0    0    0    0 -0.00000000000E+00 -0.00000000000E+00 -0.45593999997E+02  0.45594000000E+02  0.51100000000E-03 0. -1.
    9900012    2    1    2    0    0 -0.13013624255E+02  0.36798867663E+02  0.11386603767E+02  0.50528858065E+02  0.29999994575E+02 0.  0.
         12    1    1    2    0    0  0.13013624255E+02 -0.36798867663E+02 -0.11386603767E+02  0.40659141935E+02  0.00000000000E+00 0. -1.
         11    1    3    3    0    0 -0.11771633743E+02  0.15191835684E+01  0.84895375215E+01  0.14592858777E+02  0.51100000000E-03 0. -1.
        -11    1    3    3    0    0  0.17472351104E+01  0.17605806845E+02 -0.46565068492E+00  0.17698420721E+02  0.51100000000E-03 0.  1.
         12    1    3    3    0    0 -0.29892256231E+01  0.17673877250E+02  0.33627169305E+01  0.18237578568E+02  0.00000000000E+00 0. -1.
</event>
<event>
 7    1  0.2973028E-011  0.5052876E+02  0.7816164E-02  0.1300439E+00
        -11   -1    0    0    0    0  0.00000000000E+00  0.00000000000E+00  0.45593999997E+02  0.45594000000E+02  0.51100000000E-03 0. -1.
         11   -1    0    0    0    0 -0.00000000000E+00 -0.00000000000E+00 -0.45593999997E+02  0.45594000000E+02  0.51100000000E-03 0.  1.
    9900012    2    1    2    0    0  0.87326128559E+01  0.97159145976E+01 -0.38503453790E+02  0.50528763934E+02  0.29999708452E+02 0.  0.
         12    1    1    2    0    0 -0.87326128559E+01 -0.97159145976E+01  0.38503453790E+02  0.40659236066E+02  0.00000000000E+00 0. -1.
         11    1    3    3    0    0  0.16281147360E+02 -0.33129120585E+01 -0.25287387437E+02  0.30257281922E+02  0.51100000000E-03 0. -1.
        -11    1    3    3    0    0 -0.53526857307E+01  0.85955660543E+01 -0.10660623268E+02  0.14703193158E+02  0.51100000000E-03 0.  1.
         12    1    3    3    0    0 -0.21958487734E+01  0.44332606017E+01 -0.25554430848E+01  0.55682888537E+01  0.00000000000E+00 0. -1.
</event>
<event>
 7    1  0.2973028E-011  0.5052889E+02  0.7816164E-02  0.1300439E+00
        -11   -1    0    0    0    0  0.00000000000E+00  0.00000000000E+00  0.45593999997E+02  0.45594000000E+02  0.51100000000E-03 0.  1.
         11   -1    0    0    0    0 -0.00000000000E+00 -0.00000000000E+00 -0.45593999997E+02  0.45594000000E+02  0.51100000000E-03 0. -1.
    9900012    2    1    2    0    0 -0.25255110948E+02  0.23805495757E+02  0.21181151064E+02  0.50528887643E+02  0.30000084480E+02 0.  0.
         12    1    1    2    0    0  0.25255110948E+02 -0.23805495757E+02 -0.21181151064E+02  0.40659112357E+02  0.00000000000E+00 0. -1.
         11    1    3    3    0    0 -0.28138720010E+01 -0.12964859657E+01 -0.47478875600E+01  0.56693198922E+01  0.51100000000E-03 0. -1.
        -11    1    3    3    0    0 -0.12807630469E+02  0.23532351388E+02  0.20068744153E+02  0.33474788307E+02  0.51100000000E-03 0.  1.
         12    1    3    3    0    0 -0.96336084777E+01  0.15696303346E+01  0.58602944716E+01  0.11384779444E+02  0.00000000000E+00 0. -1.
</event>
<event>
 7    1  0.2973028E-011  0.5052886E+02  0.7816164E-02  0.1300439E+00
        -11   -1    0    0    0    0  0.00000000000E+00  0.00000000000E+00  0.45593999997E+02  0.45594000000E+02  0.51100000000E-03 0. -1.
         11   -1    0    0    0    0 -0.00000000000E+00 -0.00000000000E+00 -0.45593999997E+02  0.45594000000E+02  0.51100000000E-03 0.  1.
    9900012    2    1    2    0    0  0.23650492707E+02 -0.32140414817E+02  0.77983048628E+01  0.50528860454E+02  0.30000001835E+02 0.  0.
         12    1    1    2    0    0 -0.23650492707E+02  0.32140414817E+02 -0.77983048628E+01  0.40659139546E+02  0.00000000000E+00 0. -1.
         11    1    3    3    0    0 -0.25664791645E+01  0.15510876349E+01  0.11746241458E+01  0.32206257618E+01  0.51100000000E-03 0. -1.
        -11    1    3    3    0    0  0.21816941519E+02 -0.33241504187E+02  0.51298761401E+00  0.39764804720E+02  0.51100000000E-03 0.  1.
         12    1    3    3    0    0  0.44000303528E+01 -0.44999826513E+00  0.61106931030E+01  0.75434299720E+01  0.00000000000E+00 0. -1.
</event>
<event>
 7    1  0.2973028E-011  0.5052886E+02  0.7816164E-02  0.1300439E+00
        -11   -1    0    0    0    0  0.00000000000E+00  0.00000000000E+00  0.45593999997E+02  0.45594000000E+02  0.51100000000E-03 0.  1.
         11   -1    0    0    0    0 -0.00000000000E+00 -0.00000000000E+00 -0.45593999997E+02  0.45594000000E+02  0.51100000000E-03 0. -1.
    9900012    2    1    2    0    0  0.20471070856E+02 -0.13700709069E+02  0.32347969791E+02  0.50528864242E+02  0.30000013351E+02 0.  0.
         12    1    1    2    0    0 -0.20471070856E+02  0.13700709069E+02 -0.32347969791E+02  0.40659135758E+02  0.00000000000E+00 0. -1.
         11    1    3    3    0    0  0.76976902999E+01  0.19926487127E+01  0.50091133693E+01  0.93976753431E+01  0.51100000000E-03 0. -1.
        -11    1    3    3    0    0 -0.60546699316E+01 -0.87754524196E+01  0.89855647122E+01  0.13943025734E+02  0.51100000000E-03 0.  1.
        -12    1    3    3    0    0  0.18828050488E+02 -0.69179053620E+01  0.18353291709E+02  0.27188163166E+02  0.00000000000E+00 0.  1.
</event>
<event>
 7    1  0.2973028E-011  0.5052887E+02  0.7816164E-02  0.1300439E+00
        -11   -1    0    0    0    0  0.00000000000E+00  0.00000000000E+00  0.45593999997E+02  0.45594000000E+02  0.51100000000E-03 0.  1.
         11   -1    0    0    0    0 -0.00000000000E+00 -0.00000000000E+00 -0.45593999997E+02  0.45594000000E+02  0.51100000000E-03 0. -1.
    9900012    2    1    2    0    0  0.10770161562E+02 -0.18338582985E+02  0.34653499155E+02  0.50528868065E+02  0.30000024971E+02 0.  0.
         12    1    1    2    0    0 -0.10770161562E+02  0.18338582985E+02 -0.34653499155E+02  0.40659131935E+02  0.00000000000E+00 0. -1.
         11    1    3    3    0    0  0.28709930020E+01 -0.22181297334E+02  0.14358590300E+02  0.26578594167E+02  0.51100000000E-03 0. -1.
        -11    1    3    3    0    0  0.61854057076E+01  0.14620640161E+01  0.20019283761E+02  0.21004013843E+02  0.51100000000E-03 0.  1.
        -12    1    3    3    0    0  0.17137628527E+01  0.23806503326E+01  0.27562509450E+00  0.29462600554E+01  0.00000000000E+00 0.  1.
</event>
<event>
 7    1  0.2973028E-011  0.5052883E+02  0.7816164E-02  0.1300439E+00
        -11   -1    0    0    0    0  0.00000000000E+00  0.00000000000E+00  0.45593999997E+02  0.45594000000E+02  0.51100000000E-03 0.  1.
         11   -1    0    0    0    0 -0.00000000000E+00 -0.00000000000E+00 -0.45593999997E+02  0.45594000000E+02  0.51100000000E-03 0. -1.
    9900012    2    1    2    0    0 -0.38260979166E+02  0.11799395569E+02  0.70738568225E+01  0.50528834823E+02  0.29999923927E+02 0.  0.
         12    1    1    2    0    0  0.38260979166E+02 -0.11799395569E+02 -0.70738568225E+01  0.40659165177E+02  0.00000000000E+00 0. -1.
         11    1    3    3    0    0 -0.27355691938E+02  0.88028428782E+01 -0.31824460957E+01  0.28912832576E+02  0.51100000000E-03 0. -1.
        -11    1    3    3    0    0  0.21348872342E+01 -0.37724428069E+01  0.24236415010E+01  0.49661963936E+01  0.51100000000E-03 0.  1.
        -12    1    3    3    0    0 -0.13040174462E+02  0.67689954980E+01  0.78326614172E+01  0.16649805853E+02  0.00000000000E+00 0.  1.
</event>
<event>
 7    1  0.2973028E-011  0.5052885E+02  0.7816164E-02  0.1300439E+00
        -11   -1    0    0    0    0  0.00000000000E+00  0.00000000000E+00  0.45593999997E+02  0.45594000000E+02  0.51100000000E-03 0.  1.
         11   -1    0    0    0    0 -0.00000000000E+00 -0.00000000000E+00 -0.45593999997E+02  0.45594000000E+02  0.51100000000E-03 0. -1.
    9900012    2    1    2    0    0  0.24932906767E+02 -0.23901032624E+02  0.21453602836E+02  0.50528852505E+02  0.29999977675E+02 0.  0.
         12    1    1    2    0    0 -0.24932906767E+02  0.23901032624E+02 -0.21453602836E+02  0.40659147495E+02  0.00000000000E+00 0. -1.
         11    1    3    3    0    0  0.15881636047E+01  0.58166839591E+01 -0.92606532892E+00  0.61003010720E+01  0.51100000000E-03 0. -1.
        -11    1    3    3    0    0  0.13195665743E+02 -0.17385698159E+02  0.90599717586E+01  0.23631994910E+02  0.51100000000E-03 0.  1.
         12    1    3    3    0    0  0.10149077419E+02 -0.12332018424E+02  0.13319696406E+02  0.20796556523E+02  0.00000000000E+00 0. -1.
</event>
<event>
 7    1  0.3044464E-011  0.5052890E+02  0.7816164E-02  0.1300439E+00
        -11   -1    0    0    0    0  0.00000000000E+00  0.00000000000E+00  0.45593999997E+02  0.45594000000E+02  0.51100000000E-03 0.  1.
         11   -1    0    0    0    0 -0.00000000000E+00 -0.00000000000E+00 -0.45593999997E+02  0.45594000000E+02  0.51100000000E-03 0. -1.
    9900012    2    1    2    0    0  0.12342915870E+02 -0.28981461486E+02  0.25707771703E+02  0.50528902519E+02  0.30000129696E+02 0.  0.
         12    1    1    2    0    0 -0.12342915870E+02  0.28981461486E+02 -0.25707771703E+02  0.40659097481E+02  0.00000000000E+00 0. -1.
         11    1    3    3    0    0  0.15773912964E+01 -0.24984014809E+01 -0.31554369120E+01  0.43228411524E+01  0.51100000000E-03 0. -1.
        -11    1    3    3    0    0  0.13160039502E+02 -0.29457271322E+02  0.25734999128E+02  0.41269936440E+02  0.51100000000E-03 0.  1.
        -12    1    3    3    0    0 -0.23945149285E+01  0.29742113160E+01  0.31282094868E+01  0.49361249263E+01  0.00000000000E+00 0.  1.
</event>
<event>
 7    1  0.2973028E-011  0.5052888E+02  0.7816164E-02  0.1300439E+00
        -11   -1    0    0    0    0  0.00000000000E+00  0.00000000000E+00  0.45593999997E+02  0.45594000000E+02  0.51100000000E-03 0.  1.
         11   -1    0    0    0    0 -0.00000000000E+00 -0.00000000000E+00 -0.45593999997E+02  0.45594000000E+02  0.51100000000E-03 0. -1.
    9900012    2    1    2    0    0  0.38836186996E+02  0.56593541995E+01  0.10624791024E+02  0.50528881777E+02  0.30000066649E+02 0.  0.
         12    1    1    2    0    0 -0.38836186996E+02 -0.56593541995E+01 -0.10624791024E+02  0.40659118223E+02  0.00000000000E+00 0. -1.
         11    1    3    3    0    0  0.88258722155E+01 -0.15246481557E+00  0.74672920678E+01  0.11561994507E+02  0.51100000000E-03 0. -1.
        -11    1    3    3    0    0  0.26430355015E+02  0.11278889951E+00 -0.64787550215E+01  0.27213060365E+02  0.51100000000E-03 0.  1.
        -12    1    3    3    0    0  0.35799597659E+01  0.56990301155E+01  0.96362539778E+01  0.11753826905E+02  0.00000000000E+00 0.  1.
</event>
<event>
 7    1  0.2973028E-011  0.5052886E+02  0.7816164E-02  0.1300439E+00
        -11   -1    0    0    0    0  0.00000000000E+00  0.00000000000E+00  0.45593999997E+02  0.45594000000E+02  0.51100000000E-03 0.  1.
         11   -1    0    0    0    0 -0.00000000000E+00 -0.00000000000E+00 -0.45593999997E+02  0.45594000000E+02  0.51100000000E-03 0. -1.
    9900012    2    1    2    0    0  0.30589143032E+02 -0.13120563306E+02  0.23352108764E+02  0.50528857896E+02  0.29999994061E+02 0.  0.
         12    1    1    2    0    0 -0.30589143032E+02  0.13120563306E+02 -0.23352108764E+02  0.40659142104E+02  0.00000000000E+00 0. -1.
         11    1    3    3    0    0  0.27254335229E+01 -0.10194372043E+02 -0.15420049520E+00  0.10553529613E+02  0.51100000000E-03 0. -1.
        -11    1    3    3    0    0  0.24942188778E+02 -0.50658109526E+01  0.12434801729E+02  0.28326657338E+02  0.51100000000E-03 0.  1.
        -12    1    3    3    0    0  0.29215207311E+01  0.21396196896E+01  0.11071507531E+02  0.11648670946E+02  0.00000000000E+00 0.  1.
</event>
<event>
 7    1  0.2973028E-011  0.5052886E+02  0.7816164E-02  0.1300439E+00
        -11   -1    0    0    0    0  0.00000000000E+00  0.00000000000E+00  0.45593999997E+02  0.45594000000E+02  0.51100000000E-03 0. -1.
         11   -1    0    0    0    0 -0.00000000000E+00 -0.00000000000E+00 -0.45593999997E+02  0.45594000000E+02  0.51100000000E-03 0.  1.
    9900012    2    1    2    0    0 -0.33443379438E+02 -0.75366851452E+01 -0.21861017885E+02  0.50528863829E+02  0.30000012094E+02 0.  0.
         12    1    1    2    0    0  0.33443379438E+02  0.75366851452E+01  0.21861017885E+02  0.40659136171E+02  0.00000000000E+00 0. -1.
         11    1    3    3    0    0 -0.72579046473E+01  0.19699197693E+01  0.16850086403E+01  0.77069460973E+01  0.51100000000E-03 0. -1.
        -11    1    3    3    0    0 -0.13339967614E+02 -0.14617888419E+02 -0.20831163863E+02  0.28732817229E+02  0.51100000000E-03 0.  1.
        -12    1    3    3    0    0 -0.12845507177E+02  0.51112835043E+01 -0.27148626627E+01  0.14089100502E+02  0.00000000000E+00 0.  1.
</event>
<event>
 7    1  0.2973028E-011  0.5052887E+02  0.7816164E-02  0.1300439E+00
        -11   -1    0    0    0    0  0.00000000000E+00  0.00000000000E+00  0.45593999997E+02  0.45594000000E+02  0.51100000000E-03 0. -1.
         11   -1    0    0    0    0 -0.00000000000E+00 -0.00000000000E+00 -0.45593999997E+02  0.45594000000E+02  0.51100000000E-03 0.  1.
    9900012    2    1    2    0    0  0.14865159826E+01 -0.25536967152E+02 -0.31604087259E+02  0.50528871227E+02  0.30000034583E+02 0.  0.
         12    1    1    2    0    0 -0.14865159826E+01  0.25536967152E+02  0.31604087259E+02  0.40659128773E+02  0.00000000000E+00 0. -1.
         11    1    3    3    0    0 -0.95705641948E+01 -0.17387664783E+02 -0.16748930670E+02  0.25970238052E+02  0.51100000000E-03 0. -1.
        -11    1    3    3    0    0  0.99611645071E+01 -0.10207297666E+02 -0.61239782687E+01  0.15521495871E+02  0.51100000000E-03 0.  1.
         12    1    3    3    0    0  0.10959156704E+01  0.20579952971E+01 -0.87311783206E+01  0.90371373048E+01  0.00000000000E+00 0. -1.
</event>
<event>
 7    1  0.2973028E-011  0.5052886E+02  0.7816164E-02  0.1300439E+00
        -11   -1    0    0    0    0  0.00000000000E+00  0.00000000000E+00  0.45593999997E+02  0.45594000000E+02  0.51100000000E-03 0.  1.
         11   -1    0    0    0    0 -0.00000000000E+00 -0.00000000000E+00 -0.45593999997E+02  0.45594000000E+02  0.51100000000E-03 0. -1.
    9900012    2    1    2    0    0  0.26024172550E+02 -0.26670869751E+01  0.31125471280E+02  0.50528857458E+02  0.29999992730E+02 0.  0.
         12    1    1    2    0    0 -0.26024172550E+02  0.26670869751E+01 -0.31125471280E+02  0.40659142542E+02  0.00000000000E+00 0. -1.
         11    1    3    3    0    0 -0.16607025461E+01 -0.94658585420E+01  0.11116981599E+02  0.14695158762E+02  0.51100000000E-03 0. -1.
        -11    1    3    3    0    0  0.27157277933E+02  0.51835008450E+01  0.17230576126E+02  0.32577280114E+02  0.51100000000E-03 0.  1.
         12    1    3    3    0    0  0.52759716382E+00  0.16152707220E+01  0.27779135542E+01  0.32564185829E+01  0.00000000000E+00 0. -1.
</event>
<event>
 7    1  0.2973028E-011  0.5052886E+02  0.7816164E-02  0.1300439E+00
        -11   -1    0    0    0    0  0.00000000000E+00  0.00000000000E+00  0.45593999997E+02  0.45594000000E+02  0.51100000000E-03 0.  1.
         11   -1    0    0    0    0 -0.00000000000E+00 -0.00000000000E+00 -0.45593999997E+02  0.45594000000E+02  0.51100000000E-03 0. -1.
    9900012    2    1    2    0    0 -0.35651419800E+02  0.14023647851E+02  0.13619069495E+02  0.50528862199E+02  0.30000007140E+02 0.  0.
         12    1    1    2    0    0  0.35651419800E+02 -0.14023647851E+02 -0.13619069495E+02  0.40659137801E+02  0.00000000000E+00 0. -1.
         11    1    3    3    0    0 -0.60281817946E+01  0.10896029198E+01 -0.66984201254E+01  0.90771715148E+01  0.51100000000E-03 0. -1.
        -11    1    3    3    0    0 -0.96995398466E+01  0.93898282134E+01  0.15679544771E+02  0.20690530965E+02  0.51100000000E-03 0.  1.
         12    1    3    3    0    0 -0.19923698159E+02  0.35442167182E+01  0.46379448488E+01  0.20761159719E+02  0.00000000000E+00 0. -1.
</event>
<event>
 7    1  0.2973028E-011  0.5052886E+02  0.7816164E-02  0.1300439E+00
        -11   -1    0    0    0    0  0.00000000000E+00  0.00000000000E+00  0.45593999997E+02  0.45594000000E+02  0.51100000000E-03 0.  1.
         11   -1    0    0    0    0 -0.00000000000E+00 -0.00000000000E+00 -0.45593999997E+02  0.45594000000E+02  0.51100000000E-03 0. -1.
    9900012    2    1    2    0    0  0.38148352405E+02 -0.65002223351E+01 -0.12474600682E+02  0.50528863956E+02  0.30000012482E+02 0.  0.
         12    1    1    2    0    0 -0.38148352405E+02  0.65002223351E+01  0.12474600682E+02  0.40659136044E+02  0.00000000000E+00 0. -1.
         11    1    3    3    0    0 -0.48859514263E+01 -0.91626149006E+00 -0.16041454112E+01  0.52235370411E+01  0.51100000000E-03 0. -1.
        -11    1    3    3    0    0  0.28911672735E+02 -0.53585185766E+00 -0.83427753353E+01  0.30096077121E+02  0.51100000000E-03 0.  1.
         12    1    3    3    0    0  0.14122631097E+02 -0.50481089874E+01 -0.25276799350E+01  0.15209249794E+02  0.00000000000E+00 0. -1.
</event>
<event>
 7    1  0.2973028E-011  0.5052885E+02  0.7816164E-02  0.1300439E+00
        -11   -1    0    0    0    0  0.00000000000E+00  0.00000000000E+00  0.45593999997E+02  0.45594000000E+02  0.51100000000E-03 0. -1.
         11   -1    0    0    0    0 -0.00000000000E+00 -0.00000000000E+00 -0.45593999997E+02  0.45594000000E+02  0.51100000000E-03 0.  1.
    9900012    2    1    2    0    0 -0.21440463055E+02 -0.14328349966E+02 -0.31435190998E+02  0.50528852175E+02  0.29999976671E+02 0.  0.
         12    1    1    2    0    0  0.21440463055E+02  0.14328349966E+02  0.31435190998E+02  0.40659147825E+02  0.00000000000E+00 0. -1.
         11    1    3    3    0    0 -0.11606741171E+02 -0.15335170791E+02 -0.13340254726E+02  0.23406116726E+02  0.51100000000E-03 0. -1.
        -11    1    3    3    0    0  0.29395172557E+01  0.58358094332E+01 -0.53809126166E+01  0.84647300184E+01  0.51100000000E-03 0.  1.
        -12    1    3    3    0    0 -0.12773239140E+02 -0.48289886075E+01 -0.12714023656E+02  0.18658005430E+02  0.00000000000E+00 0.  1.
</event>
<event>
 7    1  0.2973028E-011  0.5052886E+02  0.7816164E-02  0.1300439E+00
        -11   -1    0    0    0    0  0.00000000000E+00  0.00000000000E+00  0.45593999997E+02  0.45594000000E+02  0.51100000000E-03 0.  1.
         11   -1    0    0    0    0 -0.00000000000E+00 -0.00000000000E+00 -0.45593999997E+02  0.45594000000E+02  0.51100000000E-03 0. -1.
    9900012    2    1    2    0    0  0.19658620144E+01  0.28129183319E+02  0.29292492729E+02  0.50528859602E+02  0.29999999246E+02 0.  0.
         12    1    1    2    0    0 -0.19658620144E+01 -0.28129183319E+02 -0.29292492729E+02  0.40659140398E+02  0.00000000000E+00 0. -1.
         11    1    3    3    0    0 -0.23407654744E+01  0.82355386851E+01  0.21504695907E+02  0.23146386905E+02  0.51100000000E-03 0. -1.
        -11    1    3    3    0    0 -0.17316220755E+01  0.77031268342E+01  0.10868910626E+02  0.13433908459E+02  0.51100000000E-03 0.  1.
         12    1    3    3    0    0  0.60382495644E+01  0.12190517799E+02 -0.30811138037E+01  0.13948564238E+02  0.00000000000E+00 0. -1.
</event>
<event>
 7    1  0.2973028E-011  0.5052894E+02  0.7816164E-02  0.1300439E+00
        -11   -1    0    0    0    0  0.00000000000E+00  0.00000000000E+00  0.45593999997E+02  0.45594000000E+02  0.51100000000E-03 0.  1.
         11   -1    0    0    0    0 -0.00000000000E+00 -0.00000000000E+00 -0.45593999997E+02  0.45594000000E+02  0.51100000000E-03 0. -1.
    9900012    2    1    2    0    0 -0.12070386289E+02  0.35072729506E+02  0.16654389008E+02  0.50528938853E+02  0.30000240136E+02 0.  0.
         12    1    1    2    0    0  0.12070386289E+02 -0.35072729506E+02 -0.16654389008E+02  0.40659061147E+02  0.00000000000E+00 0. -1.
         11    1    3    3    0    0  0.73912262023E+00  0.65958789003E-01  0.41236597040E+01  0.41898952761E+01  0.51100000000E-03 0. -1.
        -11    1    3    3    0    0 -0.95059941481E+01  0.22566499484E+02 -0.45962648411E+01  0.24914583570E+02  0.51100000000E-03 0.  1.
        -12    1    3    3    0    0 -0.33035147607E+01  0.12440271233E+02  0.17126994145E+02  0.21424460007E+02  0.00000000000E+00 0.  1.
</event>
<event>
 7    1  0.2973028E-011  0.5052886E+02  0.7816164E-02  0.1300439E+00
        -11   -1    0    0    0    0  0.00000000000E+00  0.00000000000E+00  0.45593999997E+02  0.45594000000E+02  0.51100000000E-03 0.  1.
         11   -1    0    0    0    0 -0.00000000000E+00 -0.00000000000E+00 -0.45593999997E+02  0.45594000000E+02  0.51100000000E-03 0. -1.
    9900012    2    1    2    0    0 -0.38557920964E+02  0.12740719962E+02  0.20313614286E+01  0.50528860271E+02  0.30000001280E+02 0.  0.
         12    1    1    2    0    0  0.38557920964E+02 -0.12740719962E+02 -0.20313614286E+01  0.40659139729E+02  0.00000000000E+00 0. -1.
         11    1    3    3    0    0 -0.22328925549E+01 -0.75762960519E+01 -0.26577638296E+01  0.83336534523E+01  0.51100000000E-03 0. -1.
        -11    1    3    3    0    0 -0.26150598592E+02  0.15289138730E+02  0.56166821985E+01  0.30808419125E+02  0.51100000000E-03 0.  1.
         12    1    3    3    0    0 -0.10174429817E+02  0.50278772847E+01 -0.92755694031E+00  0.11386787693E+02  0.00000000000E+00 0. -1.
</event>
<event>
 7    1  0.2973028E-011  0.5052889E+02  0.7816164E-02  0.1300439E+00
        -11   -1    0    0    0    0  0.00000000000E+00  0.00000000000E+00  0.45593999997E+02  0.45594000000E+02  0.51100000000E-03 0.  1.
         11   -1    0    0    0    0 -0.00000000000E+00 -0.00000000000E+00 -0.45593999997E+02  0.45594000000E+02  0.51100000000E-03 0. -1.
    9900012    2    1    2    0    0  0.32073863199E+02  0.68024243740E+01  0.24044915115E+02  0.50528885146E+02  0.30000076889E+02 0.  0.
         12    1    1    2    0    0 -0.32073863199E+02 -0.68024243740E+01 -0.24044915115E+02  0.40659114854E+02  0.00000000000E+00 0. -1.
         11    1    3    3    0    0 -0.30111240308E+01  0.71212424761E+00  0.75578809591E+01  0.81667345816E+01  0.51100000000E-03 0. -1.
        -11    1    3    3    0    0  0.23260082903E+02 -0.16893285861E+01  0.43650411004E+01  0.23726332877E+02  0.51100000000E-03 0.  1.
        -12    1    3    3    0    0  0.11824904326E+02  0.77796287126E+01  0.12121993055E+02  0.18635817687E+02  0.00000000000E+00 0.  1.
</event>
<event>
 7    1  0.2973028E-011  0.5052887E+02  0.7816164E-02  0.1300439E+00
        -11   -1    0    0    0    0  0.00000000000E+00  0.00000000000E+00  0.45593999997E+02  0.45594000000E+02  0.51100000000E-03 0.  1.
         11   -1    0    0    0    0 -0.00000000000E+00 -0.00000000000E+00 -0.45593999997E+02  0.45594000000E+02  0.51100000000E-03 0. -1.
    9900012    2    1    2    0    0 -0.10678569149E+02 -0.16744243504E+02  0.35479054552E+02  0.50528870134E+02  0.30000031258E+02 0.  0.
         12    1    1    2    0    0  0.10678569149E+02  0.16744243504E+02 -0.35479054552E+02  0.40659129866E+02  0.00000000000E+00 0. -1.
         11    1    3    3    0    0 -0.10355550051E+02 -0.21935161402E+01  0.13059871265E+02  0.16810983542E+02  0.51100000000E-03 0. -1.
        -11    1    3    3    0    0  0.34498248083E+01 -0.74186286233E+01 -0.16378415716E+01  0.83438520560E+01  0.51100000000E-03 0.  1.
        -12    1    3    3    0    0 -0.37728439057E+01 -0.71320987402E+01  0.24057024859E+02  0.25374034536E+02  0.00000000000E+00 0.  1.
</event>
<event>
 7    1  0.2973028E-011  0.5052887E+02  0.7816164E-02  0.1300439E+00
        -11   -1    0    0    0    0  0.00000000000E+00  0.00000000000E+00  0.45593999997E+02  0.45594000000E+02  0.51100000000E-03 0.  1.
         11   -1    0    0    0    0 -0.00000000000E+00 -0.00000000000E+00 -0.45593999997E+02  0.45594000000E+02  0.51100000000E-03 0. -1.
    9900012    2    1    2    0    0  0.68774119384E+01 -0.16795861199E+02  0.36383584273E+02  0.50528868763E+02  0.30000027092E+02 0.  0.
         12    1    1    2    0    0 -0.68774119384E+01  0.16795861199E+02 -0.36383584273E+02  0.40659131237E+02  0.00000000000E+00 0. -1.
         11    1    3    3    0    0 -0.33882583500E+01 -0.16487970921E+02  0.52971728122E+01  0.17646345792E+02  0.51100000000E-03 0. -1.
        -11    1    3    3    0    0  0.15285365239E+01 -0.78660731080E+00  0.82475229413E+01  0.84247735812E+01  0.51100000000E-03 0.  1.
         12    1    3    3    0    0  0.87371337645E+01  0.47871703305E+00  0.22838888520E+02  0.24457749390E+02  0.00000000000E+00 0. -1.
</event>
<event>
 7    1  0.2973028E-011  0.5052894E+02  0.7816164E-02  0.1300439E+00
        -11   -1    0    0    0    0  0.00000000000E+00  0.00000000000E+00  0.45593999997E+02  0.45594000000E+02  0.51100000000E-03 0.  1.
         11   -1    0    0    0    0 -0.00000000000E+00 -0.00000000000E+00 -0.45593999997E+02  0.45594000000E+02  0.51100000000E-03 0. -1.
    9900012    2    1    2    0    0  0.10398466371E+02  0.88752173743E+01  0.38291799388E+02  0.50528935984E+02  0.30000231415E+02 0.  0.
         12    1    1    2    0    0 -0.10398466371E+02 -0.88752173743E+01 -0.38291799388E+02  0.40659064016E+02  0.00000000000E+00 0. -1.
         11    1    3    3    0    0  0.12031515752E+01 -0.75926510933E+01  0.12040960961E+01  0.77811163728E+01  0.51100000000E-03 0. -1.
        -11    1    3    3    0    0 -0.95817036934E+00  0.67264301415E+01  0.16153478168E+02  0.17524206404E+02  0.51100000000E-03 0.  1.
         12    1    3    3    0    0  0.10153485165E+02  0.97414383261E+01  0.20934225124E+02  0.25223613207E+02  0.00000000000E+00 0. -1.
</event>
<event>
 7    1  0.2973028E-011  0.5052886E+02  0.7816164E-02  0.1300439E+00
        -11   -1    0    0    0    0  0.00000000000E+00  0.00000000000E+00  0.45593999997E+02  0.45594000000E+02  0.51100000000E-03 0.  1.
         11   -1    0    0    0    0 -0.00000000000E+00 -0.00000000000E+00 -0.45593999997E+02  0.45594000000E+02  0.51100000000E-03 0. -1.
    9900012    2    1    2    0    0  0.32605189750E+02  0.16319423735E+02  0.17992883899E+02  0.50528857600E+02  0.29999993161E+02 0.  0.
         12    1    1    2    0    0 -0.32605189750E+02 -0.16319423735E+02 -0.17992883899E+02  0.40659142400E+02  0.00000000000E+00 0. -1.
         11    1    3    3    0    0  0.27217133586E+02  0.12031787273E+02  0.25281024693E+01  0.29865156419E+02  0.51100000000E-03 0. -1.
        -11    1    3    3    0    0  0.34315790443E+01  0.55411815738E+01  0.16774613805E+02  0.17996335642E+02  0.51100000000E-03 0.  1.
         12    1    3    3    0    0  0.19564771202E+01 -0.12535451111E+01 -0.13098323751E+01  0.26673655389E+01  0.00000000000E+00 0. -1.
</event>
<event>
 7    1  0.2973028E-011  0.5052887E+02  0.7816164E-02  0.1300439E+00
        -11   -1    0    0    0    0  0.00000000000E+00  0.00000000000E+00  0.45593999997E+02  0.45594000000E+02  0.51100000000E-03 0.  1.
         11   -1    0    0    0    0 -0.00000000000E+00 -0.00000000000E+00 -0.45593999997E+02  0.45594000000E+02  0.51100000000E-03 0. -1.
    9900012    2    1    2    0    0  0.15364222258E+02  0.24303237662E+02  0.28748184332E+02  0.50528870781E+02  0.30000033226E+02 0.  0.
         12    1    1    2    0    0 -0.15364222258E+02 -0.24303237662E+02 -0.28748184332E+02  0.40659129219E+02  0.00000000000E+00 0. -1.
         11    1    3    3    0    0  0.10961571964E+02  0.22372004160E+01  0.24042229246E+02  0.26517728278E+02  0.51100000000E-03 0. -1.
        -11    1    3    3    0    0  0.50203826764E+01  0.95283137802E+01  0.38184374394E+01  0.11426874921E+02  0.51100000000E-03 0.  1.
         12    1    3    3    0    0 -0.61773238270E+00  0.12537723466E+02  0.88751764635E+00  0.12584267582E+02  0.00000000000E+00 0. -1.
</event>
<event>
 7    1  0.2973028E-011  0.5052884E+02  0.7816164E-02  0.1300439E+00
        -11   -1    0    0    0    0  0.00000000000E+00  0.00000000000E+00  0.45593999997E+02  0.45594000000E+02  0.51100000000E-03 0.  1.
         11   -1    0    0    0    0 -0.00000000000E+00 -0.00000000000E+00 -0.45593999997E+02  0.45594000000E+02  0.51100000000E-03 0. -1.
    9900012    2    1    2    0    0 -0.28442900737E+02  0.65347912826E+01  0.28310157793E+02  0.50528841945E+02  0.29999945577E+02 0.  0.
         12    1    1    2    0    0  0.28442900737E+02 -0.65347912826E+01 -0.28310157793E+02  0.40659158055E+02  0.00000000000E+00 0. -1.
         11    1    3    3    0    0 -0.11210075206E+02  0.83425904381E+01 -0.12512944623E+01  0.14029623639E+02  0.51100000000E-03 0. -1.
        -11    1    3    3    0    0 -0.18839056483E+02 -0.52143174061E+00  0.28541883963E+02  0.34202647276E+02  0.51100000000E-03 0.  1.
         12    1    3    3    0    0  0.16062309524E+01 -0.12863674149E+01  0.10195682920E+01  0.22965710310E+01  0.00000000000E+00 0. -1.
</event>
<event>
 7    1  0.2973028E-011  0.5052886E+02  0.7816164E-02  0.1300439E+00
        -11   -1    0    0    0    0  0.00000000000E+00  0.00000000000E+00  0.45593999997E+02  0.45594000000E+02  0.51100000000E-03 0.  1.
         11   -1    0    0    0    0 -0.00000000000E+00 -0.00000000000E+00 -0.45593999997E+02  0.45594000000E+02  0.51100000000E-03 0. -1.
    9900012    2    1    2    0    0  0.21345421592E+02 -0.29371823247E+02  0.18298485594E+02  0.50528860820E+02  0.30000002949E+02 0.  0.
         12    1    1    2    0    0 -0.21345421592E+02  0.29371823247E+02 -0.18298485594E+02  0.40659139180E+02  0.00000000000E+00 0. -1.
         11    1    3    3    0    0  0.90218197722E+01 -0.27281513085E+01  0.17729377108E+02  0.20079015276E+02  0.51100000000E-03 0. -1.
        -11    1    3    3    0    0  0.35672960334E+01 -0.15496868763E+02  0.26554931923E+01  0.16122350535E+02  0.51100000000E-03 0.  1.
         12    1    3    3    0    0  0.87563057865E+01 -0.11146803176E+02 -0.20863847062E+01  0.14327495008E+02  0.00000000000E+00 0. -1.
</event>
<event>
 7    1  0.2973028E-011  0.5052886E+02  0.7816164E-02  0.1300439E+00
        -11   -1    0    0    0    0  0.00000000000E+00  0.00000000000E+00  0.45593999997E+02  0.45594000000E+02  0.51100000000E-03 0.  1.
         11   -1    0    0    0    0 -0.00000000000E+00 -0.00000000000E+00 -0.45593999997E+02  0.45594000000E+02  0.51100000000E-03 0. -1.
    9900012    2    1    2    0    0 -0.20409311221E+02 -0.89014477599E+01  0.34020429345E+02  0.50528863640E+02  0.30000011521E+02 0.  0.
         12    1    1    2    0    0  0.20409311221E+02  0.89014477599E+01 -0.34020429345E+02  0.40659136360E+02  0.00000000000E+00 0. -1.
         11    1    3    3    0    0 -0.32249122963E+01 -0.45330973336E+01 -0.11667639471E+01  0.56842210658E+01  0.51100000000E-03 0. -1.
        -11    1    3    3    0    0  0.88203052859E+00  0.26879323675E+01  0.20030694088E+02  0.20229475133E+02  0.51100000000E-03 0.  1.
        -12    1    3    3    0    0 -0.18066429453E+02 -0.70562827938E+01  0.15156499204E+02  0.24615167442E+02  0.00000000000E+00 0.  1.
</event>
<event>
 7    1  0.2973028E-011  0.5052886E+02  0.7816164E-02  0.1300439E+00
        -11   -1    0    0    0    0  0.00000000000E+00  0.00000000000E+00  0.45593999997E+02  0.45594000000E+02  0.51100000000E-03 0.  1.
         11   -1    0    0    0    0 -0.00000000000E+00 -0.00000000000E+00 -0.45593999997E+02  0.45594000000E+02  0.51100000000E-03 0. -1.
    9900012    2    1    2    0    0  0.19665575348E+02  0.26956010498E+00  0.35585926209E+02  0.50528860061E+02  0.30000000641E+02 0.  0.
         12    1    1    2    0    0 -0.19665575348E+02 -0.26956010498E+00 -0.35585926209E+02  0.40659139939E+02  0.00000000000E+00 0. -1.
         11    1    3    3    0    0 -0.23568623011E+01 -0.60129317556E+01  0.13144532177E+01  0.65907462192E+01  0.51100000000E-03 0. -1.
        -11    1    3    3    0    0  0.11669261537E+02  0.62816102979E+01  0.29889555248E+02  0.32695807161E+02  0.51100000000E-03 0.  1.
         12    1    3    3    0    0  0.10353176112E+02  0.88156261324E-03  0.43819177440E+01  0.11242306680E+02  0.00000000000E+00 0. -1.
</event>
<event>
 7    1  0.2973028E-011  0.5052885E+02  0.7816164E-02  0.1300439E+00
        -11   -1    0    0    0    0  0.00000000000E+00  0.00000000000E+00  0.45593999997E+02  0.45594000000E+02  0.51100000000E-03 0.  1.
         11   -1    0    0    0    0 -0.00000000000E+00 -0.00000000000E+00 -0.45593999997E+02  0.45594000000E+02  0.51100000000E-03 0. -1.
    9900012    2    1    2    0    0  0.23900683734E+02 -0.32084540322E+02  0.72460878417E+01  0.50528853431E+02  0.29999980490E+02 0.  0.
         12    1    1    2    0    0 -0.23900683734E+02  0.32084540322E+02 -0.72460878417E+01  0.40659146569E+02  0.00000000000E+00 0. -1.
         11    1    3    3    0    0  0.10998076915E+02 -0.14134982700E+02  0.12887049254E+02  0.22064257760E+02  0.51100000000E-03 0. -1.
        -11    1    3    3    0    0  0.15462158688E+02 -0.19516196552E+02 -0.50582976083E+01  0.25407610161E+02  0.51100000000E-03 0.  1.
         12    1    3    3    0    0 -0.25595518681E+01  0.15666389297E+01 -0.58266380449E+00  0.30569855104E+01  0.00000000000E+00 0. -1.
</event>
<event>
 7    1  0.2973028E-011  0.5052886E+02  0.7816164E-02  0.1300439E+00
        -11   -1    0    0    0    0  0.00000000000E+00  0.00000000000E+00  0.45593999997E+02  0.45594000000E+02  0.51100000000E-03 0.  1.
         11   -1    0    0    0    0 -0.00000000000E+00 -0.00000000000E+00 -0.45593999997E+02  0.45594000000E+02  0.51100000000E-03 0. -1.
    9900012    2    1    2    0    0 -0.19223874640E+02 -0.80334851513E+01  0.34915203453E+02  0.50528859921E+02  0.30000000215E+02 0.  0.
         12    1    1    2    0    0  0.19223874640E+02  0.80334851513E+01 -0.34915203453E+02  0.40659140079E+02  0.00000000000E+00 0. -1.
         11    1    3    3    0    0  0.40268324952E+01 -0.88768602537E+01  0.10906344587E+02  0.14627452971E+02  0.51100000000E-03 0. -1.
        -11    1    3    3    0    0 -0.19375962621E+02  0.30529298623E+01  0.11770635776E+02  0.22875667751E+02  0.51100000000E-03 0.  1.
        -12    1    3    3    0    0 -0.38747445142E+01 -0.22095547599E+01  0.12238223089E+02  0.13025739199E+02  0.00000000000E+00 0.  1.
</event>
<event>
 7    1  0.2973028E-011  0.5052887E+02  0.7816164E-02  0.1300439E+00
        -11   -1    0    0    0    0  0.00000000000E+00  0.00000000000E+00  0.45593999997E+02  0.45594000000E+02  0.51100000000E-03 0.  1.
         11   -1    0    0    0    0 -0.00000000000E+00 -0.00000000000E+00 -0.45593999997E+02  0.45594000000E+02  0.51100000000E-03 0. -1.
    9900012    2    1    2    0    0 -0.61167944041E+01 -0.23561960501E+01  0.40127269746E+02  0.50528872970E+02  0.30000039879E+02 0.  0.
         12    1    1    2    0    0  0.61167944041E+01  0.23561960501E+01 -0.40127269746E+02  0.40659127030E+02  0.00000000000E+00 0. -1.
         11    1    3    3    0    0 -0.14135765129E+02  0.58011727586E+01  0.16224397528E+02  0.22286869152E+02  0.51100000000E-03 0. -1.
        -11    1    3    3    0    0  0.64047197134E+01 -0.10388891665E+02  0.18263183280E+02  0.21965731684E+02  0.51100000000E-03 0.  1.
         12    1    3    3    0    0  0.16142510117E+01  0.22315228566E+01  0.56396889373E+01  0.62762721338E+01  0.00000000000E+00 0. -1.
</event>
<event>
 7    1  0.2973028E-011  0.5052886E+02  0.7816164E-02  0.1300439E+00
        -11   -1    0    0    0    0  0.00000000000E+00  0.00000000000E+00  0.45593999997E+02  0.45594000000E+02  0.51100000000E-03 0.  1.
         11   -1    0    0    0    0 -0.00000000000E+00 -0.00000000000E+00 -0.45593999997E+02  0.45594000000E+02  0.51100000000E-03 0. -1.
    9900012    2    1    2    0    0  0.83068548393E+00 -0.26163501269E+02  0.31111843771E+02  0.50528860070E+02  0.30000000669E+02 0.  0.
         12    1    1    2    0    0 -0.83068548393E+00  0.26163501269E+02 -0.31111843771E+02  0.40659139930E+02  0.00000000000E+00 0. -1.
         11    1    3    3    0    0  0.53964421348E+01 -0.20692254903E+02  0.48234596421E+01  0.21921604957E+02  0.51100000000E-03 0. -1.
        -11    1    3    3    0    0 -0.33197262337E+01 -0.68249700868E+01  0.25500199980E+02  0.26605657260E+02  0.51100000000E-03 0.  1.
        -12    1    3    3    0    0 -0.12460304172E+01  0.13537237209E+01  0.78818414831E+00  0.20015978529E+01  0.00000000000E+00 0.  1.
</event>
<event>
 7    1  0.2973028E-011  0.5052886E+02  0.7816164E-02  0.1300439E+00
        -11   -1    0    0    0    0  0.00000000000E+00  0.00000000000E+00  0.45593999997E+02  0.45594000000E+02  0.51100000000E-03 0.  1.
         11   -1    0    0    0    0 -0.00000000000E+00 -0.00000000000E+00 -0.45593999997E+02  0.45594000000E+02  0.51100000000E-03 0. -1.
    9900012    2    1    2    0    0  0.40379084950E+02 -0.44666199015E+01  0.16566579195E+01  0.50528859451E+02  0.29999998786E+02 0.  0.
         12    1    1    2    0    0 -0.40379084950E+02  0.44666199015E+01 -0.16566579195E+01  0.40659140549E+02  0.00000000000E+00 0. -1.
         11    1    3    3    0    0  0.14685350299E+02  0.72361075522E+01 -0.73602791839E+01  0.17949776484E+02  0.51100000000E-03 0. -1.
        -11    1    3    3    0    0  0.25345985648E+02 -0.73844352790E+01  0.54250191171E+01  0.26951432347E+02  0.51100000000E-03 0.  1.
         12    1    3    3    0    0  0.34774900324E+00 -0.43182921747E+01  0.35919179863E+01  0.56276506196E+01  0.00000000000E+00 0. -1.
</event>
<event>
 7    1  0.2973028E-011  0.5052886E+02  0.7816164E-02  0.1300439E+00
        -11   -1    0    0    0    0  0.00000000000E+00  0.00000000000E+00  0.45593999997E+02  0.45594000000E+02  0.51100000000E-03 0.  1.
         11   -1    0    0    0    0 -0.00000000000E+00 -0.00000000000E+00 -0.45593999997E+02  0.45594000000E+02  0.51100000000E-03 0. -1.
    9900012    2    1    2    0    0  0.30535888801E+02  0.25978615460E+02  0.67702829364E+01  0.50528859611E+02  0.29999999275E+02 0.  0.
         12    1    1    2    0    0 -0.30535888801E+02 -0.25978615460E+02 -0.67702829364E+01  0.40659140389E+02  0.00000000000E+00 0. -1.
         11    1    3    3    0    0  0.11028577396E+02  0.18225795506E+02  0.12696491662E+02  0.24799396000E+02  0.51100000000E-03 0. -1.
        -11    1    3    3    0    0  0.13855491319E+02  0.11636091997E+02 -0.33312451291E+01  0.18397566987E+02  0.51100000000E-03 0.  1.
         12    1    3    3    0    0  0.56518200859E+01 -0.38832720429E+01 -0.25949635961E+01  0.73318966242E+01  0.00000000000E+00 0. -1.
</event>
<event>
 7    1  0.2973028E-011  0.5052887E+02  0.7816164E-02  0.1300439E+00
        -11   -1    0    0    0    0  0.00000000000E+00  0.00000000000E+00  0.45593999997E+02  0.45594000000E+02  0.51100000000E-03 0.  1.
         11   -1    0    0    0    0 -0.00000000000E+00 -0.00000000000E+00 -0.45593999997E+02  0.45594000000E+02  0.51100000000E-03 0. -1.
    9900012    2    1    2    0    0 -0.27806758128E+02 -0.65546558018E+01  0.28930706523E+02  0.50528867075E+02  0.30000021962E+02 0.  0.
         12    1    1    2    0    0  0.27806758128E+02  0.65546558018E+01 -0.28930706523E+02  0.40659132925E+02  0.00000000000E+00 0. -1.
         11    1    3    3    0    0 -0.40139945064E+01 -0.72641826747E+01 -0.25045744315E+01  0.86691057885E+01  0.51100000000E-03 0. -1.
        -11    1    3    3    0    0 -0.24746874137E+02 -0.18049044281E+01  0.29493797647E+02  0.38542827601E+02  0.51100000000E-03 0.  1.
        -12    1    3    3    0    0  0.95411051529E+00  0.25144313010E+01  0.19414833070E+01  0.33169336855E+01  0.00000000000E+00 0.  1.
</event>
<event>
 7    1  0.2973028E-011  0.5052885E+02  0.7816164E-02  0.1300439E+00
        -11   -1    0    0    0    0  0.00000000000E+00  0.00000000000E+00  0.45593999997E+02  0.45594000000E+02  0.51100000000E-03 0.  1.
         11   -1    0    0    0    0 -0.00000000000E+00 -0.00000000000E+00 -0.45593999997E+02  0.45594000000E+02  0.51100000000E-03 0. -1.
    9900012    2    1    2    0    0  0.54890286348E+01 -0.22820515333E+02  0.33200315983E+02  0.50528851745E+02  0.29999975365E+02 0.  0.
         12    1    1    2    0    0 -0.54890286348E+01  0.22820515333E+02 -0.33200315983E+02  0.40659148255E+02  0.00000000000E+00 0. -1.
         11    1    3    3    0    0  0.21584126963E+01 -0.14582903791E+01  0.43610691439E+00  0.26411258394E+01  0.51100000000E-03 0. -1.
        -11    1    3    3    0    0 -0.10786383956E+02 -0.95011111964E+01  0.22735761399E+02  0.26898550881E+02  0.51100000000E-03 0.  1.
        -12    1    3    3    0    0  0.14116999895E+02 -0.11861113757E+02  0.10028447670E+02  0.20989175026E+02  0.00000000000E+00 0.  1.
</event>
<event>
 7    1  0.2973028E-011  0.5052886E+02  0.7816164E-02  0.1300439E+00
        -11   -1    0    0    0    0  0.00000000000E+00  0.00000000000E+00  0.45593999997E+02  0.45594000000E+02  0.51100000000E-03 0.  1.
         11   -1    0    0    0    0 -0.00000000000E+00 -0.00000000000E+00 -0.45593999997E+02  0.45594000000E+02  0.51100000000E-03 0. -1.
    9900012    2    1    2    0    0  0.11166335013E+02 -0.22132514872E+02  0.32227790672E+02  0.50528859038E+02  0.29999997532E+02 0.  0.
         12    1    1    2    0    0 -0.11166335013E+02  0.22132514872E+02 -0.32227790672E+02  0.40659140962E+02  0.00000000000E+00 0. -1.
         11    1    3    3    0    0  0.29609137790E+01 -0.93811997240E+00  0.25889824289E+02  0.26075468960E+02  0.51100000000E-03 0. -1.
        -11    1    3    3    0    0  0.65312092065E+01 -0.16332082442E+02  0.19575867668E+01  0.17698185127E+02  0.51100000000E-03 0.  1.
        -12    1    3    3    0    0  0.16742120279E+01 -0.48623124574E+01  0.43803796155E+01  0.67552049506E+01  0.00000000000E+00 0.  1.
</event>
<event>
 7    1  0.2973028E-011  0.5052885E+02  0.7816164E-02  0.1300439E+00
        -11   -1    0    0    0    0  0.00000000000E+00  0.00000000000E+00  0.45593999997E+02  0.45594000000E+02  0.51100000000E-03 0. -1.
         11   -1    0    0    0    0 -0.00000000000E+00 -0.00000000000E+00 -0.45593999997E+02  0.45594000000E+02  0.51100000000E-03 0.  1.
    9900012    2    1    2    0    0 -0.28401300881E+02 -0.28972890419E+02  0.26653233272E+01  0.50528853189E+02  0.29999979753E+02 0.  0.
         12    1    1    2    0    0  0.28401300881E+02  0.28972890419E+02 -0.26653233272E+01  0.40659146811E+02  0.00000000000E+00 0. -1.
         11    1    3    3    0    0 -0.13497650924E+02 -0.24356862987E+02 -0.28669956810E+01  0.27993981845E+02  0.51100000000E-03 0. -1.
        -11    1    3    3    0    0 -0.95870533799E+01  0.42167366353E+01 -0.68502958496E+00  0.10495795642E+02  0.51100000000E-03 0.  1.
        -12    1    3    3    0    0 -0.53165965779E+01 -0.88327640673E+01  0.62173485931E+01  0.12039075702E+02  0.00000000000E+00 0.  1.
</event>
<event>
 7    1  0.2973028E-011  0.5052886E+02  0.7816164E-02  0.1300439E+00
        -11   -1    0    0    0    0  0.00000000000E+00  0.00000000000E+00  0.45593999997E+02  0.45594000000E+02  0.51100000000E-03 0.  1.
         11   -1    0    0    0    0 -0.00000000000E+00 -0.00000000000E+00 -0.45593999997E+02  0.45594000000E+02  0.51100000000E-03 0. -1.
    9900012    2    1    2    0    0 -0.38307018348E+02 -0.12989754718E+02  0.41236513482E+01  0.50528857328E+02  0.29999992334E+02 0.  0.
         12    1    1    2    0    0  0.38307018348E+02  0.12989754718E+02 -0.41236513482E+01  0.40659142672E+02  0.00000000000E+00 0. -1.
         11    1    3    3    0    0 -0.13285357091E+02 -0.19087718802E+02  0.21561372436E+01  0.23355741268E+02  0.51100000000E-03 0. -1.
        -11    1    3    3    0    0 -0.15943805182E+02  0.17961106934E+01 -0.23927219289E+01  0.16222085433E+02  0.51100000000E-03 0.  1.
         12    1    3    3    0    0 -0.90778560753E+01  0.43018533906E+01  0.43602360335E+01  0.10951030627E+02  0.00000000000E+00 0. -1.
</event>
<event>
 7    1  0.2973028E-011  0.5052886E+02  0.7816164E-02  0.1300439E+00
        -11   -1    0    0    0    0  0.00000000000E+00  0.00000000000E+00  0.45593999997E+02  0.45594000000E+02  0.51100000000E-03 0.  1.
         11   -1    0    0    0    0 -0.00000000000E+00 -0.00000000000E+00 -0.45593999997E+02  0.45594000000E+02  0.51100000000E-03 0. -1.
    9900012    2    1    2    0    0 -0.25876045966E+02  0.14395442556E+02  0.27863364442E+02  0.50528860815E+02  0.30000002934E+02 0.  0.
         12    1    1    2    0    0  0.25876045966E+02 -0.14395442556E+02 -0.27863364442E+02  0.40659139185E+02  0.00000000000E+00 0. -1.
         11    1    3    3    0    0 -0.75745672381E+01  0.89770222297E+01  0.87757284594E+00  0.11778418031E+02  0.51100000000E-03 0. -1.
        -11    1    3    3    0    0 -0.10252451465E+02  0.11018030264E+02  0.24301403546E+02  0.28584400754E+02  0.51100000000E-03 0.  1.
        -12    1    3    3    0    0 -0.80490272632E+01 -0.55996099380E+01  0.26843880507E+01  0.10166042030E+02  0.00000000000E+00 0.  1.
</event>
<event>
 7    1  0.2973028E-011  0.5052881E+02  0.7816164E-02  0.1300439E+00
        -11   -1    0    0    0    0  0.00000000000E+00  0.00000000000E+00  0.45593999997E+02  0.45594000000E+02  0.51100000000E-03 0.  1.
         11   -1    0    0    0    0 -0.00000000000E+00 -0.00000000000E+00 -0.45593999997E+02  0.45594000000E+02  0.51100000000E-03 0. -1.
    9900012    2    1    2    0    0  0.33747202149E+02  0.13644851540E+02  0.18113926244E+02  0.50528807308E+02  0.29999840293E+02 0.  0.
         12    1    1    2    0    0 -0.33747202149E+02 -0.13644851540E+02 -0.18113926244E+02  0.40659192692E+02  0.00000000000E+00 0. -1.
         11    1    3    3    0    0  0.91305163030E+01 -0.76492569103E+01  0.11380326402E+02  0.16473897187E+02  0.51100000000E-03 0. -1.
        -11    1    3    3    0    0  0.91981936599E+01  0.12756867053E+02  0.39095245617E+01  0.16205826303E+02  0.51100000000E-03 0.  1.
         12    1    3    3    0    0  0.15418492186E+02  0.85372413970E+01  0.28240752803E+01  0.17849083818E+02  0.00000000000E+00 0. -1.
</event>
<event>
 7    1  0.2973028E-011  0.5052886E+02  0.7816164E-02  0.1300439E+00
        -11   -1    0    0    0    0  0.00000000000E+00  0.00000000000E+00  0.45593999997E+02  0.45594000000E+02  0.51100000000E-03 0. -1.
         11   -1    0    0    0    0 -0.00000000000E+00 -0.00000000000E+00 -0.45593999997E+02  0.45594000000E+02  0.51100000000E-03 0.  1.
    9900012    2    1    2    0    0  0.17292289746E+02 -0.23517652473E+02 -0.28303044724E+02  0.50528860768E+02  0.30000002789E+02 0.  0.
         12    1    1    2    0    0 -0.17292289746E+02  0.23517652473E+02  0.28303044724E+02  0.40659139232E+02  0.00000000000E+00 0. -1.
         11    1    3    3    0    0  0.10439711822E+02 -0.15975467076E+02 -0.28647987176E+02  0.34422526065E+02  0.51100000000E-03 0. -1.
        -11    1    3    3    0    0  0.10212774555E+02 -0.76188135327E+01  0.28345485713E+00  0.12744702063E+02  0.51100000000E-03 0.  1.
         12    1    3    3    0    0 -0.33601966320E+01  0.76628135603E-01  0.61487594932E-01  0.33616326393E+01  0.00000000000E+00 0. -1.
</event>
<event>
 7    1  0.2973028E-011  0.5052887E+02  0.7816164E-02  0.1300439E+00
        -11   -1    0    0    0    0  0.00000000000E+00  0.00000000000E+00  0.45593999997E+02  0.45594000000E+02  0.51100000000E-03 0.  1.
         11   -1    0    0    0    0 -0.00000000000E+00 -0.00000000000E+00 -0.45593999997E+02  0.45594000000E+02  0.51100000000E-03 0. -1.
    9900012    2    1    2    0    0 -0.57217599031E+01 -0.15847037341E+01  0.40223315738E+02  0.50528868784E+02  0.30000027156E+02 0.  0.
         12    1    1    2    0    0  0.57217599031E+01  0.15847037341E+01 -0.40223315738E+02  0.40659131216E+02  0.00000000000E+00 0. -1.
         11    1    3    3    0    0 -0.20993374613E+01  0.61230288674E+01  0.28437967544E+01  0.70700693440E+01  0.51100000000E-03 0. -1.
        -11    1    3    3    0    0 -0.27152826895E+01 -0.14767249801E+02  0.26494401610E+02  0.30453205803E+02  0.51100000000E-03 0.  1.
        -12    1    3    3    0    0 -0.90713975230E+00  0.70595171991E+01  0.10885117373E+02  0.13005593636E+02  0.00000000000E+00 0.  1.
</event>
<event>
 7    1  0.2973028E-011  0.5052886E+02  0.7816164E-02  0.1300439E+00
        -11   -1    0    0    0    0  0.00000000000E+00  0.00000000000E+00  0.45593999997E+02  0.45594000000E+02  0.51100000000E-03 0. -1.
         11   -1    0    0    0    0 -0.00000000000E+00 -0.00000000000E+00 -0.45593999997E+02  0.45594000000E+02  0.51100000000E-03 0.  1.
    9900012    2    1    2    0    0  0.39932588250E+02 -0.74181359280E+01  0.18775199624E+01  0.50528862943E+02  0.30000009402E+02 0.  0.
         12    1    1    2    0    0 -0.39932588250E+02  0.74181359280E+01 -0.18775199624E+01  0.40659137057E+02  0.00000000000E+00 0. -1.
         11    1    3    3    0    0  0.98761812971E+01  0.55590318427E+01 -0.58460803361E+01  0.12752193835E+02  0.51100000000E-03 0.  1.
        -11    1    3    3    0    0  0.22034511528E+02 -0.43272373834E+01  0.11708671361E+02  0.25324645446E+02  0.51100000000E-03 0. -1.
        -12    1    3    3    0    0  0.80218954250E+01 -0.86499303873E+01 -0.39850710629E+01  0.12452023662E+02  0.00000000000E+00 0.  1.
</event>
<event>
 7    1  0.2973028E-011  0.5052887E+02  0.7816164E-02  0.1300439E+00
        -11   -1    0    0    0    0  0.00000000000E+00  0.00000000000E+00  0.45593999997E+02  0.45594000000E+02  0.51100000000E-03 0.  1.
         11   -1    0    0    0    0 -0.00000000000E+00 -0.00000000000E+00 -0.45593999997E+02  0.45594000000E+02  0.51100000000E-03 0. -1.
    9900012    2    1    2    0    0 -0.26214866739E+02  0.16268775488E+02  0.26481546287E+02  0.50528873253E+02  0.30000040741E+02 0.  0.
         12    1    1    2    0    0  0.26214866739E+02 -0.16268775488E+02 -0.26481546287E+02  0.40659126747E+02  0.00000000000E+00 0. -1.
         11    1    3    3    0    0 -0.18182728457E+02  0.21126705845E+02  0.18602862004E+02  0.33511427738E+02  0.51100000000E-03 0. -1.
        -11    1    3    3    0    0  0.12050514384E+01 -0.38139452228E+01  0.64825340311E+01  0.76171894329E+01  0.51100000000E-03 0.  1.
         12    1    3    3    0    0 -0.92371897207E+01 -0.10439851340E+01  0.13961502512E+01  0.94002560827E+01  0.00000000000E+00 0. -1.
</event>
<event>
 7    1  0.2973028E-011  0.5052887E+02  0.7816164E-02  0.1300439E+00
        -11   -1    0    0    0    0  0.00000000000E+00  0.00000000000E+00  0.45593999997E+02  0.45594000000E+02  0.51100000000E-03 0.  1.
         11   -1    0    0    0    0 -0.00000000000E+00 -0.00000000000E+00 -0.45593999997E+02  0.45594000000E+02  0.51100000000E-03 0. -1.
    9900012    2    1    2    0    0 -0.30620403560E+02 -0.23897115277E+02  0.12020134875E+02  0.50528869720E+02  0.30000030000E+02 0.  0.
         12    1    1    2    0    0  0.30620403560E+02  0.23897115277E+02 -0.12020134875E+02  0.40659130280E+02  0.00000000000E+00 0. -1.
         11    1    3    3    0    0  0.34846511871E+01 -0.26144254365E+01  0.15392327789E+00  0.43590947335E+01  0.51100000000E-03 0. -1.
        -11    1    3    3    0    0 -0.33104855740E+02 -0.17116573512E+02  0.43538662068E+01  0.37521523338E+02  0.51100000000E-03 0.  1.
        -12    1    3    3    0    0 -0.10001990068E+01 -0.41661163281E+01  0.75123453902E+01  0.86482516484E+01  0.00000000000E+00 0.  1.
</event>
<event>
 7    1  0.2973028E-011  0.5052882E+02  0.7816164E-02  0.1300439E+00
        -11   -1    0    0    0    0  0.00000000000E+00  0.00000000000E+00  0.45593999997E+02  0.45594000000E+02  0.51100000000E-03 0.  1.
         11   -1    0    0    0    0 -0.00000000000E+00 -0.00000000000E+00 -0.45593999997E+02  0.45594000000E+02  0.51100000000E-03 0. -1.
    9900012    2    1    2    0    0  0.15767268533E+02 -0.34231289829E+02 -0.15257163759E+02  0.50528818917E+02  0.29999875580E+02 0.  0.
         12    1    1    2    0    0 -0.15767268533E+02  0.34231289829E+02  0.15257163759E+02  0.40659181083E+02  0.00000000000E+00 0. -1.
         11    1    3    3    0    0 -0.70484249011E+01 -0.94045193094E+00 -0.46978371230E+01  0.85225827843E+01  0.51100000000E-03 0. -1.
        -11    1    3    3    0    0  0.39736820635E+01 -0.95249103158E+01 -0.30437947889E+01  0.10760053561E+02  0.51100000000E-03 0.  1.
         12    1    3    3    0    0  0.18842011371E+02 -0.23765927582E+02 -0.75155318472E+01  0.31246182571E+02  0.00000000000E+00 0. -1.
</event>
<event>
 7    1  0.2973028E-011  0.5052885E+02  0.7816164E-02  0.1300439E+00
        -11   -1    0    0    0    0  0.00000000000E+00  0.00000000000E+00  0.45593999997E+02  0.45594000000E+02  0.51100000000E-03 0.  1.
         11   -1    0    0    0    0 -0.00000000000E+00 -0.00000000000E+00 -0.45593999997E+02  0.45594000000E+02  0.51100000000E-03 0. -1.
    9900012    2    1    2    0    0 -0.92590249151E+01  0.72906073742E+01  0.38913803179E+02  0.50528848802E+02  0.29999966419E+02 0.  0.
         12    1    1    2    0    0  0.92590249151E+01 -0.72906073742E+01 -0.38913803179E+02  0.40659151198E+02  0.00000000000E+00 0. -1.
         11    1    3    3    0    0 -0.91398482483E+01  0.67800862818E+01  0.36340401255E+01  0.11946239738E+02  0.51100000000E-03 0. -1.
        -11    1    3    3    0    0  0.48100896314E+01 -0.52443699091E+01  0.10610757752E+02  0.12776093235E+02  0.51100000000E-03 0.  1.
        -12    1    3    3    0    0 -0.49292662982E+01  0.57548910015E+01  0.24669005301E+02  0.25806515829E+02  0.00000000000E+00 0.  1.
</event>
<event>
 7    1  0.2973028E-011  0.5052886E+02  0.7816164E-02  0.1300439E+00
        -11   -1    0    0    0    0  0.00000000000E+00  0.00000000000E+00  0.45593999997E+02  0.45594000000E+02  0.51100000000E-03 0. -1.
         11   -1    0    0    0    0 -0.00000000000E+00 -0.00000000000E+00 -0.45593999997E+02  0.45594000000E+02  0.51100000000E-03 0.  1.
    9900012    2    1    2    0    0  0.38389108803E+02  0.57083898886E+01 -0.12118417783E+02  0.50528862781E+02  0.30000008908E+02 0.  0.
         12    1    1    2    0    0 -0.38389108803E+02 -0.57083898886E+01  0.12118417783E+02  0.40659137219E+02  0.00000000000E+00 0. -1.
         11    1    3    3    0    0  0.23460100110E+00  0.94630583606E+01  0.18073645797E+00  0.94676912230E+01  0.51100000000E-03 0. -1.
        -11    1    3    3    0    0  0.29743531753E+01  0.17875216339E+01 -0.31310523180E+00  0.34842568147E+01  0.51100000000E-03 0.  1.
         12    1    3    3    0    0  0.35180154627E+02 -0.55421901060E+01 -0.11986049009E+02  0.37576914743E+02  0.00000000000E+00 0. -1.
</event>
<event>
 7    1  0.2973028E-011  0.5052886E+02  0.7816164E-02  0.1300439E+00
        -11   -1    0    0    0    0  0.00000000000E+00  0.00000000000E+00  0.45593999997E+02  0.45594000000E+02  0.51100000000E-03 0.  1.
         11   -1    0    0    0    0 -0.00000000000E+00 -0.00000000000E+00 -0.45593999997E+02  0.45594000000E+02  0.51100000000E-03 0. -1.
    9900012    2    1    2    0    0 -0.36505053617E+02 -0.51257337575E+00  0.17896470845E+02  0.50528864006E+02  0.30000012634E+02 0.  0.
         12    1    1    2    0    0  0.36505053617E+02  0.51257337575E+00 -0.17896470845E+02  0.40659135994E+02  0.00000000000E+00 0. -1.
         11    1    3    3    0    0 -0.46592937291E+01  0.93504236862E+01  0.43821326550E+01  0.11328836129E+02  0.51100000000E-03 0. -1.
        -11    1    3    3    0    0 -0.38306272191E+01 -0.67310567791E+01  0.65982514469E+01  0.10174367434E+02  0.51100000000E-03 0.  1.
         12    1    3    3    0    0 -0.28015132669E+02 -0.31319402828E+01  0.69160867428E+01  0.29025660444E+02  0.00000000000E+00 0. -1.
</event>
<event>
 7    1  0.2973028E-011  0.5052886E+02  0.7816164E-02  0.1300439E+00
        -11   -1    0    0    0    0  0.00000000000E+00  0.00000000000E+00  0.45593999997E+02  0.45594000000E+02  0.51100000000E-03 0.  1.
         11   -1    0    0    0    0 -0.00000000000E+00 -0.00000000000E+00 -0.45593999997E+02  0.45594000000E+02  0.51100000000E-03 0. -1.
    9900012    2    1    2    0    0 -0.22976224729E+02 -0.12007721513E+02  0.31322092791E+02  0.50528858647E+02  0.29999996344E+02 0.  0.
         12    1    1    2    0    0  0.22976224729E+02  0.12007721513E+02 -0.31322092791E+02  0.40659141353E+02  0.00000000000E+00 0. -1.
         11    1    3    3    0    0 -0.69286009119E+01  0.30820820013E+01  0.16015531439E+01  0.77504653275E+01  0.51100000000E-03 0. -1.
        -11    1    3    3    0    0  0.77011683357E+00 -0.13698287058E+02  0.15598271780E+02  0.20773594562E+02  0.51100000000E-03 0.  1.
        -12    1    3    3    0    0 -0.16817740651E+02 -0.13915164570E+01  0.14122267867E+02  0.22004798757E+02  0.00000000000E+00 0.  1.
</event>
<event>
 7    1  0.2973028E-011  0.5052886E+02  0.7816164E-02  0.1300439E+00
        -11   -1    0    0    0    0  0.00000000000E+00  0.00000000000E+00  0.45593999997E+02  0.45594000000E+02  0.51100000000E-03 0.  1.
         11   -1    0    0    0    0 -0.00000000000E+00 -0.00000000000E+00 -0.45593999997E+02  0.45594000000E+02  0.51100000000E-03 0. -1.
    9900012    2    1    2    0    0  0.43837536208E+01  0.38774615416E+02 -0.11422667476E+02  0.50528862913E+02  0.30000009309E+02 0.  0.
         12    1    1    2    0    0 -0.43837536208E+01 -0.38774615416E+02  0.11422667476E+02  0.40659137087E+02  0.00000000000E+00 0. -1.
         11    1    3    3    0    0 -0.10129037225E+02  0.16934737658E+02 -0.71927440911E+01  0.21002816536E+02  0.51100000000E-03 0.  1.
        -11    1    3    3    0    0  0.13491548486E+02  0.12573532667E+02 -0.71153899780E+01  0.19767255223E+02  0.51100000000E-03 0. -1.
        -12    1    3    3    0    0  0.10212423601E+01  0.92663450909E+01  0.28854665929E+01  0.97587911526E+01  0.00000000000E+00 0.  1.
</event>
<event>
 7    1  0.2973028E-011  0.5052887E+02  0.7816164E-02  0.1300439E+00
        -11   -1    0    0    0    0  0.00000000000E+00  0.00000000000E+00  0.45593999997E+02  0.45594000000E+02  0.51100000000E-03 0.  1.
         11   -1    0    0    0    0 -0.00000000000E+00 -0.00000000000E+00 -0.45593999997E+02  0.45594000000E+02  0.51100000000E-03 0. -1.
    9900012    2    1    2    0    0  0.41703247768E+01 -0.37230576175E+02  0.15800564556E+02  0.50528865093E+02  0.30000015937E+02 0.  0.
         12    1    1    2    0    0 -0.41703247768E+01  0.37230576175E+02 -0.15800564556E+02  0.40659134907E+02  0.00000000000E+00 0. -1.
         11    1    3    3    0    0  0.20707170688E+01 -0.56814716485E+00  0.45848931579E+01  0.50627962541E+01  0.51100000000E-03 0. -1.
        -11    1    3    3    0    0 -0.27880438138E+01 -0.25587759578E+02 -0.39725184425E+01  0.26043953839E+02  0.51100000000E-03 0.  1.
        -12    1    3    3    0    0  0.48876515219E+01 -0.11074669432E+02  0.15188189840E+02  0.19422115000E+02  0.00000000000E+00 0.  1.
</event>
<event>
 7    1  0.2973028E-011  0.5052885E+02  0.7816164E-02  0.1300439E+00
        -11   -1    0    0    0    0  0.00000000000E+00  0.00000000000E+00  0.45593999997E+02  0.45594000000E+02  0.51100000000E-03 0.  1.
         11   -1    0    0    0    0 -0.00000000000E+00 -0.00000000000E+00 -0.45593999997E+02  0.45594000000E+02  0.51100000000E-03 0. -1.
    9900012    2    1    2    0    0  0.53927603765E+01 -0.90874239221E+00  0.40289682053E+02  0.50528853955E+02  0.29999982080E+02 0.  0.
         12    1    1    2    0    0 -0.53927603765E+01  0.90874239221E+00 -0.40289682053E+02  0.40659146045E+02  0.00000000000E+00 0. -1.
         11    1    3    3    0    0 -0.82535957774E+00  0.79849783361E+01  0.25742587971E+02  0.26965198556E+02  0.51100000000E-03 0. -1.
        -11    1    3    3    0    0  0.82529586899E+01 -0.93319478822E+01  0.16523355408E+02  0.20693425348E+02  0.51100000000E-03 0.  1.
         12    1    3    3    0    0 -0.20348387357E+01  0.43822715395E+00 -0.19762613259E+01  0.28702300512E+01  0.00000000000E+00 0. -1.
</event>
<event>
 7    1  0.2973028E-011  0.5052886E+02  0.7816164E-02  0.1300439E+00
        -11   -1    0    0    0    0  0.00000000000E+00  0.00000000000E+00  0.45593999997E+02  0.45594000000E+02  0.51100000000E-03 0.  1.
         11   -1    0    0    0    0 -0.00000000000E+00 -0.00000000000E+00 -0.45593999997E+02  0.45594000000E+02  0.51100000000E-03 0. -1.
    9900012    2    1    2    0    0  0.15356636022E+02  0.37548584738E+02  0.27282548162E+01  0.50528857607E+02  0.29999993182E+02 0.  0.
         12    1    1    2    0    0 -0.15356636022E+02 -0.37548584738E+02 -0.27282548162E+01  0.40659142393E+02  0.00000000000E+00 0. -1.
         11    1    3    3    0    0 -0.26388545070E+01  0.13435435986E+01  0.82649079393E+00  0.30743698222E+01  0.51100000000E-03 0. -1.
        -11    1    3    3    0    0  0.19264191222E+02  0.14156052312E+02  0.67548166485E+01  0.24842109989E+02  0.51100000000E-03 0.  1.
        -12    1    3    3    0    0 -0.12687006925E+01  0.22048988828E+02 -0.48530526263E+01  0.22612377796E+02  0.00000000000E+00 0.  1.
</event>
<event>
 7    1  0.2973028E-011  0.5052886E+02  0.7816164E-02  0.1300439E+00
        -11   -1    0    0    0    0  0.00000000000E+00  0.00000000000E+00  0.45593999997E+02  0.45594000000E+02  0.51100000000E-03 0.  1.
         11   -1    0    0    0    0 -0.00000000000E+00 -0.00000000000E+00 -0.45593999997E+02  0.45594000000E+02  0.51100000000E-03 0. -1.
    9900012    2    1    2    0    0  0.53178920430E+01 -0.19180201585E+02  0.35454272006E+02  0.50528861887E+02  0.30000006192E+02 0.  0.
         12    1    1    2    0    0 -0.53178920430E+01  0.19180201585E+02 -0.35454272006E+02  0.40659138113E+02  0.00000000000E+00 0. -1.
         11    1    3    3    0    0 -0.84637541784E+01 -0.25394670492E+01  0.15095631255E+01  0.89645305944E+01  0.51100000000E-03 0. -1.
        -11    1    3    3    0    0  0.13525543642E+02 -0.14345549502E+02  0.22620513226E+02  0.30007044842E+02  0.51100000000E-03 0.  1.
        -12    1    3    3    0    0  0.25610257921E+00 -0.22951850340E+01  0.11324195655E+02  0.11557286450E+02  0.00000000000E+00 0.  1.
</event>
<event>
 7    1  0.2973028E-011  0.5052887E+02  0.7816164E-02  0.1300439E+00
        -11   -1    0    0    0    0  0.00000000000E+00  0.00000000000E+00  0.45593999997E+02  0.45594000000E+02  0.51100000000E-03 0.  1.
         11   -1    0    0    0    0 -0.00000000000E+00 -0.00000000000E+00 -0.45593999997E+02  0.45594000000E+02  0.51100000000E-03 0. -1.
    9900012    2    1    2    0    0 -0.19550663865E+02  0.35352017624E+02  0.46012125818E+01  0.50528871076E+02  0.30000034122E+02 0.  0.
         12    1    1    2    0    0  0.19550663865E+02 -0.35352017624E+02 -0.46012125818E+01  0.40659128924E+02  0.00000000000E+00 0. -1.
         11    1    3    3    0    0  0.29440440025E+01  0.17164387367E+02 -0.69694474515E+01  0.18757846006E+02  0.51100000000E-03 0.  1.
        -11    1    3    3    0    0 -0.15757392359E+02  0.12511970464E+02  0.48668450647E+01  0.20700990314E+02  0.51100000000E-03 0. -1.
        -12    1    3    3    0    0 -0.67373155082E+01  0.56756597936E+01  0.67038149686E+01  0.11070034755E+02  0.00000000000E+00 0.  1.
</event>
<event>
 7    1  0.2973028E-011  0.5052886E+02  0.7816164E-02  0.1300439E+00
        -11   -1    0    0    0    0  0.00000000000E+00  0.00000000000E+00  0.45593999997E+02  0.45594000000E+02  0.51100000000E-03 0. -1.
         11   -1    0    0    0    0 -0.00000000000E+00 -0.00000000000E+00 -0.45593999997E+02  0.45594000000E+02  0.51100000000E-03 0.  1.
    9900012    2    1    2    0    0 -0.40164685719E+02  0.23150418506E+01  0.58825343404E+01  0.50528860709E+02  0.30000002610E+02 0.  0.
         12    1    1    2    0    0  0.40164685719E+02 -0.23150418506E+01 -0.58825343404E+01  0.40659139291E+02  0.00000000000E+00 0. -1.
         11    1    3    3    0    0 -0.53001735551E+01 -0.10583643237E+02 -0.17881332356E+01  0.11970913274E+02  0.51100000000E-03 0. -1.
        -11    1    3    3    0    0 -0.15855627590E+02  0.54701359625E+01  0.50109451372E-01  0.16772770341E+02  0.51100000000E-03 0.  1.
         12    1    3    3    0    0 -0.19008884574E+02  0.74285491253E+01  0.76205581246E+01  0.21785177093E+02  0.00000000000E+00 0. -1.
</event>
<event>
 7    1  0.2973028E-011  0.5052891E+02  0.7816164E-02  0.1300439E+00
        -11   -1    0    0    0    0  0.00000000000E+00  0.00000000000E+00  0.45593999997E+02  0.45594000000E+02  0.51100000000E-03 0. -1.
         11   -1    0    0    0    0 -0.00000000000E+00 -0.00000000000E+00 -0.45593999997E+02  0.45594000000E+02  0.51100000000E-03 0.  1.
    9900012    2    1    2    0    0 -0.34921883155E+02  0.18013650363E+02 -0.10446613563E+02  0.50528914208E+02  0.30000165226E+02 0.  0.
         12    1    1    2    0    0  0.34921883155E+02 -0.18013650363E+02  0.10446613563E+02  0.40659085792E+02  0.00000000000E+00 0. -1.
         11    1    3    3    0    0 -0.23944734486E+02  0.11228271848E+02  0.24237285548E+01  0.26557463333E+02  0.51100000000E-03 0. -1.
        -11    1    3    3    0    0 -0.11534515630E+02  0.85618499489E+00 -0.22320044404E+01  0.11779641236E+02  0.51100000000E-03 0.  1.
         12    1    3    3    0    0  0.55736696084E+00  0.59291935207E+01 -0.10638337678E+02  0.12191809639E+02  0.00000000000E+00 0. -1.
</event>
<event>
 7    1  0.2973028E-011  0.5052886E+02  0.7816164E-02  0.1300439E+00
        -11   -1    0    0    0    0  0.00000000000E+00  0.00000000000E+00  0.45593999997E+02  0.45594000000E+02  0.51100000000E-03 0. -1.
         11   -1    0    0    0    0 -0.00000000000E+00 -0.00000000000E+00 -0.45593999997E+02  0.45594000000E+02  0.51100000000E-03 0.  1.
    9900012    2    1    2    0    0 -0.36338970485E+02 -0.47222317799E+01 -0.17616619647E+02  0.50528861584E+02  0.30000005272E+02 0.  0.
         12    1    1    2    0    0  0.36338970485E+02  0.47222317799E+01  0.17616619647E+02  0.40659138416E+02  0.00000000000E+00 0. -1.
         11    1    3    3    0    0 -0.14586929783E+02 -0.13313370730E+02 -0.12896705557E+02  0.23587059486E+02  0.51100000000E-03 0. -1.
        -11    1    3    3    0    0 -0.10075542042E+02  0.68378022823E+01  0.33632428610E+01  0.12632635921E+02  0.51100000000E-03 0.  1.
        -12    1    3    3    0    0 -0.11676498660E+02  0.17533366679E+01 -0.80831569510E+01  0.14309166178E+02  0.00000000000E+00 0.  1.
</event>
<event>
 7    1  0.2973028E-011  0.5052887E+02  0.7816164E-02  0.1300439E+00
        -11   -1    0    0    0    0  0.00000000000E+00  0.00000000000E+00  0.45593999997E+02  0.45594000000E+02  0.51100000000E-03 0.  1.
         11   -1    0    0    0    0 -0.00000000000E+00 -0.00000000000E+00 -0.45593999997E+02  0.45594000000E+02  0.51100000000E-03 0. -1.
    9900012    2    1    2    0    0 -0.12068948855E+02 -0.72363963979E+01  0.38146300955E+02  0.50528865284E+02  0.30000016518E+02 0.  0.
         12    1    1    2    0    0  0.12068948855E+02  0.72363963979E+01 -0.38146300955E+02  0.40659134716E+02  0.00000000000E+00 0. -1.
         11    1    3    3    0    0  0.36548948404E+01 -0.41905309866E+00 -0.18958901064E+01  0.41386303714E+01  0.51100000000E-03 0. -1.
        -11    1    3    3    0    0 -0.15445200216E+02  0.19147080149E+00  0.20790389331E+02  0.25900408482E+02  0.51100000000E-03 0.  1.
         12    1    3    3    0    0 -0.27864348027E+00 -0.70088141008E+01  0.19251801730E+02  0.20489826431E+02  0.00000000000E+00 0. -1.
</event>
<event>
 7    1  0.2973028E-011  0.5052889E+02  0.7816164E-02  0.1300439E+00
        -11   -1    0    0    0    0  0.00000000000E+00  0.00000000000E+00  0.45593999997E+02  0.45594000000E+02  0.51100000000E-03 0.  1.
         11   -1    0    0    0    0 -0.00000000000E+00 -0.00000000000E+00 -0.45593999997E+02  0.45594000000E+02  0.51100000000E-03 0. -1.
    9900012    2    1    2    0    0 -0.30428514782E+02 -0.21429943948E+02  0.16371509537E+02  0.50528888672E+02  0.30000087608E+02 0.  0.
         12    1    1    2    0    0  0.30428514782E+02  0.21429943948E+02 -0.16371509537E+02  0.40659111328E+02  0.00000000000E+00 0. -1.
         11    1    3    3    0    0 -0.25113894850E+02 -0.22055742617E+01  0.88744245806E+01  0.26726909366E+02  0.51100000000E-03 0. -1.
        -11    1    3    3    0    0  0.18903794221E+01 -0.38667488504E+01 -0.15522613731E+01  0.45754558968E+01  0.51100000000E-03 0.  1.
         12    1    3    3    0    0 -0.72049993546E+01 -0.15357620836E+02  0.90493463292E+01  0.19226523410E+02  0.00000000000E+00 0. -1.
</event>
<event>
 7    1  0.2973028E-011  0.5052887E+02  0.7816164E-02  0.1300439E+00
        -11   -1    0    0    0    0  0.00000000000E+00  0.00000000000E+00  0.45593999997E+02  0.45594000000E+02  0.51100000000E-03 0.  1.
         11   -1    0    0    0    0 -0.00000000000E+00 -0.00000000000E+00 -0.45593999997E+02  0.45594000000E+02  0.51100000000E-03 0. -1.
    9900012    2    1    2    0    0  0.23049033929E+02  0.28992965504E+02  0.16772454357E+02  0.50528865247E+02  0.30000016403E+02 0.  0.
         12    1    1    2    0    0 -0.23049033929E+02 -0.28992965504E+02 -0.16772454357E+02  0.40659134753E+02  0.00000000000E+00 0. -1.
         11    1    3    3    0    0  0.52701581727E+01 -0.14021527925E+01  0.33387811877E+01  0.63943771941E+01  0.51100000000E-03 0. -1.
        -11    1    3    3    0    0 -0.11724905258E+01  0.15491783519E+02 -0.17622569005E+01  0.15635716814E+02  0.51100000000E-03 0.  1.
        -12    1    3    3    0    0  0.18951366282E+02  0.14903334777E+02  0.15195930070E+02  0.28498771238E+02  0.00000000000E+00 0.  1.
</event>
<event>
 7    1  0.2973028E-011  0.5052886E+02  0.7816164E-02  0.1300439E+00
        -11   -1    0    0    0    0  0.00000000000E+00  0.00000000000E+00  0.45593999997E+02  0.45594000000E+02  0.51100000000E-03 0.  1.
         11   -1    0    0    0    0 -0.00000000000E+00 -0.00000000000E+00 -0.45593999997E+02  0.45594000000E+02  0.51100000000E-03 0. -1.
    9900012    2    1    2    0    0 -0.30129926329E+02 -0.27287419437E+02  0.86614007036E+00  0.50528856886E+02  0.29999990991E+02 0.  0.
         12    1    1    2    0    0  0.30129926329E+02  0.27287419437E+02 -0.86614007036E+00  0.40659143114E+02  0.00000000000E+00 0. -1.
         11    1    3    3    0    0 -0.58095304734E+01 -0.39478095964E+01 -0.73050533150E+01  0.10134083537E+02  0.51100000000E-03 0. -1.
        -11    1    3    3    0    0 -0.12264765613E+02 -0.54093022692E+01  0.12534702984E+02  0.18352215282E+02  0.51100000000E-03 0.  1.
        -12    1    3    3    0    0 -0.12055630243E+02 -0.17930307571E+02 -0.43635095988E+01  0.22042558068E+02  0.00000000000E+00 0.  1.
</event>
<event>
 7    1  0.2973028E-011  0.5052886E+02  0.7816164E-02  0.1300439E+00
        -11   -1    0    0    0    0  0.00000000000E+00  0.00000000000E+00  0.45593999997E+02  0.45594000000E+02  0.51100000000E-03 0.  1.
         11   -1    0    0    0    0 -0.00000000000E+00 -0.00000000000E+00 -0.45593999997E+02  0.45594000000E+02  0.51100000000E-03 0. -1.
    9900012    2    1    2    0    0 -0.17992826941E+01 -0.20979241490E+02  0.34782180285E+02  0.50528855186E+02  0.29999985822E+02 0.  0.
         12    1    1    2    0    0  0.17992826941E+01  0.20979241490E+02 -0.34782180285E+02  0.40659144814E+02  0.00000000000E+00 0. -1.
         11    1    3    3    0    0 -0.13097555160E+02 -0.84220384991E+01  0.17122877467E+02  0.23144537512E+02  0.51100000000E-03 0. -1.
        -11    1    3    3    0    0  0.10468543187E+02 -0.14737595938E+02  0.17304345954E+02  0.25024538350E+02  0.51100000000E-03 0.  1.
         12    1    3    3    0    0  0.82972927941E+00  0.21803929471E+01  0.35495686404E+00  0.23597793236E+01  0.00000000000E+00 0. -1.
</event>
<event>
 7    1  0.2973028E-011  0.5052886E+02  0.7816164E-02  0.1300439E+00
        -11   -1    0    0    0    0  0.00000000000E+00  0.00000000000E+00  0.45593999997E+02  0.45594000000E+02  0.51100000000E-03 0. -1.
         11   -1    0    0    0    0 -0.00000000000E+00 -0.00000000000E+00 -0.45593999997E+02  0.45594000000E+02  0.51100000000E-03 0.  1.
    9900012    2    1    2    0    0 -0.83972225466E+01  0.22217976293E+02 -0.33000211189E+02  0.50528858893E+02  0.29999997090E+02 0.  0.
         12    1    1    2    0    0  0.83972225466E+01 -0.22217976293E+02  0.33000211189E+02  0.40659141107E+02  0.00000000000E+00 0. -1.
         11    1    3    3    0    0 -0.98273442562E+01  0.11181986566E+02 -0.20673688344E+01  0.15029555311E+02  0.51100000000E-03 0. -1.
        -11    1    3    3    0    0 -0.48861011417E+01  0.37239677447E+01 -0.19933620110E+02  0.20858838200E+02  0.51100000000E-03 0.  1.
         12    1    3    3    0    0  0.63162228514E+01  0.73120219823E+01 -0.10999222245E+02  0.14640465381E+02  0.00000000000E+00 0. -1.
</event>
<event>
 7    1  0.2973028E-011  0.5052885E+02  0.7816164E-02  0.1300439E+00
        -11   -1    0    0    0    0  0.00000000000E+00  0.00000000000E+00  0.45593999997E+02  0.45594000000E+02  0.51100000000E-03 0. -1.
         11   -1    0    0    0    0 -0.00000000000E+00 -0.00000000000E+00 -0.45593999997E+02  0.45594000000E+02  0.51100000000E-03 0.  1.
    9900012    2    1    2    0    0  0.20440407136E+01  0.32246941686E+02  0.24680415676E+02  0.50528852585E+02  0.29999977918E+02 0.  0.
         12    1    1    2    0    0 -0.20440407136E+01 -0.32246941686E+02 -0.24680415676E+02  0.40659147415E+02  0.00000000000E+00 0. -1.
         11    1    3    3    0    0 -0.94943863353E+00  0.86091723877E+00  0.11348663913E+01  0.17118803107E+01  0.51100000000E-03 0. -1.
        -11    1    3    3    0    0 -0.76511400881E+01  0.28235042521E+02  0.91758934732E+01  0.30658678903E+02  0.51100000000E-03 0.  1.
        -12    1    3    3    0    0  0.10644619435E+02  0.31509819266E+01  0.14369655811E+02  0.18158293371E+02  0.00000000000E+00 0.  1.
</event>
<event>
 7    1  0.2973028E-011  0.5052887E+02  0.7816164E-02  0.1300439E+00
        -11   -1    0    0    0    0  0.00000000000E+00  0.00000000000E+00  0.45593999997E+02  0.45594000000E+02  0.51100000000E-03 0.  1.
         11   -1    0    0    0    0 -0.00000000000E+00 -0.00000000000E+00 -0.45593999997E+02  0.45594000000E+02  0.51100000000E-03 0. -1.
    9900012    2    1    2    0    0  0.38302561445E+02  0.13625736679E+02 -0.64626803001E+00  0.50528873402E+02  0.30000041194E+02 0.  0.
         12    1    1    2    0    0 -0.38302561445E+02 -0.13625736679E+02  0.64626803001E+00  0.40659126598E+02  0.00000000000E+00 0. -1.
         11    1    3    3    0    0  0.14033837113E+02  0.43741400513E+00 -0.45424014075E+01  0.14757144911E+02  0.51100000000E-03 0. -1.
        -11    1    3    3    0    0  0.40018384578E+01  0.11996053702E+02  0.81288812804E+01  0.15033254025E+02  0.51100000000E-03 0.  1.
        -12    1    3    3    0    0  0.20266885875E+02  0.11922689720E+01 -0.42327479029E+01  0.20738474466E+02  0.00000000000E+00 0.  1.
</event>
<event>
 7    1  0.2973028E-011  0.5052886E+02  0.7816164E-02  0.1300439E+00
        -11   -1    0    0    0    0  0.00000000000E+00  0.00000000000E+00  0.45593999997E+02  0.45594000000E+02  0.51100000000E-03 0. -1.
         11   -1    0    0    0    0 -0.00000000000E+00 -0.00000000000E+00 -0.45593999997E+02  0.45594000000E+02  0.51100000000E-03 0.  1.
    9900012    2    1    2    0    0 -0.34452585441E+02  0.21385384020E+02 -0.29749400954E+01  0.50528861275E+02  0.30000004333E+02 0.  0.
         12    1    1    2    0    0  0.34452585441E+02 -0.21385384020E+02  0.29749400954E+01  0.40659138725E+02  0.00000000000E+00 0. -1.
         11    1    3    3    0    0 -0.35441350420E+01  0.48981767775E+01  0.10145528620E+02  0.11810367487E+02  0.51100000000E-03 0. -1.
        -11    1    3    3    0    0 -0.28085409129E+02  0.11058989858E+02 -0.96766840014E+01  0.31697471132E+02  0.51100000000E-03 0.  1.
         12    1    3    3    0    0 -0.28230412698E+01  0.54282173840E+01 -0.34437847141E+01  0.70210226560E+01  0.00000000000E+00 0. -1.
</event>
<event>
 7    1  0.2973028E-011  0.5052887E+02  0.7816164E-02  0.1300439E+00
        -11   -1    0    0    0    0  0.00000000000E+00  0.00000000000E+00  0.45593999997E+02  0.45594000000E+02  0.51100000000E-03 0.  1.
         11   -1    0    0    0    0 -0.00000000000E+00 -0.00000000000E+00 -0.45593999997E+02  0.45594000000E+02  0.51100000000E-03 0. -1.
    9900012    2    1    2    0    0  0.35556712721E+02 -0.16919371905E+02  0.10130160225E+02  0.50528866815E+02  0.30000021171E+02 0.  0.
         12    1    1    2    0    0 -0.35556712721E+02  0.16919371905E+02 -0.10130160225E+02  0.40659133185E+02  0.00000000000E+00 0. -1.
         11    1    3    3    0    0  0.16358322880E+02  0.57470519468E+00 -0.18181595689E+01  0.16469083702E+02  0.51100000000E-03 0. -1.
        -11    1    3    3    0    0 -0.25335419254E+01 -0.75917514343E+01  0.33755017298E+01  0.86860541512E+01  0.51100000000E-03 0.  1.
         12    1    3    3    0    0  0.21731931766E+02 -0.99023256653E+01  0.85728180638E+01  0.25373728962E+02  0.00000000000E+00 0. -1.
</event>
<event>
 7    1  0.2973028E-011  0.5052885E+02  0.7816164E-02  0.1300439E+00
        -11   -1    0    0    0    0  0.00000000000E+00  0.00000000000E+00  0.45593999997E+02  0.45594000000E+02  0.51100000000E-03 0.  1.
         11   -1    0    0    0    0 -0.00000000000E+00 -0.00000000000E+00 -0.45593999997E+02  0.45594000000E+02  0.51100000000E-03 0. -1.
    9900012    2    1    2    0    0  0.78588296787E+01  0.48973752114E+01  0.39590663320E+02  0.50528854535E+02  0.29999983843E+02 0.  0.
         12    1    1    2    0    0 -0.78588296787E+01 -0.48973752114E+01 -0.39590663320E+02  0.40659145465E+02  0.00000000000E+00 0. -1.
         11    1    3    3    0    0 -0.70417039426E+01  0.61111622071E+01  0.24120300155E+02  0.25859636071E+02  0.51100000000E-03 0. -1.
        -11    1    3    3    0    0  0.50915673074E+01 -0.20793956445E+01  0.13567661481E+02  0.14639992562E+02  0.51100000000E-03 0.  1.
         12    1    3    3    0    0  0.98089663138E+01  0.86560864873E+00  0.19027016843E+01  0.10029225901E+02  0.00000000000E+00 0. -1.
</event>
<event>
 7    1  0.2973028E-011  0.5052891E+02  0.7816164E-02  0.1300439E+00
        -11   -1    0    0    0    0  0.00000000000E+00  0.00000000000E+00  0.45593999997E+02  0.45594000000E+02  0.51100000000E-03 0.  1.
         11   -1    0    0    0    0 -0.00000000000E+00 -0.00000000000E+00 -0.45593999997E+02  0.45594000000E+02  0.51100000000E-03 0. -1.
    9900012    2    1    2    0    0 -0.24675403012E+02 -0.13970842804E+02  0.29139346389E+02  0.50528911589E+02  0.30000157265E+02 0.  0.
         12    1    1    2    0    0  0.24675403012E+02  0.13970842804E+02 -0.29139346389E+02  0.40659088411E+02  0.00000000000E+00 0. -1.
         11    1    3    3    0    0 -0.20573296077E+02 -0.19814997557E+01  0.25923535508E+02  0.33154434790E+02  0.51100000000E-03 0. -1.
        -11    1    3    3    0    0 -0.20198481456E+01 -0.77016569007E+01  0.75201412005E+01  0.10952069644E+02  0.51100000000E-03 0.  1.
         12    1    3    3    0    0 -0.20822587889E+01 -0.42876861474E+01 -0.43043303194E+01  0.64224071547E+01  0.00000000000E+00 0. -1.
</event>
<event>
 7    1  0.2973028E-011  0.5052888E+02  0.7816164E-02  0.1300439E+00
        -11   -1    0    0    0    0  0.00000000000E+00  0.00000000000E+00  0.45593999997E+02  0.45594000000E+02  0.51100000000E-03 0. -1.
         11   -1    0    0    0    0 -0.00000000000E+00 -0.00000000000E+00 -0.45593999997E+02  0.45594000000E+02  0.51100000000E-03 0.  1.
    9900012    2    1    2    0    0  0.28262402346E+02 -0.24054755802E+02 -0.16606293587E+02  0.50528884788E+02  0.30000075803E+02 0.  0.
         12    1    1    2    0    0 -0.28262402346E+02  0.24054755802E+02  0.16606293587E+02  0.40659115212E+02  0.00000000000E+00 0. -1.
         11    1    3    3    0    0  0.16739024749E+02 -0.14771595923E+02  0.46330684760E+01  0.22800445597E+02  0.51100000000E-03 0. -1.
        -11    1    3    3    0    0  0.14466199616E+01 -0.64414676291E+01 -0.45182532708E+01  0.79999892131E+01  0.51100000000E-03 0.  1.
         12    1    3    3    0    0  0.10076757635E+02 -0.28416922499E+01 -0.16721108792E+02  0.19728449978E+02  0.00000000000E+00 0. -1.
</event>
<event>
 7    1  0.2973028E-011  0.5052885E+02  0.7816164E-02  0.1300439E+00
        -11   -1    0    0    0    0  0.00000000000E+00  0.00000000000E+00  0.45593999997E+02  0.45594000000E+02  0.51100000000E-03 0.  1.
         11   -1    0    0    0    0 -0.00000000000E+00 -0.00000000000E+00 -0.45593999997E+02  0.45594000000E+02  0.51100000000E-03 0. -1.
    9900012    2    1    2    0    0  0.21235452923E+02  0.29264759762E+01  0.34549347451E+02  0.50528854267E+02  0.29999983029E+02 0.  0.
         12    1    1    2    0    0 -0.21235452923E+02 -0.29264759762E+01 -0.34549347451E+02  0.40659145733E+02  0.00000000000E+00 0. -1.
         11    1    3    3    0    0  0.93818926631E+01  0.10045453294E+02  0.52407143861E+01  0.14710408878E+02  0.51100000000E-03 0. -1.
        -11    1    3    3    0    0  0.46811591464E+01 -0.13508694820E+00  0.24066848135E+02  0.24518251953E+02  0.51100000000E-03 0.  1.
        -12    1    3    3    0    0  0.71724011137E+01 -0.69838903694E+01  0.52417849296E+01  0.11300193435E+02  0.00000000000E+00 0.  1.
</event>
<event>
 7    1  0.2973028E-011  0.5052886E+02  0.7816164E-02  0.1300439E+00
        -11   -1    0    0    0    0  0.00000000000E+00  0.00000000000E+00  0.45593999997E+02  0.45594000000E+02  0.51100000000E-03 0. -1.
         11   -1    0    0    0    0 -0.00000000000E+00 -0.00000000000E+00 -0.45593999997E+02  0.45594000000E+02  0.51100000000E-03 0.  1.
    9900012    2    1    2    0    0 -0.31290611823E+02 -0.18417539857E+02 -0.18299104866E+02  0.50528863246E+02  0.30000010323E+02 0.  0.
         12    1    1    2    0    0  0.31290611823E+02  0.18417539857E+02  0.18299104866E+02  0.40659136754E+02  0.00000000000E+00 0. -1.
         11    1    3    3    0    0 -0.40978976457E+01 -0.12008867197E+02 -0.28370026700E+00  0.12691971579E+02  0.51100000000E-03 0.  1.
        -11    1    3    3    0    0 -0.27279343356E+02 -0.10361049164E+02 -0.14683702686E+02  0.32666879841E+02  0.51100000000E-03 0. -1.
         12    1    3    3    0    0  0.86629178379E-01  0.39523765036E+01 -0.33317019130E+01  0.51700118257E+01  0.00000000000E+00 0. -1.
</event>
<event>
 7    1  0.2973028E-011  0.5052886E+02  0.7816164E-02  0.1300439E+00
        -11   -1    0    0    0    0  0.00000000000E+00  0.00000000000E+00  0.45593999997E+02  0.45594000000E+02  0.51100000000E-03 0.  1.
         11   -1    0    0    0    0 -0.00000000000E+00 -0.00000000000E+00 -0.45593999997E+02  0.45594000000E+02  0.51100000000E-03 0. -1.
    9900012    2    1    2    0    0  0.41334282544E+01  0.24844945188E+01  0.40372116078E+02  0.50528859591E+02  0.29999999214E+02 0.  0.
         12    1    1    2    0    0 -0.41334282544E+01 -0.24844945188E+01 -0.40372116078E+02  0.40659140409E+02  0.00000000000E+00 0. -1.
         11    1    3    3    0    0  0.79005472818E+01 -0.10270130070E+02  0.15991737666E+02  0.20582271324E+02  0.51100000000E-03 0. -1.
        -11    1    3    3    0    0  0.25034276194E+01  0.10390266718E+02  0.14882066471E+02  0.18322136748E+02  0.51100000000E-03 0.  1.
         12    1    3    3    0    0 -0.62705466468E+01  0.23643578712E+01  0.94983119409E+01  0.11624451519E+02  0.00000000000E+00 0. -1.
</event>
<event>
 7    1  0.2973028E-011  0.5052886E+02  0.7816164E-02  0.1300439E+00
        -11   -1    0    0    0    0  0.00000000000E+00  0.00000000000E+00  0.45593999997E+02  0.45594000000E+02  0.51100000000E-03 0.  1.
         11   -1    0    0    0    0 -0.00000000000E+00 -0.00000000000E+00 -0.45593999997E+02  0.45594000000E+02  0.51100000000E-03 0. -1.
    9900012    2    1    2    0    0  0.36731833792E+02 -0.64133786026E+01  0.16211304289E+02  0.50528862951E+02  0.30000009425E+02 0.  0.
         12    1    1    2    0    0 -0.36731833792E+02  0.64133786026E+01 -0.16211304289E+02  0.40659137049E+02  0.00000000000E+00 0. -1.
         11    1    3    3    0    0  0.37595126635E+01  0.52650975913E+01 -0.91957110791E+00  0.65345848680E+01  0.51100000000E-03 0. -1.
        -11    1    3    3    0    0  0.60163475440E+01 -0.12151981343E+02  0.55230802220E+01  0.14641431069E+02  0.51100000000E-03 0.  1.
        -12    1    3    3    0    0  0.26955973584E+02  0.47350514939E+00  0.11607795175E+02  0.29352847014E+02  0.00000000000E+00 0.  1.
</event>
<event>
 7    1  0.2973028E-011  0.5052887E+02  0.7816164E-02  0.1300439E+00
        -11   -1    0    0    0    0  0.00000000000E+00  0.00000000000E+00  0.45593999997E+02  0.45594000000E+02  0.51100000000E-03 0.  1.
         11   -1    0    0    0    0 -0.00000000000E+00 -0.00000000000E+00 -0.45593999997E+02  0.45594000000E+02  0.51100000000E-03 0. -1.
    9900012    2    1    2    0    0  0.38483139959E+02  0.85844521474E+01 -0.99257420921E+01  0.50528865284E+02  0.30000016518E+02 0.  0.
         12    1    1    2    0    0 -0.38483139959E+02 -0.85844521474E+01  0.99257420921E+01  0.40659134716E+02  0.00000000000E+00 0. -1.
         11    1    3    3    0    0  0.87552724832E+01  0.40217845494E+01  0.41132589394E+01  0.10476089279E+02  0.51100000000E-03 0. -1.
        -11    1    3    3    0    0  0.12113132866E+01 -0.48211390636E+01 -0.80182936341E+01  0.94341769547E+01  0.51100000000E-03 0.  1.
        -12    1    3    3    0    0  0.28516554189E+02  0.93838066616E+01 -0.60207073975E+01  0.30618599051E+02  0.00000000000E+00 0.  1.
</event>
<event>
 7    1  0.2973028E-011  0.5052888E+02  0.7816164E-02  0.1300439E+00
        -11   -1    0    0    0    0  0.00000000000E+00  0.00000000000E+00  0.45593999997E+02  0.45594000000E+02  0.51100000000E-03 0.  1.
         11   -1    0    0    0    0 -0.00000000000E+00 -0.00000000000E+00 -0.45593999997E+02  0.45594000000E+02  0.51100000000E-03 0. -1.
    9900012    2    1    2    0    0 -0.37563609402E+01 -0.39371824749E+02  0.94293917007E+01  0.50528877291E+02  0.30000053015E+02 0.  0.
         12    1    1    2    0    0  0.37563609402E+01  0.39371824749E+02 -0.94293917007E+01  0.40659122709E+02  0.00000000000E+00 0. -1.
         11    1    3    3    0    0  0.20623647497E+01 -0.32328947240E+02 -0.13756176159E+01  0.32423856990E+02  0.51100000000E-03 0. -1.
        -11    1    3    3    0    0 -0.19901491399E+01 -0.78772792975E+01  0.11544974348E+02  0.14117317581E+02  0.51100000000E-03 0.  1.
         12    1    3    3    0    0 -0.38285765500E+01  0.83440178815E+00 -0.73996503113E+00  0.39877027209E+01  0.00000000000E+00 0. -1.
</event>
<event>
 7    1  0.2973028E-011  0.5052886E+02  0.7816164E-02  0.1300439E+00
        -11   -1    0    0    0    0  0.00000000000E+00  0.00000000000E+00  0.45593999997E+02  0.45594000000E+02  0.51100000000E-03 0. -1.
         11   -1    0    0    0    0 -0.00000000000E+00 -0.00000000000E+00 -0.45593999997E+02  0.45594000000E+02  0.51100000000E-03 0.  1.
    9900012    2    1    2    0    0  0.17368445777E+01 -0.23419834158E+02 -0.33191268717E+02  0.50528861051E+02  0.30000003650E+02 0.  0.
         12    1    1    2    0    0 -0.17368445777E+01  0.23419834158E+02  0.33191268717E+02  0.40659138949E+02  0.00000000000E+00 0. -1.
         11    1    3    3    0    0 -0.57026773567E+00 -0.39478805488E+00  0.47139711446E+01  0.47647231936E+01  0.51100000000E-03 0. -1.
        -11    1    3    3    0    0 -0.44011275782E+01 -0.93689444079E+01 -0.13631702997E+02  0.17116377250E+02  0.51100000000E-03 0.  1.
         12    1    3    3    0    0  0.67082398916E+01 -0.13656101695E+02 -0.24273536864E+02  0.28647760608E+02  0.00000000000E+00 0. -1.
</event>
<event>
 7    1  0.2973028E-011  0.5052886E+02  0.7816164E-02  0.1300439E+00
        -11   -1    0    0    0    0  0.00000000000E+00  0.00000000000E+00  0.45593999997E+02  0.45594000000E+02  0.51100000000E-03 0. -1.
         11   -1    0    0    0    0 -0.00000000000E+00 -0.00000000000E+00 -0.45593999997E+02  0.45594000000E+02  0.51100000000E-03 0.  1.
    9900012    2    1    2    0    0  0.15703996663E+02 -0.61252010070E+01 -0.37000432223E+02  0.50528861012E+02  0.30000003532E+02 0.  0.
         12    1    1    2    0    0 -0.15703996663E+02  0.61252010070E+01  0.37000432223E+02  0.40659138988E+02  0.00000000000E+00 0. -1.
         11    1    3    3    0    0  0.38297451592E+01 -0.86791128438E+01 -0.13514776729E+02  0.16511908976E+02  0.51100000000E-03 0. -1.
        -11    1    3    3    0    0  0.21342434750E-01  0.79254717544E+01 -0.18419673414E+02  0.20052379584E+02  0.51100000000E-03 0.  1.
        -12    1    3    3    0    0  0.11852909069E+02 -0.53715599176E+01 -0.50659820801E+01  0.13964572453E+02  0.00000000000E+00 0.  1.
</event>
<event>
 7    1  0.2973028E-011  0.5052888E+02  0.7816164E-02  0.1300439E+00
        -11   -1    0    0    0    0  0.00000000000E+00  0.00000000000E+00  0.45593999997E+02  0.45594000000E+02  0.51100000000E-03 0.  1.
         11   -1    0    0    0    0 -0.00000000000E+00 -0.00000000000E+00 -0.45593999997E+02  0.45594000000E+02  0.51100000000E-03 0. -1.
    9900012    2    1    2    0    0 -0.20253197276E+02  0.33930019015E+01  0.35092159228E+02  0.50528879239E+02  0.30000058934E+02 0.  0.
         12    1    1    2    0    0  0.20253197276E+02 -0.33930019015E+01 -0.35092159228E+02  0.40659120761E+02  0.00000000000E+00 0. -1.
         11    1    3    3    0    0  0.40693547774E+01 -0.46464259721E+01  0.17888755856E+02  0.18925023354E+02  0.51100000000E-03 0. -1.
        -11    1    3    3    0    0 -0.17758691862E+02  0.63512506848E+01  0.88120686286E+01  0.20817350352E+02  0.51100000000E-03 0.  1.
        -12    1    3    3    0    0 -0.65638601911E+01  0.16881771889E+01  0.83913347438E+01  0.10786505533E+02  0.00000000000E+00 0.  1.
</event>
<event>
 7    1  0.2973028E-011  0.5052886E+02  0.7816164E-02  0.1300439E+00
        -11   -1    0    0    0    0  0.00000000000E+00  0.00000000000E+00  0.45593999997E+02  0.45594000000E+02  0.51100000000E-03 0.  1.
         11   -1    0    0    0    0 -0.00000000000E+00 -0.00000000000E+00 -0.45593999997E+02  0.45594000000E+02  0.51100000000E-03 0. -1.
    9900012    2    1    2    0    0 -0.15080898504E+02  0.37074210567E+02  0.71578821458E+01  0.50528857539E+02  0.29999992976E+02 0.  0.
         12    1    1    2    0    0  0.15080898504E+02 -0.37074210567E+02 -0.71578821458E+01  0.40659142461E+02  0.00000000000E+00 0. -1.
         11    1    3    3    0    0 -0.55300984612E+01  0.35034292160E+02  0.30579498959E+01  0.35599644296E+02  0.51100000000E-03 0. -1.
        -11    1    3    3    0    0 -0.10920209809E+02  0.42312805081E+01  0.38734609080E+01  0.12335250978E+02  0.51100000000E-03 0.  1.
         12    1    3    3    0    0  0.13694097659E+01 -0.21913621017E+01  0.22647134195E+00  0.25939622658E+01  0.00000000000E+00 0. -1.
</event>
<event>
 7    1  0.2973028E-011  0.5052886E+02  0.7816164E-02  0.1300439E+00
        -11   -1    0    0    0    0  0.00000000000E+00  0.00000000000E+00  0.45593999997E+02  0.45594000000E+02  0.51100000000E-03 0. -1.
         11   -1    0    0    0    0 -0.00000000000E+00 -0.00000000000E+00 -0.45593999997E+02  0.45594000000E+02  0.51100000000E-03 0.  1.
    9900012    2    1    2    0    0 -0.25285143690E+02 -0.67403987316E+01 -0.31119036009E+02  0.50528857503E+02  0.29999992866E+02 0.  0.
         12    1    1    2    0    0  0.25285143690E+02  0.67403987316E+01  0.31119036009E+02  0.40659142497E+02  0.00000000000E+00 0. -1.
         11    1    3    3    0    0 -0.17376433498E+02 -0.43273422039E+01 -0.14849627958E+02  0.23263228117E+02  0.51100000000E-03 0. -1.
        -11    1    3    3    0    0  0.37841941305E+01 -0.78595911687E+01 -0.45538207829E+01  0.98402531747E+01  0.51100000000E-03 0.  1.
        -12    1    3    3    0    0 -0.11692904322E+02  0.54465346411E+01 -0.11715587267E+02  0.17425376211E+02  0.00000000000E+00 0.  1.
</event>
<event>
 7    1  0.2973028E-011  0.5052885E+02  0.7816164E-02  0.1300439E+00
        -11   -1    0    0    0    0  0.00000000000E+00  0.00000000000E+00  0.45593999997E+02  0.45594000000E+02  0.51100000000E-03 0.  1.
         11   -1    0    0    0    0 -0.00000000000E+00 -0.00000000000E+00 -0.45593999997E+02  0.45594000000E+02  0.51100000000E-03 0. -1.
    9900012    2    1    2    0    0  0.21438722178E+02  0.26325735004E+02  0.22371940434E+02  0.50528845424E+02  0.29999956149E+02 0.  0.
         12    1    1    2    0    0 -0.21438722178E+02 -0.26325735004E+02 -0.22371940434E+02  0.40659154576E+02  0.00000000000E+00 0. -1.
         11    1    3    3    0    0 -0.35563014187E+01  0.17982933736E+01  0.40472272437E+01  0.56798932615E+01  0.51100000000E-03 0. -1.
        -11    1    3    3    0    0  0.21355891165E+02  0.15355326697E+02  0.22028465653E+02  0.34309086911E+02  0.51100000000E-03 0.  1.
        -12    1    3    3    0    0  0.36391324318E+01  0.91721149332E+01 -0.37037524626E+01  0.10539865251E+02  0.00000000000E+00 0.  1.
</event>
<event>
 7    1  0.2973028E-011  0.5052887E+02  0.7816164E-02  0.1300439E+00
        -11   -1    0    0    0    0  0.00000000000E+00  0.00000000000E+00  0.45593999997E+02  0.45594000000E+02  0.51100000000E-03 0.  1.
         11   -1    0    0    0    0 -0.00000000000E+00 -0.00000000000E+00 -0.45593999997E+02  0.45594000000E+02  0.51100000000E-03 0. -1.
    9900012    2    1    2    0    0 -0.40034494622E+02  0.63423863327E+01 -0.31903014909E+01  0.50528872518E+02  0.30000038505E+02 0.  0.
         12    1    1    2    0    0  0.40034494622E+02 -0.63423863327E+01  0.31903014909E+01  0.40659127482E+02  0.00000000000E+00 0. -1.
         11    1    3    3    0    0 -0.24416540530E+02 -0.28288194975E+01  0.66011892130E+01  0.25450842235E+02  0.51100000000E-03 0.  1.
        -11    1    3    3    0    0 -0.68394421973E+01  0.85078942632E+01 -0.11772122079E+02  0.16054441531E+02  0.51100000000E-03 0. -1.
         12    1    3    3    0    0 -0.87785118947E+01  0.66331156697E+00  0.19806313749E+01  0.90235887519E+01  0.00000000000E+00 0. -1.
</event>
<event>
 7    1  0.2973028E-011  0.5052892E+02  0.7816164E-02  0.1300439E+00
        -11   -1    0    0    0    0  0.00000000000E+00  0.00000000000E+00  0.45593999997E+02  0.45594000000E+02  0.51100000000E-03 0.  1.
         11   -1    0    0    0    0 -0.00000000000E+00 -0.00000000000E+00 -0.45593999997E+02  0.45594000000E+02  0.51100000000E-03 0. -1.
    9900012    2    1    2    0    0 -0.34557207083E+02  0.72730128368E+00  0.21411004138E+02  0.50528921964E+02  0.30000188802E+02 0.  0.
         12    1    1    2    0    0  0.34557207083E+02 -0.72730128368E+00 -0.21411004138E+02  0.40659078036E+02  0.00000000000E+00 0. -1.
         11    1    3    3    0    0 -0.11419669543E+02  0.51780260044E+01 -0.54883165686E+01  0.13687308895E+02  0.51100000000E-03 0. -1.
        -11    1    3    3    0    0 -0.22474164889E+02 -0.49303816988E+01  0.21863578987E+02  0.31739767446E+02  0.51100000000E-03 0.  1.
         12    1    3    3    0    0 -0.66337265060E+00  0.47965697809E+00  0.50357417195E+01  0.51018456225E+01  0.00000000000E+00 0. -1.
</event>
<event>
 7    1  0.2973028E-011  0.5052886E+02  0.7816164E-02  0.1300439E+00
        -11   -1    0    0    0    0  0.00000000000E+00  0.00000000000E+00  0.45593999997E+02  0.45594000000E+02  0.51100000000E-03 0. -1.
         11   -1    0    0    0    0 -0.00000000000E+00 -0.00000000000E+00 -0.45593999997E+02  0.45594000000E+02  0.51100000000E-03 0.  1.
    9900012    2    1    2    0    0 -0.71408417589E+01  0.33606309855E+01 -0.39885835322E+02  0.50528864238E+02  0.30000013337E+02 0.  0.
         12    1    1    2    0    0  0.71408417589E+01 -0.33606309855E+01  0.39885835322E+02  0.40659135762E+02  0.00000000000E+00 0. -1.
         11    1    3    3    0    0  0.28274322455E+01  0.27820930667E+01  0.16597760322E+01  0.42999153100E+01  0.51100000000E-03 0. -1.
        -11    1    3    3    0    0  0.26498812192E+00  0.49362665198E+01 -0.29185576130E+02  0.29601263489E+02  0.51100000000E-03 0.  1.
        -12    1    3    3    0    0 -0.10233262126E+02 -0.43577286010E+01 -0.12360035224E+02  0.16627685438E+02  0.00000000000E+00 0.  1.
</event>
<event>
 7    1  0.2973028E-011  0.5052886E+02  0.7816164E-02  0.1300439E+00
        -11   -1    0    0    0    0  0.00000000000E+00  0.00000000000E+00  0.45593999997E+02  0.45594000000E+02  0.51100000000E-03 0.  1.
         11   -1    0    0    0    0 -0.00000000000E+00 -0.00000000000E+00 -0.45593999997E+02  0.45594000000E+02  0.51100000000E-03 0. -1.
    9900012    2    1    2    0    0 -0.83116347434E+01  0.28899171442E+02  0.27366406915E+02  0.50528860688E+02  0.30000002547E+02 0.  0.
         12    1    1    2    0    0  0.83116347434E+01 -0.28899171442E+02 -0.27366406915E+02  0.40659139312E+02  0.00000000000E+00 0. -1.
         11    1    3    3    0    0 -0.84070262830E+00  0.68521020596E+01 -0.49965057300E+01  0.85219219262E+01  0.51100000000E-03 0. -1.
        -11    1    3    3    0    0 -0.10179472401E+02  0.97312963652E+01  0.18770344543E+02  0.23465839466E+02  0.51100000000E-03 0.  1.
         12    1    3    3    0    0  0.27085402860E+01  0.12315773017E+02  0.13592568102E+02  0.18541099296E+02  0.00000000000E+00 0. -1.
</event>
<event>
 7    1  0.2973028E-011  0.5052886E+02  0.7816164E-02  0.1300439E+00
        -11   -1    0    0    0    0  0.00000000000E+00  0.00000000000E+00  0.45593999997E+02  0.45594000000E+02  0.51100000000E-03 0. -1.
         11   -1    0    0    0    0 -0.00000000000E+00 -0.00000000000E+00 -0.45593999997E+02  0.45594000000E+02  0.51100000000E-03 0.  1.
    9900012    2    1    2    0    0  0.24771990499E+02  0.32784033565E+01 -0.32074382392E+02  0.50528862679E+02  0.30000008600E+02 0.  0.
         12    1    1    2    0    0 -0.24771990499E+02 -0.32784033565E+01  0.32074382392E+02  0.40659137321E+02  0.00000000000E+00 0. -1.
         11    1    3    3    0    0  0.54214376413E+01  0.97797963294E+01 -0.18741447501E+02  0.21823800243E+02  0.51100000000E-03 0. -1.
        -11    1    3    3    0    0  0.90293664370E+01 -0.81042005416E+01 -0.47885626523E+00  0.12142356783E+02  0.51100000000E-03 0.  1.
        -12    1    3    3    0    0  0.10321186421E+02  0.16028075687E+01 -0.12854078625E+02  0.16562705653E+02  0.00000000000E+00 0.  1.
</event>
<event>
 7    1  0.3198449E-011  0.5052898E+02  0.7816164E-02  0.1300438E+00
        -11   -1    0    0    0    0  0.00000000000E+00  0.00000000000E+00  0.45593999997E+02  0.45594000000E+02  0.51100000000E-03 0.  1.
         11   -1    0    0    0    0 -0.00000000000E+00 -0.00000000000E+00 -0.45593999997E+02  0.45594000000E+02  0.51100000000E-03 0. -1.
    9900012    2    1    2    0    0  0.39953037294E+02 -0.65005924143E+01 -0.38279553810E+01  0.50528977223E+02  0.30000356765E+02 0.  0.
         12    1    1    2    0    0 -0.39953037294E+02  0.65005924143E+01  0.38279553810E+01  0.40659022777E+02  0.00000000000E+00 0. -1.
         11    1    3    3    0    0  0.24867698593E+01 -0.77753608593E+01 -0.37099982227E+01  0.89668471549E+01  0.51100000000E-03 0. -1.
        -11    1    3    3    0    0  0.13833103867E+02  0.91888311330E+01 -0.84598152028E+00  0.16628441454E+02  0.51100000000E-03 0.  1.
        -12    1    3    3    0    0  0.23633163568E+02 -0.79140626879E+01  0.72802436197E+00  0.24933688614E+02  0.00000000000E+00 0.  1.
</event>
<event>
 7    1  0.2973028E-011  0.5052885E+02  0.7816164E-02  0.1300439E+00
        -11   -1    0    0    0    0  0.00000000000E+00  0.00000000000E+00  0.45593999997E+02  0.45594000000E+02  0.51100000000E-03 0. -1.
         11   -1    0    0    0    0 -0.00000000000E+00 -0.00000000000E+00 -0.45593999997E+02  0.45594000000E+02  0.51100000000E-03 0.  1.
    9900012    2    1    2    0    0 -0.12810573202E+02 -0.56984600319E+01 -0.38165210159E+02  0.50528849751E+02  0.29999969304E+02 0.  0.
         12    1    1    2    0    0  0.12810573202E+02  0.56984600319E+01  0.38165210159E+02  0.40659150249E+02  0.00000000000E+00 0. -1.
         11    1    3    3    0    0  0.29898371634E+01  0.33362730064E+01 -0.32574425666E+01  0.55390230341E+01  0.51100000000E-03 0. -1.
        -11    1    3    3    0    0 -0.10049064311E+02 -0.16210638945E+02 -0.25382566832E+02  0.31749696184E+02  0.51100000000E-03 0.  1.
        -12    1    3    3    0    0 -0.57513460547E+01  0.71759059065E+01 -0.95252007600E+01  0.13240130533E+02  0.00000000000E+00 0.  1.
</event>
<event>
 7    1  0.2973028E-011  0.5052887E+02  0.7816164E-02  0.1300439E+00
        -11   -1    0    0    0    0  0.00000000000E+00  0.00000000000E+00  0.45593999997E+02  0.45594000000E+02  0.51100000000E-03 0.  1.
         11   -1    0    0    0    0 -0.00000000000E+00 -0.00000000000E+00 -0.45593999997E+02  0.45594000000E+02  0.51100000000E-03 0. -1.
    9900012    2    1    2    0    0 -0.11839021000E+02 -0.25367217958E+02  0.29487402610E+02  0.50528867227E+02  0.30000022422E+02 0.  0.
         12    1    1    2    0    0  0.11839021000E+02  0.25367217958E+02 -0.29487402610E+02  0.40659132773E+02  0.00000000000E+00 0. -1.
         11    1    3    3    0    0 -0.34664402780E+01  0.36937778616E+01  0.28882055677E-01  0.50656724653E+01  0.51100000000E-03 0. -1.
        -11    1    3    3    0    0 -0.10650118220E+02 -0.17819585660E+02  0.26415195427E+02  0.33596505784E+02  0.51100000000E-03 0.  1.
        -12    1    3    3    0    0  0.22775374983E+01 -0.11241410160E+02  0.30433251272E+01  0.11866688977E+02  0.00000000000E+00 0.  1.
</event>
<event>
 7    1  0.2973028E-011  0.5052887E+02  0.7816164E-02  0.1300439E+00
        -11   -1    0    0    0    0  0.00000000000E+00  0.00000000000E+00  0.45593999997E+02  0.45594000000E+02  0.51100000000E-03 0. -1.
         11   -1    0    0    0    0 -0.00000000000E+00 -0.00000000000E+00 -0.45593999997E+02  0.45594000000E+02  0.51100000000E-03 0.  1.
    9900012    2    1    2    0    0  0.14656479368E+02 -0.20889491603E+02  0.31654094158E+02  0.50528869121E+02  0.30000028180E+02 0.  0.
         12    1    1    2    0    0 -0.14656479368E+02  0.20889491603E+02 -0.31654094158E+02  0.40659130879E+02  0.00000000000E+00 0. -1.
         11    1    3    3    0    0  0.54822885476E+01 -0.23089465244E+02  0.21276714069E+02  0.31872832551E+02  0.51100000000E-03 0. -1.
        -11    1    3    3    0    0  0.11984756910E+02  0.29496841712E+01  0.69647168573E+01  0.14171884704E+02  0.51100000000E-03 0.  1.
        -12    1    3    3    0    0 -0.28105660899E+01 -0.74971052978E+00  0.34126632314E+01  0.44841518658E+01  0.00000000000E+00 0.  1.
</event>
<event>
 7    1  0.2973028E-011  0.5052886E+02  0.7816164E-02  0.1300439E+00
        -11   -1    0    0    0    0  0.00000000000E+00  0.00000000000E+00  0.45593999997E+02  0.45594000000E+02  0.51100000000E-03 0.  1.
         11   -1    0    0    0    0 -0.00000000000E+00 -0.00000000000E+00 -0.45593999997E+02  0.45594000000E+02  0.51100000000E-03 0. -1.
    9900012    2    1    2    0    0 -0.18895180402E+02  0.34281008437E+02  0.10997737456E+02  0.50528860670E+02  0.30000002493E+02 0.  0.
         12    1    1    2    0    0  0.18895180402E+02 -0.34281008437E+02 -0.10997737456E+02  0.40659139330E+02  0.00000000000E+00 0. -1.
         11    1    3    3    0    0 -0.72127069377E+01 -0.22366472637E+00  0.93522689608E+01  0.11812624698E+02  0.51100000000E-03 0. -1.
        -11    1    3    3    0    0 -0.17958474099E+01  0.23506862107E+02 -0.14022901534E+01  0.23617028855E+02  0.51100000000E-03 0.  1.
        -12    1    3    3    0    0 -0.98866260545E+01  0.10997811057E+02  0.30477586490E+01  0.15099207117E+02  0.00000000000E+00 0.  1.
</event>
<event>
 7    1  0.2973028E-011  0.5052891E+02  0.7816164E-02  0.1300439E+00
        -11   -1    0    0    0    0  0.00000000000E+00  0.00000000000E+00  0.45593999997E+02  0.45594000000E+02  0.51100000000E-03 0. -1.
         11   -1    0    0    0    0 -0.00000000000E+00 -0.00000000000E+00 -0.45593999997E+02  0.45594000000E+02  0.51100000000E-03 0.  1.
    9900012    2    1    2    0    0  0.34017605367E+02  0.16593861375E+02  0.14852886212E+02  0.50528905826E+02  0.30000139749E+02 0.  0.
         12    1    1    2    0    0 -0.34017605367E+02 -0.16593861375E+02 -0.14852886212E+02  0.40659094174E+02  0.00000000000E+00 0. -1.
         11    1    3    3    0    0  0.23817827448E+02  0.49274141678E+01  0.22542462026E+02  0.33162190959E+02  0.51100000000E-03 0. -1.
        -11    1    3    3    0    0  0.43525023123E+01  0.40170780544E+01 -0.33621264485E+01  0.68106598058E+01  0.51100000000E-03 0.  1.
         12    1    3    3    0    0  0.58472756064E+01  0.76493691526E+01 -0.43274493657E+01  0.10556055062E+02  0.00000000000E+00 0. -1.
</event>
<event>
 7    1  0.2973028E-011  0.5052885E+02  0.7816164E-02  0.1300439E+00
        -11   -1    0    0    0    0  0.00000000000E+00  0.00000000000E+00  0.45593999997E+02  0.45594000000E+02  0.51100000000E-03 0.  1.
         11   -1    0    0    0    0 -0.00000000000E+00 -0.00000000000E+00 -0.45593999997E+02  0.45594000000E+02  0.51100000000E-03 0. -1.
    9900012    2    1    2    0    0  0.84076020806E+01  0.83676885629E+01  0.38890361508E+02  0.50528853392E+02  0.29999980371E+02 0.  0.
         12    1    1    2    0    0 -0.84076020806E+01 -0.83676885629E+01 -0.38890361508E+02  0.40659146608E+02  0.00000000000E+00 0. -1.
         11    1    3    3    0    0 -0.53244276328E+01 -0.24740928547E+01  0.89720921279E+01  0.10722364594E+02  0.51100000000E-03 0. -1.
        -11    1    3    3    0    0  0.47098947525E+01  0.15332073927E+02  0.16334851411E+02  0.22892858502E+02  0.51100000000E-03 0.  1.
        -12    1    3    3    0    0  0.90221349609E+01 -0.44902925098E+01  0.13583417969E+02  0.16913630296E+02  0.00000000000E+00 0.  1.
</event>
<event>
 7    1  0.2973028E-011  0.5052886E+02  0.7816164E-02  0.1300439E+00
        -11   -1    0    0    0    0  0.00000000000E+00  0.00000000000E+00  0.45593999997E+02  0.45594000000E+02  0.51100000000E-03 0.  1.
         11   -1    0    0    0    0 -0.00000000000E+00 -0.00000000000E+00 -0.45593999997E+02  0.45594000000E+02  0.51100000000E-03 0. -1.
    9900012    2    1    2    0    0 -0.39079412495E+02  0.10579138138E+02 -0.37479415046E+01  0.50528859450E+02  0.29999998786E+02 0.  0.
         12    1    1    2    0    0  0.39079412495E+02 -0.10579138138E+02  0.37479415046E+01  0.40659140550E+02  0.00000000000E+00 0. -1.
         11    1    3    3    0    0 -0.15119856693E+02 -0.30674182160E+01  0.59504047703E+01  0.16535611211E+02  0.51100000000E-03 0. -1.
        -11    1    3    3    0    0 -0.16857191353E+02  0.16437652975E+02 -0.28080953457E+01  0.23711742563E+02  0.51100000000E-03 0.  1.
        -12    1    3    3    0    0 -0.71023644485E+01 -0.27910966206E+01 -0.68902509293E+01  0.10281505676E+02  0.00000000000E+00 0.  1.
</event>
<event>
 7    1  0.2973028E-011  0.5052885E+02  0.7816164E-02  0.1300439E+00
        -11   -1    0    0    0    0  0.00000000000E+00  0.00000000000E+00  0.45593999997E+02  0.45594000000E+02  0.51100000000E-03 0.  1.
         11   -1    0    0    0    0 -0.00000000000E+00 -0.00000000000E+00 -0.45593999997E+02  0.45594000000E+02  0.51100000000E-03 0. -1.
    9900012    2    1    2    0    0 -0.24494455532E+02 -0.22516833992E+02  0.23370497143E+02  0.50528852178E+02  0.29999976681E+02 0.  0.
         12    1    1    2    0    0  0.24494455532E+02  0.22516833992E+02 -0.23370497143E+02  0.40659147822E+02  0.00000000000E+00 0. -1.
         11    1    3    3    0    0 -0.13930673812E+02  0.12259150285E+01  0.13353219207E+02  0.19335847640E+02  0.51100000000E-03 0. -1.
        -11    1    3    3    0    0 -0.31132197946E+00 -0.75791106745E+01  0.93505282741E+01  0.12040440991E+02  0.51100000000E-03 0.  1.
         12    1    3    3    0    0 -0.10252459741E+02 -0.16163638346E+02  0.66674966243E+00  0.19152563547E+02  0.00000000000E+00 0. -1.
</event>
<event>
 7    1  0.2973028E-011  0.5052887E+02  0.7816164E-02  0.1300439E+00
        -11   -1    0    0    0    0  0.00000000000E+00  0.00000000000E+00  0.45593999997E+02  0.45594000000E+02  0.51100000000E-03 0.  1.
         11   -1    0    0    0    0 -0.00000000000E+00 -0.00000000000E+00 -0.45593999997E+02  0.45594000000E+02  0.51100000000E-03 0. -1.
    9900012    2    1    2    0    0  0.13879610169E+02  0.55702468726E+01  0.37808645991E+02  0.50528868918E+02  0.30000027564E+02 0.  0.
         12    1    1    2    0    0 -0.13879610169E+02 -0.55702468726E+01 -0.37808645991E+02  0.40659131082E+02  0.00000000000E+00 0. -1.
         11    1    3    3    0    0 -0.18889795975E+01 -0.34281053334E+01  0.39833423100E+01  0.55845471004E+01  0.51100000000E-03 0. -1.
        -11    1    3    3    0    0  0.20718389195E+02  0.11540964104E+02  0.24596884634E+02  0.34168000194E+02  0.51100000000E-03 0.  1.
        -12    1    3    3    0    0 -0.49497994284E+01 -0.25426118983E+01  0.92284190467E+01  0.10776321624E+02  0.00000000000E+00 0.  1.
</event>
<event>
 7    1  0.2973028E-011  0.5052886E+02  0.7816164E-02  0.1300439E+00
        -11   -1    0    0    0    0  0.00000000000E+00  0.00000000000E+00  0.45593999997E+02  0.45594000000E+02  0.51100000000E-03 0.  1.
         11   -1    0    0    0    0 -0.00000000000E+00 -0.00000000000E+00 -0.45593999997E+02  0.45594000000E+02  0.51100000000E-03 0. -1.
    9900012    2    1    2    0    0 -0.11235267133E+02  0.38438776452E+02  0.70281365937E+01  0.50528862445E+02  0.30000007889E+02 0.  0.
         12    1    1    2    0    0  0.11235267133E+02 -0.38438776452E+02 -0.70281365937E+01  0.40659137555E+02  0.00000000000E+00 0. -1.
         11    1    3    3    0    0  0.63670704775E+01  0.14906547231E+02  0.97284150841E+01  0.18904676594E+02  0.51100000000E-03 0. -1.
        -11    1    3    3    0    0 -0.72362194949E+01  0.81674972711E+01  0.44142843946E+01  0.11771014877E+02  0.51100000000E-03 0.  1.
         12    1    3    3    0    0 -0.10366118116E+02  0.15364731950E+02 -0.71145628851E+01  0.19853170974E+02  0.00000000000E+00 0. -1.
</event>
<event>
 7    1  0.2973028E-011  0.5052886E+02  0.7816164E-02  0.1300439E+00
        -11   -1    0    0    0    0  0.00000000000E+00  0.00000000000E+00  0.45593999997E+02  0.45594000000E+02  0.51100000000E-03 0.  1.
         11   -1    0    0    0    0 -0.00000000000E+00 -0.00000000000E+00 -0.45593999997E+02  0.45594000000E+02  0.51100000000E-03 0. -1.
    9900012    2    1    2    0    0 -0.62708478198E+01  0.10291452886E+02  0.38832046222E+02  0.50528863897E+02  0.30000012300E+02 0.  0.
         12    1    1    2    0    0  0.62708478198E+01 -0.10291452886E+02 -0.38832046222E+02  0.40659136103E+02  0.00000000000E+00 0. -1.
         11    1    3    3    0    0 -0.39365683972E+01 -0.21333809117E+01 -0.45922096158E-02  0.44774888286E+01  0.51100000000E-03 0. -1.
        -11    1    3    3    0    0  0.22877984303E+01  0.17634363331E+02  0.27713038329E+02  0.32927454889E+02  0.51100000000E-03 0.  1.
        -12    1    3    3    0    0 -0.46220778528E+01 -0.52095295336E+01  0.11123600102E+02  0.13123920179E+02  0.00000000000E+00 0.  1.
</event>
<event>
 7    1  0.2973028E-011  0.5052885E+02  0.7816164E-02  0.1300439E+00
        -11   -1    0    0    0    0  0.00000000000E+00  0.00000000000E+00  0.45593999997E+02  0.45594000000E+02  0.51100000000E-03 0.  1.
         11   -1    0    0    0    0 -0.00000000000E+00 -0.00000000000E+00 -0.45593999997E+02  0.45594000000E+02  0.51100000000E-03 0. -1.
    9900012    2    1    2    0    0  0.35191750484E+02  0.55886083947E+01  0.19582499600E+02  0.50528854209E+02  0.29999982854E+02 0.  0.
         12    1    1    2    0    0 -0.35191750484E+02 -0.55886083947E+01 -0.19582499600E+02  0.40659145791E+02  0.00000000000E+00 0. -1.
         11    1    3    3    0    0  0.14769781608E+02 -0.70849211893E+01  0.10542746366E+02  0.19480555901E+02  0.51100000000E-03 0. -1.
        -11    1    3    3    0    0  0.22635662495E+02  0.14226420426E+02  0.93580833078E+01  0.28325571101E+02  0.51100000000E-03 0.  1.
        -12    1    3    3    0    0 -0.22136936193E+01 -0.15528908424E+01 -0.31833007446E+00  0.27227272072E+01  0.00000000000E+00 0.  1.
</event>
<event>
 7    1  0.2973028E-011  0.5052886E+02  0.7816164E-02  0.1300439E+00
        -11   -1    0    0    0    0  0.00000000000E+00  0.00000000000E+00  0.45593999997E+02  0.45594000000E+02  0.51100000000E-03 0. -1.
         11   -1    0    0    0    0 -0.00000000000E+00 -0.00000000000E+00 -0.45593999997E+02  0.45594000000E+02  0.51100000000E-03 0.  1.
    9900012    2    1    2    0    0  0.89761341024E+01 -0.38825871082E+02 -0.80713477269E+01  0.50528857082E+02  0.29999991588E+02 0.  0.
         12    1    1    2    0    0 -0.89761341024E+01  0.38825871082E+02  0.80713477269E+01  0.40659142918E+02  0.00000000000E+00 0. -1.
         11    1    3    3    0    0  0.54599944667E+01 -0.18498560308E+02  0.51948703024E+01  0.19974857966E+02  0.51100000000E-03 0. -1.
        -11    1    3    3    0    0 -0.23879969311E+01 -0.19140687363E+02 -0.14831255880E+02  0.24331760999E+02  0.51100000000E-03 0.  1.
        -12    1    3    3    0    0  0.59041365667E+01 -0.11866234109E+01  0.15650378508E+01  0.62222381176E+01  0.00000000000E+00 0.  1.
</event>
<event>
 7    1  0.2973028E-011  0.5052886E+02  0.7816164E-02  0.1300439E+00
        -11   -1    0    0    0    0  0.00000000000E+00  0.00000000000E+00  0.45593999997E+02  0.45594000000E+02  0.51100000000E-03 0. -1.
         11   -1    0    0    0    0 -0.00000000000E+00 -0.00000000000E+00 -0.45593999997E+02  0.45594000000E+02  0.51100000000E-03 0.  1.
    9900012    2    1    2    0    0  0.33921678006E+02  0.68122444919E+00 -0.22405841312E+02  0.50528855513E+02  0.29999986817E+02 0.  0.
         12    1    1    2    0    0 -0.33921678006E+02 -0.68122444919E+00  0.22405841312E+02  0.40659144487E+02  0.00000000000E+00 0. -1.
         11    1    3    3    0    0  0.19003558518E+02  0.61927631731E+01 -0.24166069489E+01  0.20132698315E+02  0.51100000000E-03 0. -1.
        -11    1    3    3    0    0  0.69551901825E+01  0.21861579538E+01 -0.17622064356E+02  0.19070687180E+02  0.51100000000E-03 0.  1.
        -12    1    3    3    0    0  0.79629293063E+01 -0.76976966778E+01 -0.23671700073E+01  0.11325470018E+02  0.00000000000E+00 0.  1.
</event>
<event>
 7    1  0.2973028E-011  0.5052890E+02  0.7816164E-02  0.1300439E+00
        -11   -1    0    0    0    0  0.00000000000E+00  0.00000000000E+00  0.45593999997E+02  0.45594000000E+02  0.51100000000E-03 0. -1.
         11   -1    0    0    0    0 -0.00000000000E+00 -0.00000000000E+00 -0.45593999997E+02  0.45594000000E+02  0.51100000000E-03 0.  1.
    9900012    2    1    2    0    0  0.11177677861E+01 -0.40361131562E+02 -0.47845917251E+01  0.50528896914E+02  0.30000112658E+02 0.  0.
         12    1    1    2    0    0 -0.11177677861E+01  0.40361131562E+02  0.47845917251E+01  0.40659103086E+02  0.00000000000E+00 0. -1.
         11    1    3    3    0    0  0.92644829864E+01 -0.35062240905E+02 -0.35833822960E+01  0.36442173525E+02  0.51100000000E-03 0. -1.
        -11    1    3    3    0    0 -0.50086631682E+01 -0.74880130482E+01  0.18453722299E+01  0.91957840922E+01  0.51100000000E-03 0.  1.
         12    1    3    3    0    0 -0.31380520322E+01  0.21891223907E+01 -0.30465816590E+01  0.48909392966E+01  0.00000000000E+00 0. -1.
</event>
<event>
 7    1  0.2973028E-011  0.5052885E+02  0.7816164E-02  0.1300439E+00
        -11   -1    0    0    0    0  0.00000000000E+00  0.00000000000E+00  0.45593999997E+02  0.45594000000E+02  0.51100000000E-03 0.  1.
         11   -1    0    0    0    0 -0.00000000000E+00 -0.00000000000E+00 -0.45593999997E+02  0.45594000000E+02  0.51100000000E-03 0. -1.
    9900012    2    1    2    0    0 -0.39989003628E+02 -0.27418442446E+01  0.68211745351E+01  0.50528849209E+02  0.29999967656E+02 0.  0.
         12    1    1    2    0    0  0.39989003628E+02  0.27418442446E+01 -0.68211745351E+01  0.40659150791E+02  0.00000000000E+00 0. -1.
         11    1    3    3    0    0 -0.17416203014E+02 -0.68531270759E+01 -0.80997711443E+01  0.20393522770E+02  0.51100000000E-03 0. -1.
        -11    1    3    3    0    0 -0.22298847036E+02  0.67898065712E+01  0.12207803445E+02  0.26312934417E+02  0.51100000000E-03 0.  1.
         12    1    3    3    0    0 -0.27395357817E+00 -0.26785237399E+01  0.27131422343E+01  0.38223920223E+01  0.00000000000E+00 0. -1.
</event>
<event>
 7    1  0.2973028E-011  0.5052885E+02  0.7816164E-02  0.1300439E+00
        -11   -1    0    0    0    0  0.00000000000E+00  0.00000000000E+00  0.45593999997E+02  0.45594000000E+02  0.51100000000E-03 0.  1.
         11   -1    0    0    0    0 -0.00000000000E+00 -0.00000000000E+00 -0.45593999997E+02  0.45594000000E+02  0.51100000000E-03 0. -1.
    9900012    2    1    2    0    0 -0.14976624071E+02  0.32236207877E+02  0.19740662246E+02  0.50528854501E+02  0.29999983740E+02 0.  0.
         12    1    1    2    0    0  0.14976624071E+02 -0.32236207877E+02 -0.19740662246E+02  0.40659145499E+02  0.00000000000E+00 0. -1.
         11    1    3    3    0    0 -0.52981447214E+00 -0.25774202827E+00 -0.40660976726E+01  0.41085623851E+01  0.51100000000E-03 0. -1.
        -11    1    3    3    0    0 -0.16602178865E+02  0.32602616661E+02  0.19166558382E+02  0.41302783402E+02  0.51100000000E-03 0.  1.
        -12    1    3    3    0    0  0.21553692663E+01 -0.10866675651E+00  0.46402015365E+01  0.51175087140E+01  0.00000000000E+00 0.  1.
</event>
<event>
 7    1  0.2973028E-011  0.5052886E+02  0.7816164E-02  0.1300439E+00
        -11   -1    0    0    0    0  0.00000000000E+00  0.00000000000E+00  0.45593999997E+02  0.45594000000E+02  0.51100000000E-03 0.  1.
         11   -1    0    0    0    0 -0.00000000000E+00 -0.00000000000E+00 -0.45593999997E+02  0.45594000000E+02  0.51100000000E-03 0. -1.
    9900012    2    1    2    0    0 -0.23410630189E+02  0.44674402229E+01  0.32941617382E+02  0.50528858546E+02  0.29999996037E+02 0.  0.
         12    1    1    2    0    0  0.23410630189E+02 -0.44674402229E+01 -0.32941617382E+02  0.40659141454E+02  0.00000000000E+00 0. -1.
         11    1    3    3    0    0  0.39347239290E+01  0.58698451042E+01  0.29659731019E+01  0.76638195860E+01  0.51100000000E-03 0. -1.
        -11    1    3    3    0    0 -0.98310939286E+01 -0.71568765679E+01  0.10781256550E+02  0.16251362500E+02  0.51100000000E-03 0.  1.
         12    1    3    3    0    0 -0.17514260190E+02  0.57544716866E+01  0.19194387731E+02  0.26613676460E+02  0.00000000000E+00 0. -1.
</event>
<event>
 7    1  0.2973028E-011  0.5052887E+02  0.7816164E-02  0.1300439E+00
        -11   -1    0    0    0    0  0.00000000000E+00  0.00000000000E+00  0.45593999997E+02  0.45594000000E+02  0.51100000000E-03 0. -1.
         11   -1    0    0    0    0 -0.00000000000E+00 -0.00000000000E+00 -0.45593999997E+02  0.45594000000E+02  0.51100000000E-03 0.  1.
    9900012    2    1    2    0    0 -0.98357486544E+01 -0.78489818500E+01 -0.38662855057E+02  0.50528870289E+02  0.30000031730E+02 0.  0.
         12    1    1    2    0    0  0.98357486544E+01  0.78489818500E+01  0.38662855057E+02  0.40659129711E+02  0.00000000000E+00 0. -1.
         11    1    3    3    0    0  0.44240668318E+01 -0.33848550568E+01  0.22535239561E+01  0.60089917266E+01  0.51100000000E-03 0. -1.
        -11    1    3    3    0    0 -0.13798983707E+02 -0.59911784825E+01 -0.39866301803E+02  0.42610188813E+02  0.51100000000E-03 0.  1.
        -12    1    3    3    0    0 -0.46083177898E+00  0.15270516893E+01 -0.10500772101E+01  0.19096897490E+01  0.00000000000E+00 0.  1.
</event>
<event>
 7    1  0.2973028E-011  0.5052887E+02  0.7816164E-02  0.1300439E+00
        -11   -1    0    0    0    0  0.00000000000E+00  0.00000000000E+00  0.45593999997E+02  0.45594000000E+02  0.51100000000E-03 0. -1.
         11   -1    0    0    0    0 -0.00000000000E+00 -0.00000000000E+00 -0.45593999997E+02  0.45594000000E+02  0.51100000000E-03 0.  1.
    9900012    2    1    2    0    0 -0.27907607615E+02  0.29225662328E+02  0.44934145997E+01  0.50528872168E+02  0.30000037441E+02 0.  0.
         12    1    1    2    0    0  0.27907607615E+02 -0.29225662328E+02 -0.44934145997E+01  0.40659127832E+02  0.00000000000E+00 0. -1.
         11    1    3    3    0    0 -0.60482913719E+01 -0.29655831492E+01  0.35567566786E+01  0.76175475231E+01  0.51100000000E-03 0. -1.
        -11    1    3    3    0    0 -0.47981570999E+01  0.15978212542E+02 -0.69730393593E+01  0.18081727400E+02  0.51100000000E-03 0.  1.
        -12    1    3    3    0    0 -0.17061159143E+02  0.16213032935E+02  0.79096972805E+01  0.24829597245E+02  0.00000000000E+00 0.  1.
</event>
<event>
 7    1  0.2973028E-011  0.5052886E+02  0.7816164E-02  0.1300439E+00
        -11   -1    0    0    0    0  0.00000000000E+00  0.00000000000E+00  0.45593999997E+02  0.45594000000E+02  0.51100000000E-03 0.  1.
         11   -1    0    0    0    0 -0.00000000000E+00 -0.00000000000E+00 -0.45593999997E+02  0.45594000000E+02  0.51100000000E-03 0. -1.
    9900012    2    1    2    0    0  0.44288002133E+00 -0.39124777592E+02 -0.11055355923E+02  0.50528865000E+02  0.30000015654E+02 0.  0.
         12    1    1    2    0    0 -0.44288002133E+00  0.39124777592E+02  0.11055355923E+02  0.40659135000E+02  0.00000000000E+00 0. -1.
         11    1    3    3    0    0 -0.72260538014E+01 -0.12406578377E+01 -0.32402685398E+01  0.80158858452E+01  0.51100000000E-03 0. -1.
        -11    1    3    3    0    0  0.11549803722E+02 -0.21482647977E+02 -0.79642190594E+01  0.25657960083E+02  0.51100000000E-03 0.  1.
        -12    1    3    3    0    0 -0.38808698996E+01 -0.16401471778E+02  0.14913167610E+00  0.16855019072E+02  0.00000000000E+00 0.  1.
</event>
<event>
 7    1  0.2973028E-011  0.5052886E+02  0.7816164E-02  0.1300439E+00
        -11   -1    0    0    0    0  0.00000000000E+00  0.00000000000E+00  0.45593999997E+02  0.45594000000E+02  0.51100000000E-03 0. -1.
         11   -1    0    0    0    0 -0.00000000000E+00 -0.00000000000E+00 -0.45593999997E+02  0.45594000000E+02  0.51100000000E-03 0.  1.
    9900012    2    1    2    0    0 -0.25115966549E+02  0.16482399503E+02 -0.27398621416E+02  0.50528859274E+02  0.29999998248E+02 0.  0.
         12    1    1    2    0    0  0.25115966549E+02 -0.16482399503E+02  0.27398621416E+02  0.40659140726E+02  0.00000000000E+00 0. -1.
         11    1    3    3    0    0 -0.79607743296E+01 -0.40479072377E+01 -0.12209258401E+02  0.15126978280E+02  0.51100000000E-03 0. -1.
        -11    1    3    3    0    0 -0.10810319938E+02  0.21495849221E+02 -0.16055178287E+02  0.28925824119E+02  0.51100000000E-03 0.  1.
         12    1    3    3    0    0 -0.63448722823E+01 -0.96554247957E+00  0.86581527140E+00  0.64760568746E+01  0.00000000000E+00 0. -1.
</event>
<event>
 7    1  0.2973028E-011  0.5052887E+02  0.7816164E-02  0.1300439E+00
        -11   -1    0    0    0    0  0.00000000000E+00  0.00000000000E+00  0.45593999997E+02  0.45594000000E+02  0.51100000000E-03 0.  1.
         11   -1    0    0    0    0 -0.00000000000E+00 -0.00000000000E+00 -0.45593999997E+02  0.45594000000E+02  0.51100000000E-03 0. -1.
    9900012    2    1    2    0    0  0.16544872671E+02  0.41693472059E+01  0.36905940329E+02  0.50528871881E+02  0.30000036569E+02 0.  0.
         12    1    1    2    0    0 -0.16544872671E+02 -0.41693472059E+01 -0.36905940329E+02  0.40659128119E+02  0.00000000000E+00 0. -1.
         11    1    3    3    0    0 -0.15845601199E+01  0.31545528634E+01  0.70836983323E+00  0.36005308808E+01  0.51100000000E-03 0. -1.
        -11    1    3    3    0    0  0.16500402984E+02 -0.16519774682E+01  0.77409894493E+01  0.18300689772E+02  0.51100000000E-03 0.  1.
        -12    1    3    3    0    0  0.16290298063E+01  0.26667718106E+01  0.28456581047E+02  0.28627651229E+02  0.00000000000E+00 0.  1.
</event>
<event>
 7    1  0.2973028E-011  0.5052886E+02  0.7816164E-02  0.1300439E+00
        -11   -1    0    0    0    0  0.00000000000E+00  0.00000000000E+00  0.45593999997E+02  0.45594000000E+02  0.51100000000E-03 0. -1.
         11   -1    0    0    0    0 -0.00000000000E+00 -0.00000000000E+00 -0.45593999997E+02  0.45594000000E+02  0.51100000000E-03 0.  1.
    9900012    2    1    2    0    0  0.13853896804E+02 -0.16317484878E+02 -0.34568414486E+02  0.50528855278E+02  0.29999986103E+02 0.  0.
         12    1    1    2    0    0 -0.13853896804E+02  0.16317484878E+02  0.34568414486E+02  0.40659144722E+02  0.00000000000E+00 0. -1.
         11    1    3    3    0    0  0.69066002379E+01 -0.79107277432E+01  0.23001530112E+01  0.10750416011E+02  0.51100000000E-03 0. -1.
        -11    1    3    3    0    0 -0.25345117690E+01 -0.29370725335E+01 -0.11882891610E+02  0.12500130330E+02  0.51100000000E-03 0.  1.
         12    1    3    3    0    0  0.94818083352E+01 -0.54696846014E+01 -0.24985675887E+02  0.27278308938E+02  0.00000000000E+00 0. -1.
</event>
<event>
 7    1  0.2973028E-011  0.5052886E+02  0.7816164E-02  0.1300439E+00
        -11   -1    0    0    0    0  0.00000000000E+00  0.00000000000E+00  0.45593999997E+02  0.45594000000E+02  0.51100000000E-03 0.  1.
         11   -1    0    0    0    0 -0.00000000000E+00 -0.00000000000E+00 -0.45593999997E+02  0.45594000000E+02  0.51100000000E-03 0. -1.
    9900012    2    1    2    0    0  0.96192206598E+01  0.35094876806E+02  0.18137963124E+02  0.50528862153E+02  0.30000007000E+02 0.  0.
         12    1    1    2    0    0 -0.96192206598E+01 -0.35094876806E+02 -0.18137963124E+02  0.40659137847E+02  0.00000000000E+00 0. -1.
         11    1    3    3    0    0 -0.33135503434E+01  0.41475058752E+01 -0.54071627950E+01  0.75775214032E+01  0.51100000000E-03 0. -1.
        -11    1    3    3    0    0  0.10471211596E+02  0.96370384334E+01  0.69950391491E+01  0.15857154695E+02  0.51100000000E-03 0.  1.
         12    1    3    3    0    0  0.24615594074E+01  0.21310332498E+02  0.16550086770E+02  0.27094186055E+02  0.00000000000E+00 0. -1.
</event>
<event>
 7    1  0.2973028E-011  0.5052886E+02  0.7816164E-02  0.1300439E+00
        -11   -1    0    0    0    0  0.00000000000E+00  0.00000000000E+00  0.45593999997E+02  0.45594000000E+02  0.51100000000E-03 0.  1.
         11   -1    0    0    0    0 -0.00000000000E+00 -0.00000000000E+00 -0.45593999997E+02  0.45594000000E+02  0.51100000000E-03 0. -1.
    9900012    2    1    2    0    0 -0.19796115549E+02 -0.20000442289E+02  0.29347256914E+02  0.50528863622E+02  0.30000011466E+02 0.  0.
         12    1    1    2    0    0  0.19796115549E+02  0.20000442289E+02 -0.29347256914E+02  0.40659136378E+02  0.00000000000E+00 0. -1.
         11    1    3    3    0    0  0.19431856690E+01 -0.16998288722E+01 -0.55360613098E+00  0.26404296523E+01  0.51100000000E-03 0. -1.
        -11    1    3    3    0    0 -0.13791430173E+02  0.33301275178E+01  0.13667893371E+02  0.19700370681E+02  0.51100000000E-03 0.  1.
        -12    1    3    3    0    0 -0.79478710455E+01 -0.21630740935E+02  0.16232969674E+02  0.28188063289E+02  0.00000000000E+00 0.  1.
</event>
<event>
 7    1  0.3245301E-011  0.5052886E+02  0.7816164E-02  0.1300439E+00
        -11   -1    0    0    0    0  0.00000000000E+00  0.00000000000E+00  0.45593999997E+02  0.45594000000E+02  0.51100000000E-03 0. -1.
         11   -1    0    0    0    0 -0.00000000000E+00 -0.00000000000E+00 -0.45593999997E+02  0.45594000000E+02  0.51100000000E-03 0.  1.
    9900012    2    1    2    0    0  0.30286313261E+02 -0.78399804154E+00 -0.27116239486E+02  0.50528857513E+02  0.29999992898E+02 0.  0.
         12    1    1    2    0    0 -0.30286313261E+02  0.78399804154E+00  0.27116239486E+02  0.40659142487E+02  0.00000000000E+00 0. -1.
         11    1    3    3    0    0 -0.14595777615E+01  0.26601405907E+01 -0.44973905629E+01  0.54252407634E+01  0.51100000000E-03 0. -1.
        -11    1    3    3    0    0  0.19580019650E+02 -0.91827874982E+01 -0.37783046264E+01  0.21953959594E+02  0.51100000000E-03 0.  1.
        -12    1    3    3    0    0  0.12165871373E+02  0.57386488660E+01 -0.18840544296E+02  0.23149657156E+02  0.00000000000E+00 0.  1.
</event>
<event>
 7    1  0.2973028E-011  0.5052886E+02  0.7816164E-02  0.1300439E+00
        -11   -1    0    0    0    0  0.00000000000E+00  0.00000000000E+00  0.45593999997E+02  0.45594000000E+02  0.51100000000E-03 0.  1.
         11   -1    0    0    0    0 -0.00000000000E+00 -0.00000000000E+00 -0.45593999997E+02  0.45594000000E+02  0.51100000000E-03 0. -1.
    9900012    2    1    2    0    0 -0.35320247046E+01 -0.40260567771E+02  0.44471107230E+01  0.50528864378E+02  0.30000013763E+02 0.  0.
         12    1    1    2    0    0  0.35320247046E+01  0.40260567771E+02 -0.44471107230E+01  0.40659135622E+02  0.00000000000E+00 0. -1.
         11    1    3    3    0    0  0.10323301014E+02 -0.28013369447E+02  0.76542718449E+01  0.30820566013E+02  0.51100000000E-03 0. -1.
        -11    1    3    3    0    0 -0.40584512555E+01 -0.74683330529E+01 -0.20745048048E+01  0.87493197238E+01  0.51100000000E-03 0.  1.
         12    1    3    3    0    0 -0.97968744633E+01 -0.47788652712E+01 -0.11326563171E+01  0.10958978641E+02  0.00000000000E+00 0. -1.
</event>
<event>
 7    1  0.2973028E-011  0.5052888E+02  0.7816164E-02  0.1300439E+00
        -11   -1    0    0    0    0  0.00000000000E+00  0.00000000000E+00  0.45593999997E+02  0.45594000000E+02  0.51100000000E-03 0.  1.
         11   -1    0    0    0    0 -0.00000000000E+00 -0.00000000000E+00 -0.45593999997E+02  0.45594000000E+02  0.51100000000E-03 0. -1.
    9900012    2    1    2    0    0 -0.15179472360E+02  0.19895478539E+02  0.32045553917E+02  0.50528880810E+02  0.30000063710E+02 0.  0.
         12    1    1    2    0    0  0.15179472360E+02 -0.19895478539E+02 -0.32045553917E+02  0.40659119190E+02  0.00000000000E+00 0. -1.
         11    1    3    3    0    0  0.64698856534E+01  0.73049832130E+01  0.18648090340E+00  0.97599680070E+01  0.51100000000E-03 0. -1.
        -11    1    3    3    0    0 -0.73508585194E+01  0.22347415686E+01  0.11375047201E+02  0.13726648897E+02  0.51100000000E-03 0.  1.
         12    1    3    3    0    0 -0.14298499494E+02  0.10355753758E+02  0.20484025812E+02  0.27042263906E+02  0.00000000000E+00 0. -1.
</event>
<event>
 7    1  0.2973028E-011  0.5052886E+02  0.7816164E-02  0.1300439E+00
        -11   -1    0    0    0    0  0.00000000000E+00  0.00000000000E+00  0.45593999997E+02  0.45594000000E+02  0.51100000000E-03 0.  1.
         11   -1    0    0    0    0 -0.00000000000E+00 -0.00000000000E+00 -0.45593999997E+02  0.45594000000E+02  0.51100000000E-03 0. -1.
    9900012    2    1    2    0    0  0.24701648241E+02 -0.18855907032E+02  0.26219248073E+02  0.50528860495E+02  0.30000001959E+02 0.  0.
         12    1    1    2    0    0 -0.24701648241E+02  0.18855907032E+02 -0.26219248073E+02  0.40659139505E+02  0.00000000000E+00 0. -1.
         11    1    3    3    0    0  0.11809273794E+02 -0.50705426721E+01  0.23066501008E+02  0.26405166531E+02  0.51100000000E-03 0.  1.
        -11    1    3    3    0    0 -0.18142438529E+01 -0.45220634104E+01 -0.29579019081E+01  0.56999756319E+01  0.51100000000E-03 0. -1.
        -12    1    3    3    0    0  0.14706618299E+02 -0.92633009493E+01  0.61106489734E+01  0.18423718332E+02  0.00000000000E+00 0.  1.
</event>
<event>
 7    1  0.2973028E-011  0.5052886E+02  0.7816164E-02  0.1300439E+00
        -11   -1    0    0    0    0  0.00000000000E+00  0.00000000000E+00  0.45593999997E+02  0.45594000000E+02  0.51100000000E-03 0.  1.
         11   -1    0    0    0    0 -0.00000000000E+00 -0.00000000000E+00 -0.45593999997E+02  0.45594000000E+02  0.51100000000E-03 0. -1.
    9900012    2    1    2    0    0 -0.17235817535E+02 -0.64266121459E+01  0.36260047728E+02  0.50528858211E+02  0.29999995018E+02 0.  0.
         12    1    1    2    0    0  0.17235817535E+02  0.64266121459E+01 -0.36260047728E+02  0.40659141789E+02  0.00000000000E+00 0. -1.
         11    1    3    3    0    0 -0.12807518722E+02 -0.11737434215E+02  0.35887901909E+02  0.39871561312E+02  0.51100000000E-03 0.  1.
        -11    1    3    3    0    0 -0.24781598318E+01 -0.26959754146E+00 -0.29613156007E+01  0.38708331576E+01  0.51100000000E-03 0. -1.
        -12    1    3    3    0    0 -0.19501389816E+01  0.55804196104E+01  0.33334614198E+01  0.67864637413E+01  0.00000000000E+00 0.  1.
</event>
<event>
 7    1  0.2973028E-011  0.5052887E+02  0.7816164E-02  0.1300439E+00
        -11   -1    0    0    0    0  0.00000000000E+00  0.00000000000E+00  0.45593999997E+02  0.45594000000E+02  0.51100000000E-03 0.  1.
         11   -1    0    0    0    0 -0.00000000000E+00 -0.00000000000E+00 -0.45593999997E+02  0.45594000000E+02  0.51100000000E-03 0. -1.
    9900012    2    1    2    0    0 -0.29334014570E+02 -0.27404922934E+02 -0.64537249232E+01  0.50528870925E+02  0.30000033663E+02 0.  0.
         12    1    1    2    0    0  0.29334014570E+02  0.27404922934E+02  0.64537249232E+01  0.40659129075E+02  0.00000000000E+00 0. -1.
         11    1    3    3    0    0 -0.92412119699E+01 -0.15616994184E+02 -0.53100774970E+01  0.18907337975E+02  0.51100000000E-03 0. -1.
        -11    1    3    3    0    0 -0.16346808975E+02 -0.27476325645E+00 -0.74543271412E+01  0.17968323570E+02  0.51100000000E-03 0.  1.
        -12    1    3    3    0    0 -0.37459936246E+01 -0.11513165493E+02  0.63106797150E+01  0.13653209380E+02  0.00000000000E+00 0.  1.
</event>
<event>
 7    1  0.2973028E-011  0.5052885E+02  0.7816164E-02  0.1300439E+00
        -11   -1    0    0    0    0  0.00000000000E+00  0.00000000000E+00  0.45593999997E+02  0.45594000000E+02  0.51100000000E-03 0.  1.
         11   -1    0    0    0    0 -0.00000000000E+00 -0.00000000000E+00 -0.45593999997E+02  0.45594000000E+02  0.51100000000E-03 0. -1.
    9900012    2    1    2    0    0  0.71946924544E+01 -0.24969322672E+02  0.31271964316E+02  0.50528850643E+02  0.29999972016E+02 0.  0.
         12    1    1    2    0    0 -0.71946924544E+01  0.24969322672E+02 -0.31271964316E+02  0.40659149357E+02  0.00000000000E+00 0. -1.
         11    1    3    3    0    0 -0.76535486865E+01 -0.47794872419E+01  0.22828733377E+00  0.90262074627E+01  0.51100000000E-03 0. -1.
        -11    1    3    3    0    0  0.63821168890E+01 -0.12655064047E+01  0.10242993463E+02  0.12134736824E+02  0.51100000000E-03 0.  1.
         12    1    3    3    0    0  0.84661242520E+01 -0.18924329026E+02  0.20800683519E+02  0.29367906357E+02  0.00000000000E+00 0. -1.
</event>
<event>
 7    1  0.2973028E-011  0.5052887E+02  0.7816164E-02  0.1300439E+00
        -11   -1    0    0    0    0  0.00000000000E+00  0.00000000000E+00  0.45593999997E+02  0.45594000000E+02  0.51100000000E-03 0.  1.
         11   -1    0    0    0    0 -0.00000000000E+00 -0.00000000000E+00 -0.45593999997E+02  0.45594000000E+02  0.51100000000E-03 0. -1.
    9900012    2    1    2    0    0  0.10422873975E+02 -0.84834013389E+01  0.38373957331E+02  0.50528868167E+02  0.30000025281E+02 0.  0.
         12    1    1    2    0    0 -0.10422873975E+02  0.84834013389E+01 -0.38373957331E+02  0.40659131833E+02  0.00000000000E+00 0. -1.
         11    1    3    3    0    0  0.79357427966E+01  0.61547848399E+01  0.99664882846E+00  0.10092110746E+02  0.51100000000E-03 0. -1.
        -11    1    3    3    0    0  0.30614374093E+01 -0.67633035514E+01  0.20527099132E+02  0.21828341049E+02  0.51100000000E-03 0.  1.
        -12    1    3    3    0    0 -0.57430623067E+00 -0.78748826274E+01  0.16850209371E+02  0.18608416372E+02  0.00000000000E+00 0.  1.
</event>
<event>
 7    1  0.2973028E-011  0.5052888E+02  0.7816164E-02  0.1300439E+00
        -11   -1    0    0    0    0  0.00000000000E+00  0.00000000000E+00  0.45593999997E+02  0.45594000000E+02  0.51100000000E-03 0. -1.
         11   -1    0    0    0    0 -0.00000000000E+00 -0.00000000000E+00 -0.45593999997E+02  0.45594000000E+02  0.51100000000E-03 0.  1.
    9900012    2    1    2    0    0  0.23985347945E+02  0.26723174632E+01 -0.32721951873E+02  0.50528876411E+02  0.30000050339E+02 0.  0.
         12    1    1    2    0    0 -0.23985347945E+02 -0.26723174632E+01  0.32721951873E+02  0.40659123589E+02  0.00000000000E+00 0. -1.
         11    1    3    3    0    0  0.26541691153E+00  0.94855950623E+01 -0.51005770107E+01  0.10773246768E+02  0.51100000000E-03 0. -1.
        -11    1    3    3    0    0  0.23651553804E+02 -0.19781491404E+01 -0.23535089948E+02  0.33424684449E+02  0.51100000000E-03 0.  1.
         12    1    3    3    0    0  0.68377229138E-01 -0.48351284587E+01 -0.40862849134E+01  0.63309451941E+01  0.00000000000E+00 0. -1.
</event>
<event>
 7    1  0.2973028E-011  0.5052886E+02  0.7816164E-02  0.1300439E+00
        -11   -1    0    0    0    0  0.00000000000E+00  0.00000000000E+00  0.45593999997E+02  0.45594000000E+02  0.51100000000E-03 0.  1.
         11   -1    0    0    0    0 -0.00000000000E+00 -0.00000000000E+00 -0.45593999997E+02  0.45594000000E+02  0.51100000000E-03 0. -1.
    9900012    2    1    2    0    0  0.11581927926E+02 -0.34459786748E+02  0.18208455918E+02  0.50528858050E+02  0.29999994528E+02 0.  0.
         12    1    1    2    0    0 -0.11581927926E+02  0.34459786748E+02 -0.18208455918E+02  0.40659141950E+02  0.00000000000E+00 0. -1.
         11    1    3    3    0    0  0.12644353284E+00 -0.14726058374E+02 -0.13368689176E+00  0.14727208006E+02  0.51100000000E-03 0. -1.
        -11    1    3    3    0    0  0.34788612806E+01  0.36616000224E+01  0.69334292494E+01  0.85780086239E+01  0.51100000000E-03 0.  1.
        -12    1    3    3    0    0  0.79766231129E+01 -0.23395328397E+02  0.11408713560E+02  0.27223641420E+02  0.00000000000E+00 0.  1.
</event>
<event>
 7    1  0.2973028E-011  0.5052886E+02  0.7816164E-02  0.1300439E+00
        -11   -1    0    0    0    0  0.00000000000E+00  0.00000000000E+00  0.45593999997E+02  0.45594000000E+02  0.51100000000E-03 0.  1.
         11   -1    0    0    0    0 -0.00000000000E+00 -0.00000000000E+00 -0.45593999997E+02  0.45594000000E+02  0.51100000000E-03 0. -1.
    9900012    2    1    2    0    0  0.20642427089E+02 -0.20044274562E+02  0.28727740437E+02  0.50528858230E+02  0.29999995077E+02 0.  0.
         12    1    1    2    0    0 -0.20642427089E+02  0.20044274562E+02 -0.28727740437E+02  0.40659141770E+02  0.00000000000E+00 0. -1.
         11    1    3    3    0    0  0.61265562460E+01  0.29728266839E+01  0.17732903256E+02  0.18995479674E+02  0.51100000000E-03 0. -1.
        -11    1    3    3    0    0  0.33806761763E+01 -0.15205047455E+02  0.33588660207E+01  0.15934378579E+02  0.51100000000E-03 0.  1.
         12    1    3    3    0    0  0.11135194666E+02 -0.78120537911E+01  0.76359711609E+01  0.15598999976E+02  0.00000000000E+00 0. -1.
</event>
<event>
 7    1  0.2973028E-011  0.5052883E+02  0.7816164E-02  0.1300439E+00
        -11   -1    0    0    0    0  0.00000000000E+00  0.00000000000E+00  0.45593999997E+02  0.45594000000E+02  0.51100000000E-03 0.  1.
         11   -1    0    0    0    0 -0.00000000000E+00 -0.00000000000E+00 -0.45593999997E+02  0.45594000000E+02  0.51100000000E-03 0. -1.
    9900012    2    1    2    0    0 -0.23218025153E+02  0.13632954820E+02  0.30466927884E+02  0.50528833213E+02  0.29999919033E+02 0.  0.
         12    1    1    2    0    0  0.23218025153E+02 -0.13632954820E+02 -0.30466927884E+02  0.40659166787E+02  0.00000000000E+00 0. -1.
         11    1    3    3    0    0  0.52478176313E+01  0.31876771995E+01 -0.18339559805E+00  0.61428421782E+01  0.51100000000E-03 0. -1.
        -11    1    3    3    0    0 -0.82544152080E+01  0.43280402660E+01  0.16550914273E+02  0.18994737863E+02  0.51100000000E-03 0.  1.
         12    1    3    3    0    0 -0.20211427577E+02  0.61172373542E+01  0.14099409210E+02  0.25391253171E+02  0.00000000000E+00 0. -1.
</event>
<event>
 7    1  0.2973028E-011  0.5052886E+02  0.7816164E-02  0.1300439E+00
        -11   -1    0    0    0    0  0.00000000000E+00  0.00000000000E+00  0.45593999997E+02  0.45594000000E+02  0.51100000000E-03 0.  1.
         11   -1    0    0    0    0 -0.00000000000E+00 -0.00000000000E+00 -0.45593999997E+02  0.45594000000E+02  0.51100000000E-03 0. -1.
    9900012    2    1    2    0    0 -0.40388182567E+02 -0.15580970866E+01 -0.44195813175E+01  0.50528860110E+02  0.30000000790E+02 0.  0.
         12    1    1    2    0    0  0.40388182567E+02  0.15580970866E+01  0.44195813175E+01  0.40659139890E+02  0.00000000000E+00 0. -1.
         11    1    3    3    0    0 -0.18964261134E+01 -0.41015186994E+01  0.59267200573E+01  0.74528449966E+01  0.51100000000E-03 0. -1.
        -11    1    3    3    0    0 -0.18931126821E+02  0.92204063296E+01 -0.66260025403E+01  0.22075039422E+02  0.51100000000E-03 0.  1.
        -12    1    3    3    0    0 -0.19560629633E+02 -0.66769847168E+01 -0.37202988346E+01  0.21000975691E+02  0.00000000000E+00 0.  1.
</event>
<event>
 7    1  0.2973028E-011  0.5052886E+02  0.7816164E-02  0.1300439E+00
        -11   -1    0    0    0    0  0.00000000000E+00  0.00000000000E+00  0.45593999997E+02  0.45594000000E+02  0.51100000000E-03 0. -1.
         11   -1    0    0    0    0 -0.00000000000E+00 -0.00000000000E+00 -0.45593999997E+02  0.45594000000E+02  0.51100000000E-03 0.  1.
    9900012    2    1    2    0    0  0.31784341537E+02  0.15714292251E+02 -0.19899301929E+02  0.50528861235E+02  0.30000004208E+02 0.  0.
         12    1    1    2    0    0 -0.31784341537E+02 -0.15714292251E+02  0.19899301929E+02  0.40659138765E+02  0.00000000000E+00 0. -1.
         11    1    3    3    0    0 -0.48500455159E+01  0.48355114650E+01  0.60152581905E+00  0.68750960870E+01  0.51100000000E-03 0. -1.
        -11    1    3    3    0    0  0.34857611568E+02  0.10113700025E+02 -0.20568395049E+02  0.41718088254E+02  0.51100000000E-03 0.  1.
         12    1    3    3    0    0  0.17767754858E+01  0.76508076082E+00  0.67567301188E-01  0.19356768940E+01  0.00000000000E+00 0. -1.
</event>
<event>
 7    1  0.2973028E-011  0.5052886E+02  0.7816164E-02  0.1300439E+00
        -11   -1    0    0    0    0  0.00000000000E+00  0.00000000000E+00  0.45593999997E+02  0.45594000000E+02  0.51100000000E-03 0.  1.
         11   -1    0    0    0    0 -0.00000000000E+00 -0.00000000000E+00 -0.45593999997E+02  0.45594000000E+02  0.51100000000E-03 0. -1.
    9900012    2    1    2    0    0 -0.60076659572E+01 -0.22213346840E+02  0.33520754355E+02  0.50528858339E+02  0.29999995406E+02 0.  0.
         12    1    1    2    0    0  0.60076659572E+01  0.22213346840E+02 -0.33520754355E+02  0.40659141661E+02  0.00000000000E+00 0. -1.
         11    1    3    3    0    0 -0.91305323052E+01 -0.72501217319E+01  0.50256496875E+00  0.11669766798E+02  0.51100000000E-03 0. -1.
        -11    1    3    3    0    0  0.52801161423E+01 -0.75515215256E+01  0.28414634817E+02  0.29871333681E+02  0.51100000000E-03 0.  1.
        -12    1    3    3    0    0 -0.21572497942E+01 -0.74117035829E+01  0.46035545695E+01  0.89877578600E+01  0.00000000000E+00 0.  1.
</event>
<event>
 7    1  0.2973028E-011  0.5052896E+02  0.7816164E-02  0.1300438E+00
        -11   -1    0    0    0    0  0.00000000000E+00  0.00000000000E+00  0.45593999997E+02  0.45594000000E+02  0.51100000000E-03 0.  1.
         11   -1    0    0    0    0 -0.00000000000E+00 -0.00000000000E+00 -0.45593999997E+02  0.45594000000E+02  0.51100000000E-03 0. -1.
    9900012    2    1    2    0    0  0.32288145098E+01 -0.26586153377E+02  0.30592626612E+02  0.50528959215E+02  0.30000302029E+02 0.  0.
         12    1    1    2    0    0 -0.32288145098E+01  0.26586153377E+02 -0.30592626612E+02  0.40659040785E+02  0.00000000000E+00 0. -1.
         11    1    3    3    0    0  0.10512084594E+02 -0.58508075178E+01  0.54731803944E+01  0.13217094045E+02  0.51100000000E-03 0. -1.
        -11    1    3    3    0    0 -0.93688782941E+01 -0.22282007578E+02  0.24905421593E+02  0.34706537816E+02  0.51100000000E-03 0.  1.
         12    1    3    3    0    0  0.20856082103E+01  0.15466617192E+01  0.21402462542E+00  0.26053273539E+01  0.00000000000E+00 0. -1.
</event>
<event>
 7    1  0.2973028E-011  0.5052886E+02  0.7816164E-02  0.1300439E+00
        -11   -1    0    0    0    0  0.00000000000E+00  0.00000000000E+00  0.45593999997E+02  0.45594000000E+02  0.51100000000E-03 0. -1.
         11   -1    0    0    0    0 -0.00000000000E+00 -0.00000000000E+00 -0.45593999997E+02  0.45594000000E+02  0.51100000000E-03 0.  1.
    9900012    2    1    2    0    0  0.35824295367E+02  0.16184229845E+01  0.19161590159E+02  0.50528856270E+02  0.29999989117E+02 0.  0.
         12    1    1    2    0    0 -0.35824295367E+02 -0.16184229845E+01 -0.19161590159E+02  0.40659143730E+02  0.00000000000E+00 0. -1.
         11    1    3    3    0    0  0.10349798019E+02 -0.11013190993E+02 -0.14395884084E+01  0.15181604326E+02  0.51100000000E-03 0. -1.
        -11    1    3    3    0    0  0.14555391301E+02  0.49784530296E+01  0.11390233721E+02  0.19141103285E+02  0.51100000000E-03 0.  1.
         12    1    3    3    0    0  0.10919106047E+02  0.76531609480E+01  0.92109448466E+01  0.16206148658E+02  0.00000000000E+00 0. -1.
</event>
<event>
 7    1  0.2973028E-011  0.5052875E+02  0.7816164E-02  0.1300439E+00
        -11   -1    0    0    0    0  0.00000000000E+00  0.00000000000E+00  0.45593999997E+02  0.45594000000E+02  0.51100000000E-03 0.  1.
         11   -1    0    0    0    0 -0.00000000000E+00 -0.00000000000E+00 -0.45593999997E+02  0.45594000000E+02  0.51100000000E-03 0. -1.
    9900012    2    1    2    0    0  0.95003227161E+01  0.12055403944E+02  0.37650842747E+02  0.50528746988E+02  0.29999656941E+02 0.  0.
         12    1    1    2    0    0 -0.95003227161E+01 -0.12055403944E+02 -0.37650842747E+02  0.40659253012E+02  0.00000000000E+00 0. -1.
         11    1    3    3    0    0  0.13903781274E+01  0.13192685960E+01 -0.39061090119E+01  0.43510123924E+01  0.51100000000E-03 0. -1.
        -11    1    3    3    0    0 -0.11213865815E+00  0.11309976203E+02  0.29300358950E+02  0.31407629195E+02  0.51100000000E-03 0.  1.
        -12    1    3    3    0    0  0.82220832469E+01 -0.57384085506E+00  0.12256592809E+02  0.14770105400E+02  0.00000000000E+00 0.  1.
</event>
<event>
 7    1  0.2973028E-011  0.5052886E+02  0.7816164E-02  0.1300439E+00
        -11   -1    0    0    0    0  0.00000000000E+00  0.00000000000E+00  0.45593999997E+02  0.45594000000E+02  0.51100000000E-03 0.  1.
         11   -1    0    0    0    0 -0.00000000000E+00 -0.00000000000E+00 -0.45593999997E+02  0.45594000000E+02  0.51100000000E-03 0. -1.
    9900012    2    1    2    0    0 -0.23696679313E+02  0.34112892422E+01  0.32863298819E+02  0.50528856944E+02  0.29999991167E+02 0.  0.
         12    1    1    2    0    0  0.23696679313E+02 -0.34112892422E+01 -0.32863298819E+02  0.40659143056E+02  0.00000000000E+00 0. -1.
         11    1    3    3    0    0 -0.18546174229E+02  0.28231677984E+01  0.90464726273E+01  0.20827134277E+02  0.51100000000E-03 0. -1.
        -11    1    3    3    0    0  0.59933155480E+01  0.23519575619E+01  0.78891073684E+01  0.10182806635E+02  0.51100000000E-03 0.  1.
        -12    1    3    3    0    0 -0.11143820632E+02 -0.17638361181E+01  0.15927718824E+02  0.19518916032E+02  0.00000000000E+00 0.  1.
</event>
<event>
 7    1  0.2973028E-011  0.5052887E+02  0.7816164E-02  0.1300439E+00
        -11   -1    0    0    0    0  0.00000000000E+00  0.00000000000E+00  0.45593999997E+02  0.45594000000E+02  0.51100000000E-03 0.  1.
         11   -1    0    0    0    0 -0.00000000000E+00 -0.00000000000E+00 -0.45593999997E+02  0.45594000000E+02  0.51100000000E-03 0. -1.
    9900012    2    1    2    0    0  0.29549530237E+02  0.27759857808E+02  0.30627686574E+01  0.50528868251E+02  0.30000025535E+02 0.  0.
         12    1    1    2    0    0 -0.29549530237E+02 -0.27759857808E+02 -0.30627686574E+01  0.40659131749E+02  0.00000000000E+00 0. -1.
         11    1    3    3    0    0 -0.38050012866E+01 -0.19178387105E+01  0.15360901800E+01  0.45294274928E+01  0.51100000000E-03 0. -1.
        -11    1    3    3    0    0  0.32238230641E+02  0.28963059688E+02 -0.77352969466E+00  0.43344673142E+02  0.51100000000E-03 0.  1.
        -12    1    3    3    0    0  0.11163008827E+01  0.71463683085E+00  0.23002081720E+01  0.26547676161E+01  0.00000000000E+00 0.  1.
</event>
<event>
 7    1  0.2973028E-011  0.5052886E+02  0.7816164E-02  0.1300439E+00
        -11   -1    0    0    0    0  0.00000000000E+00  0.00000000000E+00  0.45593999997E+02  0.45594000000E+02  0.51100000000E-03 0.  1.
         11   -1    0    0    0    0 -0.00000000000E+00 -0.00000000000E+00 -0.45593999997E+02  0.45594000000E+02  0.51100000000E-03 0. -1.
    9900012    2    1    2    0    0 -0.38257326888E+02 -0.99697624031E+01  0.94945458862E+01  0.50528860504E+02  0.30000001988E+02 0.  0.
         12    1    1    2    0    0  0.38257326888E+02  0.99697624031E+01 -0.94945458862E+01  0.40659139496E+02  0.00000000000E+00 0. -1.
         11    1    3    3    0    0 -0.10717306512E+02  0.50372172270E+01  0.11668339365E+02  0.16624811580E+02  0.51100000000E-03 0. -1.
        -11    1    3    3    0    0 -0.14644616634E+02 -0.12907252563E+02  0.31916724743E+01  0.19780008557E+02  0.51100000000E-03 0.  1.
         12    1    3    3    0    0 -0.12895403741E+02 -0.20997270675E+01 -0.53654659527E+01  0.14124040367E+02  0.00000000000E+00 0. -1.
</event>
<event>
 7    1  0.2973028E-011  0.5052891E+02  0.7816164E-02  0.1300439E+00
        -11   -1    0    0    0    0  0.00000000000E+00  0.00000000000E+00  0.45593999997E+02  0.45594000000E+02  0.51100000000E-03 0.  1.
         11   -1    0    0    0    0 -0.00000000000E+00 -0.00000000000E+00 -0.45593999997E+02  0.45594000000E+02  0.51100000000E-03 0. -1.
    9900012    2    1    2    0    0 -0.32910121239E+02 -0.23425886624E+02  0.46166701527E+01  0.50528906461E+02  0.30000141679E+02 0.  0.
         12    1    1    2    0    0  0.32910121239E+02  0.23425886624E+02 -0.46166701527E+01  0.40659093539E+02  0.00000000000E+00 0. -1.
         11    1    3    3    0    0 -0.19445793893E+02 -0.14297481199E+02  0.75397826683E+01  0.25286462618E+02  0.51100000000E-03 0.  1.
        -11    1    3    3    0    0  0.37161958535E+01  0.23294534446E+01 -0.63676581184E-03  0.43859395389E+01  0.51100000000E-03 0. -1.
         12    1    3    3    0    0 -0.17180523200E+02 -0.11457858869E+02 -0.29224757498E+01  0.20856504304E+02  0.00000000000E+00 0. -1.
</event>
<event>
 7    1  0.2973028E-011  0.5052889E+02  0.7816164E-02  0.1300439E+00
        -11   -1    0    0    0    0  0.00000000000E+00  0.00000000000E+00  0.45593999997E+02  0.45594000000E+02  0.51100000000E-03 0.  1.
         11   -1    0    0    0    0 -0.00000000000E+00 -0.00000000000E+00 -0.45593999997E+02  0.45594000000E+02  0.51100000000E-03 0. -1.
    9900012    2    1    2    0    0  0.58028337877E+01  0.29177943455E+02  0.27715306398E+02  0.50528886963E+02  0.30000082413E+02 0.  0.
         12    1    1    2    0    0 -0.58028337877E+01 -0.29177943455E+02 -0.27715306398E+02  0.40659113037E+02  0.00000000000E+00 0. -1.
         11    1    3    3    0    0 -0.75017959529E+00  0.29682618972E+02  0.97184572452E+01  0.31242103802E+02  0.51100000000E-03 0. -1.
        -11    1    3    3    0    0  0.36857495918E+01  0.63297775250E+00  0.11541886129E+02  0.12132623236E+02  0.51100000000E-03 0.  1.
         12    1    3    3    0    0  0.28672637912E+01 -0.11376532699E+01  0.64549630231E+01  0.71541599256E+01  0.00000000000E+00 0. -1.
</event>
<event>
 7    1  0.2973028E-011  0.5052890E+02  0.7816164E-02  0.1300439E+00
        -11   -1    0    0    0    0  0.00000000000E+00  0.00000000000E+00  0.45593999997E+02  0.45594000000E+02  0.51100000000E-03 0. -1.
         11   -1    0    0    0    0 -0.00000000000E+00 -0.00000000000E+00 -0.45593999997E+02  0.45594000000E+02  0.51100000000E-03 0.  1.
    9900012    2    1    2    0    0 -0.39918050724E+02  0.76688931758E+01  0.94850034638E+00  0.50528900784E+02  0.30000124423E+02 0.  0.
         12    1    1    2    0    0  0.39918050724E+02 -0.76688931758E+01 -0.94850034638E+00  0.40659099216E+02  0.00000000000E+00 0. -1.
         11    1    3    3    0    0 -0.20307096533E+02 -0.10066336017E+02  0.15967833294E+01  0.22721333757E+02  0.51100000000E-03 0. -1.
        -11    1    3    3    0    0 -0.20293325440E+02  0.16708026689E+02 -0.14669847470E+01  0.26327348096E+02  0.51100000000E-03 0.  1.
         12    1    3    3    0    0  0.68237124957E+00  0.10272025032E+01  0.81870176394E+00  0.14802189308E+01  0.00000000000E+00 0. -1.
</event>
<event>
 7    1  0.2973028E-011  0.5052892E+02  0.7816164E-02  0.1300439E+00
        -11   -1    0    0    0    0  0.00000000000E+00  0.00000000000E+00  0.45593999997E+02  0.45594000000E+02  0.51100000000E-03 0. -1.
         11   -1    0    0    0    0 -0.00000000000E+00 -0.00000000000E+00 -0.45593999997E+02  0.45594000000E+02  0.51100000000E-03 0.  1.
    9900012    2    1    2    0    0  0.75562299436E+01 -0.31927596455E+02 -0.24014422187E+02  0.50528923531E+02  0.30000193564E+02 0.  0.
         12    1    1    2    0    0 -0.75562299436E+01  0.31927596455E+02  0.24014422187E+02  0.40659076469E+02  0.00000000000E+00 0. -1.
         11    1    3    3    0    0 -0.63442192035E+01 -0.83573022098E+00 -0.98942717041E+00  0.64750697827E+01  0.51100000000E-03 0.  1.
        -11    1    3    3    0    0  0.17191262932E+02 -0.27390373928E+02 -0.18054387213E+02  0.37036914059E+02  0.51100000000E-03 0. -1.
         12    1    3    3    0    0 -0.32908137850E+01 -0.37014923054E+01 -0.49706078042E+01  0.70169396889E+01  0.00000000000E+00 0. -1.
</event>
<event>
 7    1  0.2973028E-011  0.5052881E+02  0.7816164E-02  0.1300439E+00
        -11   -1    0    0    0    0  0.00000000000E+00  0.00000000000E+00  0.45593999997E+02  0.45594000000E+02  0.51100000000E-03 0.  1.
         11   -1    0    0    0    0 -0.00000000000E+00 -0.00000000000E+00 -0.45593999997E+02  0.45594000000E+02  0.51100000000E-03 0. -1.
    9900012    2    1    2    0    0  0.39972875329E+02  0.24261204572E+01  0.70322520788E+01  0.50528814176E+02  0.29999861169E+02 0.  0.
         12    1    1    2    0    0 -0.39972875329E+02 -0.24261204572E+01 -0.70322520788E+01  0.40659185824E+02  0.00000000000E+00 0. -1.
         11    1    3    3    0    0  0.62822096631E+00  0.47605732677E+01 -0.32637024422E+01  0.58059859897E+01  0.51100000000E-03 0. -1.
        -11    1    3    3    0    0  0.20752343758E+02 -0.72832311206E+01  0.12598057450E+02  0.25345932194E+02  0.51100000000E-03 0.  1.
        -12    1    3    3    0    0  0.18592310605E+02  0.49487783100E+01 -0.23021029290E+01  0.19376895992E+02  0.00000000000E+00 0.  1.
</event>
<event>
 7    1  0.2973028E-011  0.5052886E+02  0.7816164E-02  0.1300439E+00
        -11   -1    0    0    0    0  0.00000000000E+00  0.00000000000E+00  0.45593999997E+02  0.45594000000E+02  0.51100000000E-03 0.  1.
         11   -1    0    0    0    0 -0.00000000000E+00 -0.00000000000E+00 -0.45593999997E+02  0.45594000000E+02  0.51100000000E-03 0. -1.
    9900012    2    1    2    0    0 -0.25584611781E+02 -0.31353144919E+02  0.39463063340E+01  0.50528863388E+02  0.30000010755E+02 0.  0.
         12    1    1    2    0    0  0.25584611781E+02  0.31353144919E+02 -0.39463063340E+01  0.40659136612E+02  0.00000000000E+00 0. -1.
         11    1    3    3    0    0 -0.35984136736E+01  0.51620891016E+00  0.98530981172E+01  0.10502313810E+02  0.51100000000E-03 0. -1.
        -11    1    3    3    0    0 -0.43090011323E+01 -0.13165617117E+02 -0.20410318053E+01  0.14002384651E+02  0.51100000000E-03 0.  1.
         12    1    3    3    0    0 -0.17677196975E+02 -0.18703736713E+02 -0.38657599779E+01  0.26024164926E+02  0.00000000000E+00 0. -1.
</event>
<event>
 7    1  0.2973028E-011  0.5052887E+02  0.7816164E-02  0.1300439E+00
        -11   -1    0    0    0    0  0.00000000000E+00  0.00000000000E+00  0.45593999997E+02  0.45594000000E+02  0.51100000000E-03 0. -1.
         11   -1    0    0    0    0 -0.00000000000E+00 -0.00000000000E+00 -0.45593999997E+02  0.45594000000E+02  0.51100000000E-03 0.  1.
    9900012    2    1    2    0    0 -0.17684221568E+01 -0.17009567329E+02 -0.36887833459E+02  0.50528868739E+02  0.30000027019E+02 0.  0.
         12    1    1    2    0    0  0.17684221568E+01  0.17009567329E+02  0.36887833459E+02  0.40659131261E+02  0.00000000000E+00 0. -1.
         11    1    3    3    0    0 -0.21723172610E+01  0.97217407349E+00  0.17321660977E+01  0.29435496195E+01  0.51100000000E-03 0. -1.
        -11    1    3    3    0    0 -0.63606098762E+00 -0.91196742581E+01 -0.37493148549E+02  0.38591569294E+02  0.51100000000E-03 0.  1.
        -12    1    3    3    0    0  0.10399560918E+01 -0.88620671441E+01 -0.11268510071E+01  0.89937498259E+01  0.00000000000E+00 0.  1.
</event>
<event>
 7    1  0.2973028E-011  0.5052888E+02  0.7816164E-02  0.1300439E+00
        -11   -1    0    0    0    0  0.00000000000E+00  0.00000000000E+00  0.45593999997E+02  0.45594000000E+02  0.51100000000E-03 0. -1.
         11   -1    0    0    0    0 -0.00000000000E+00 -0.00000000000E+00 -0.45593999997E+02  0.45594000000E+02  0.51100000000E-03 0.  1.
    9900012    2    1    2    0    0  0.22590313674E+02  0.25927697145E+02 -0.21693240676E+02  0.50528875045E+02  0.30000046186E+02 0.  0.
         12    1    1    2    0    0 -0.22590313674E+02 -0.25927697145E+02  0.21693240676E+02  0.40659124955E+02  0.00000000000E+00 0. -1.
         11    1    3    3    0    0 -0.32099529418E+01  0.56935972701E+01 -0.61031687860E+01  0.89425677104E+01  0.51100000000E-03 0. -1.
        -11    1    3    3    0    0  0.23118340191E+02  0.86455168719E+01 -0.40475658637E+01  0.25011705357E+02  0.51100000000E-03 0.  1.
        -12    1    3    3    0    0  0.26819264244E+01  0.11588583003E+02 -0.11542506026E+02  0.16574601978E+02  0.00000000000E+00 0.  1.
</event>
<event>
 7    1  0.2973028E-011  0.5052886E+02  0.7816164E-02  0.1300439E+00
        -11   -1    0    0    0    0  0.00000000000E+00  0.00000000000E+00  0.45593999997E+02  0.45594000000E+02  0.51100000000E-03 0. -1.
         11   -1    0    0    0    0 -0.00000000000E+00 -0.00000000000E+00 -0.45593999997E+02  0.45594000000E+02  0.51100000000E-03 0.  1.
    9900012    2    1    2    0    0 -0.16129595282E+01 -0.40558201252E+02 -0.23656081591E+01  0.50528862906E+02  0.30000009290E+02 0.  0.
         12    1    1    2    0    0  0.16129595282E+01  0.40558201252E+02  0.23656081591E+01  0.40659137094E+02  0.00000000000E+00 0. -1.
         11    1    3    3    0    0 -0.10993305996E+02 -0.18481330889E+02  0.24986090047E+01  0.21648450646E+02  0.51100000000E-03 0. -1.
        -11    1    3    3    0    0  0.11962787875E+02 -0.11826308649E+02 -0.67812698380E+01  0.18137130172E+02  0.51100000000E-03 0.  1.
        -12    1    3    3    0    0 -0.25824414066E+01 -0.10250561714E+02  0.19170526742E+01  0.10743282088E+02  0.00000000000E+00 0.  1.
</event>
<event>
 7    1  0.2973028E-011  0.5052885E+02  0.7816164E-02  0.1300439E+00
        -11   -1    0    0    0    0  0.00000000000E+00  0.00000000000E+00  0.45593999997E+02  0.45594000000E+02  0.51100000000E-03 0.  1.
         11   -1    0    0    0    0 -0.00000000000E+00 -0.00000000000E+00 -0.45593999997E+02  0.45594000000E+02  0.51100000000E-03 0. -1.
    9900012    2    1    2    0    0  0.22601811384E+01  0.27342956013E+02  0.30007018188E+02  0.50528846014E+02  0.29999957945E+02 0.  0.
         12    1    1    2    0    0 -0.22601811384E+01 -0.27342956013E+02 -0.30007018188E+02  0.40659153986E+02  0.00000000000E+00 0. -1.
         11    1    3    3    0    0 -0.20916872737E+01 -0.40516778343E+01  0.57944395362E+01  0.73733831261E+01  0.51100000000E-03 0. -1.
        -11    1    3    3    0    0  0.24844093016E+01  0.22465456378E+02  0.25349272852E+02  0.33962547817E+02  0.51100000000E-03 0.  1.
         12    1    3    3    0    0  0.18674591106E+01  0.89291774691E+01 -0.11366942001E+01  0.91929150713E+01  0.00000000000E+00 0. -1.
</event>
<event>
 7    1  0.2973028E-011  0.5052885E+02  0.7816164E-02  0.1300439E+00
        -11   -1    0    0    0    0  0.00000000000E+00  0.00000000000E+00  0.45593999997E+02  0.45594000000E+02  0.51100000000E-03 0. -1.
         11   -1    0    0    0    0 -0.00000000000E+00 -0.00000000000E+00 -0.45593999997E+02  0.45594000000E+02  0.51100000000E-03 0.  1.
    9900012    2    1    2    0    0 -0.23158624121E+00 -0.37521613119E+02  0.15660182884E+02  0.50528850831E+02  0.29999972585E+02 0.  0.
         12    1    1    2    0    0  0.23158624121E+00  0.37521613119E+02 -0.15660182884E+02  0.40659149169E+02  0.00000000000E+00 0. -1.
         11    1    3    3    0    0 -0.11956728899E+02 -0.83498251184E+01  0.62171245313E+01  0.15853566891E+02  0.51100000000E-03 0. -1.
        -11    1    3    3    0    0  0.13220808776E+02 -0.28801945409E+02  0.96326470543E+01  0.33122948745E+02  0.51100000000E-03 0.  1.
        -12    1    3    3    0    0 -0.14956661187E+01 -0.36984259129E+00 -0.18958870110E+00  0.15523351947E+01  0.00000000000E+00 0.  1.
</event>
<event>
 7    1  0.2973028E-011  0.5052896E+02  0.7816164E-02  0.1300438E+00
        -11   -1    0    0    0    0  0.00000000000E+00  0.00000000000E+00  0.45593999997E+02  0.45594000000E+02  0.51100000000E-03 0.  1.
         11   -1    0    0    0    0 -0.00000000000E+00 -0.00000000000E+00 -0.45593999997E+02  0.45594000000E+02  0.51100000000E-03 0. -1.
    9900012    2    1    2    0    0  0.33320596868E+01  0.40499871475E+02  0.13472384636E+01  0.50528963333E+02  0.30000314545E+02 0.  0.
         12    1    1    2    0    0 -0.33320596868E+01 -0.40499871475E+02 -0.13472384636E+01  0.40659036667E+02  0.00000000000E+00 0. -1.
         11    1    3    3    0    0  0.11883003853E+02  0.27393820884E+02  0.83546847971E+01  0.31006901837E+02  0.51100000000E-03 0. -1.
        -11    1    3    3    0    0 -0.89990751046E+01  0.14256862908E+02 -0.70782406497E+01  0.18285048091E+02  0.51100000000E-03 0.  1.
         12    1    3    3    0    0  0.44813093851E+00 -0.11508123180E+01  0.70794316276E-01  0.12370134051E+01  0.00000000000E+00 0. -1.
</event>
<event>
 7    1  0.2973028E-011  0.5052885E+02  0.7816164E-02  0.1300439E+00
        -11   -1    0    0    0    0  0.00000000000E+00  0.00000000000E+00  0.45593999997E+02  0.45594000000E+02  0.51100000000E-03 0.  1.
         11   -1    0    0    0    0 -0.00000000000E+00 -0.00000000000E+00 -0.45593999997E+02  0.45594000000E+02  0.51100000000E-03 0. -1.
    9900012    2    1    2    0    0 -0.22355201296E+02 -0.67780267926E+01  0.33278666939E+02  0.50528851640E+02  0.29999975044E+02 0.  0.
         12    1    1    2    0    0  0.22355201296E+02  0.67780267926E+01 -0.33278666939E+02  0.40659148360E+02  0.00000000000E+00 0. -1.
         11    1    3    3    0    0 -0.73778931945E+01 -0.11647255453E+02  0.57325729010E+01  0.14931652953E+02  0.51100000000E-03 0. -1.
        -11    1    3    3    0    0 -0.10315177404E+02  0.10660613348E+02  0.20870393302E+02  0.25605172889E+02  0.51100000000E-03 0.  1.
        -12    1    3    3    0    0 -0.46621306978E+01 -0.57913846867E+01  0.66757007354E+01  0.99920257977E+01  0.00000000000E+00 0.  1.
</event>
<event>
 7    1  0.2973028E-011  0.5052886E+02  0.7816164E-02  0.1300439E+00
        -11   -1    0    0    0    0  0.00000000000E+00  0.00000000000E+00  0.45593999997E+02  0.45594000000E+02  0.51100000000E-03 0. -1.
         11   -1    0    0    0    0 -0.00000000000E+00 -0.00000000000E+00 -0.45593999997E+02  0.45594000000E+02  0.51100000000E-03 0.  1.
    9900012    2    1    2    0    0 -0.39352883133E+02  0.37056930082E+00 -0.10216605063E+02  0.50528858943E+02  0.29999997242E+02 0.  0.
         12    1    1    2    0    0  0.39352883133E+02 -0.37056930082E+00  0.10216605063E+02  0.40659141057E+02  0.00000000000E+00 0. -1.
         11    1    3    3    0    0 -0.62311363048E+01  0.32627171421E+01 -0.14540569164E+02  0.16152415754E+02  0.51100000000E-03 0. -1.
        -11    1    3    3    0    0 -0.24250397139E+02  0.12459899389E+01  0.37538543487E+01  0.24570829759E+02  0.51100000000E-03 0.  1.
         12    1    3    3    0    0 -0.88713496900E+01 -0.41381377802E+01  0.57010975305E+00  0.98056134301E+01  0.00000000000E+00 0. -1.
</event>
<event>
 7    1  0.2973028E-011  0.5052883E+02  0.7816164E-02  0.1300439E+00
        -11   -1    0    0    0    0  0.00000000000E+00  0.00000000000E+00  0.45593999997E+02  0.45594000000E+02  0.51100000000E-03 0.  1.
         11   -1    0    0    0    0 -0.00000000000E+00 -0.00000000000E+00 -0.45593999997E+02  0.45594000000E+02  0.51100000000E-03 0. -1.
    9900012    2    1    2    0    0  0.10052642715E+02 -0.22938078417E+02  0.32030564078E+02  0.50528830035E+02  0.29999909375E+02 0.  0.
         12    1    1    2    0    0 -0.10052642715E+02  0.22938078417E+02 -0.32030564078E+02  0.40659169965E+02  0.00000000000E+00 0. -1.
         11    1    3    3    0    0  0.17255074868E+02 -0.79769639198E+01  0.23634205748E+02  0.30330599132E+02  0.51100000000E-03 0. -1.
        -11    1    3    3    0    0 -0.39309775405E+01 -0.14128688924E+02  0.52302422521E+01  0.15570095357E+02  0.51100000000E-03 0.  1.
         12    1    3    3    0    0 -0.32714546131E+01 -0.83242557350E+00  0.31661160780E+01  0.46281355469E+01  0.00000000000E+00 0. -1.
</event>
<event>
 7    1  0.2973028E-011  0.5052901E+02  0.7816164E-02  0.1300438E+00
        -11   -1    0    0    0    0  0.00000000000E+00  0.00000000000E+00  0.45593999997E+02  0.45594000000E+02  0.51100000000E-03 0. -1.
         11   -1    0    0    0    0 -0.00000000000E+00 -0.00000000000E+00 -0.45593999997E+02  0.45594000000E+02  0.51100000000E-03 0.  1.
    9900012    2    1    2    0    0  0.38927048623E+02  0.64281041882E+01  0.98243607313E+01  0.50529007124E+02  0.30000447650E+02 0.  0.
         12    1    1    2    0    0 -0.38927048623E+02 -0.64281041882E+01 -0.98243607313E+01  0.40658992876E+02  0.00000000000E+00 0. -1.
         11    1    3    3    0    0  0.88992797536E+01  0.67905987655E+01  0.11822694887E+02  0.16281447306E+02  0.51100000000E-03 0. -1.
        -11    1    3    3    0    0  0.30958405795E+02 -0.25344566950E+01 -0.37759386426E+01  0.31290638743E+02  0.51100000000E-03 0.  1.
        -12    1    3    3    0    0 -0.93063692558E+00  0.21719621177E+01  0.17776044874E+01  0.29569210746E+01  0.00000000000E+00 0.  1.
</event>
<event>
 7    1  0.2973028E-011  0.5052887E+02  0.7816164E-02  0.1300439E+00
        -11   -1    0    0    0    0  0.00000000000E+00  0.00000000000E+00  0.45593999997E+02  0.45594000000E+02  0.51100000000E-03 0.  1.
         11   -1    0    0    0    0 -0.00000000000E+00 -0.00000000000E+00 -0.45593999997E+02  0.45594000000E+02  0.51100000000E-03 0. -1.
    9900012    2    1    2    0    0 -0.65158304461E+01 -0.36625295460E+02  0.16410249904E+02  0.50528872908E+02  0.30000039692E+02 0.  0.
         12    1    1    2    0    0  0.65158304461E+01  0.36625295460E+02 -0.16410249904E+02  0.40659127092E+02  0.00000000000E+00 0. -1.
         11    1    3    3    0    0  0.66829699953E+01 -0.24266324063E+01 -0.29759423773E+01  0.77075849711E+01  0.51100000000E-03 0. -1.
        -11    1    3    3    0    0 -0.11065146799E+02 -0.32048373693E+02  0.14081748819E+02  0.36712823102E+02  0.51100000000E-03 0.  1.
         12    1    3    3    0    0 -0.21336536422E+01 -0.21502893612E+01  0.53044434617E+01  0.61084648350E+01  0.00000000000E+00 0. -1.
</event>
<event>
 7    1  0.2973028E-011  0.5052886E+02  0.7816164E-02  0.1300439E+00
        -11   -1    0    0    0    0  0.00000000000E+00  0.00000000000E+00  0.45593999997E+02  0.45594000000E+02  0.51100000000E-03 0. -1.
         11   -1    0    0    0    0 -0.00000000000E+00 -0.00000000000E+00 -0.45593999997E+02  0.45594000000E+02  0.51100000000E-03 0.  1.
    9900012    2    1    2    0    0 -0.91508328529E+00  0.36614108340E+02 -0.17656036809E+02  0.50528856591E+02  0.29999990095E+02 0.  0.
         12    1    1    2    0    0  0.91508328529E+00 -0.36614108340E+02  0.17656036809E+02  0.40659143409E+02  0.00000000000E+00 0. -1.
         11    1    3    3    0    0  0.39218286329E+01 -0.35273864658E+01 -0.97433868452E+00  0.53640032847E+01  0.51100000000E-03 0. -1.
        -11    1    3    3    0    0  0.30176226101E+01  0.14186725165E+02 -0.30797758902E+01  0.14827482488E+02  0.51100000000E-03 0.  1.
         12    1    3    3    0    0 -0.78545345283E+01  0.25954769641E+02 -0.13601922234E+02  0.30337370819E+02  0.00000000000E+00 0. -1.
</event>
<event>
 7    1  0.2973028E-011  0.5052886E+02  0.7816164E-02  0.1300439E+00
        -11   -1    0    0    0    0  0.00000000000E+00  0.00000000000E+00  0.45593999997E+02  0.45594000000E+02  0.51100000000E-03 0.  1.
         11   -1    0    0    0    0 -0.00000000000E+00 -0.00000000000E+00 -0.45593999997E+02  0.45594000000E+02  0.51100000000E-03 0. -1.
    9900012    2    1    2    0    0 -0.34623702243E+02 -0.14232280955E+02  0.15868432651E+02  0.50528859171E+02  0.29999997935E+02 0.  0.
         12    1    1    2    0    0  0.34623702243E+02  0.14232280955E+02 -0.15868432651E+02  0.40659140829E+02  0.00000000000E+00 0. -1.
         11    1    3    3    0    0 -0.22235690109E+02 -0.21354698853E+01  0.20784376095E+02  0.30511906466E+02  0.51100000000E-03 0. -1.
        -11    1    3    3    0    0 -0.13050850282E+02 -0.97008880138E+01 -0.59620764274E+01  0.17319880973E+02  0.51100000000E-03 0.  1.
        -12    1    3    3    0    0  0.66283814915E+00 -0.23959230560E+01  0.10461329833E+01  0.26970717308E+01  0.00000000000E+00 0.  1.
</event>
<event>
 7    1  0.2973028E-011  0.5052887E+02  0.7816164E-02  0.1300439E+00
        -11   -1    0    0    0    0  0.00000000000E+00  0.00000000000E+00  0.45593999997E+02  0.45594000000E+02  0.51100000000E-03 0.  1.
         11   -1    0    0    0    0 -0.00000000000E+00 -0.00000000000E+00 -0.45593999997E+02  0.45594000000E+02  0.51100000000E-03 0. -1.
    9900012    2    1    2    0    0 -0.73905762578E+01 -0.40316592599E+01  0.39778012859E+02  0.50528865715E+02  0.30000017827E+02 0.  0.
         12    1    1    2    0    0  0.73905762578E+01  0.40316592599E+01 -0.39778012859E+02  0.40659134285E+02  0.00000000000E+00 0. -1.
         11    1    3    3    0    0 -0.74686631850E+01  0.84265556774E+01  0.97358345629E+01  0.14885370175E+02  0.51100000000E-03 0. -1.
        -11    1    3    3    0    0 -0.53706513919E+00 -0.14339368617E+02  0.16120578166E+02  0.21581913075E+02  0.51100000000E-03 0.  1.
        -12    1    3    3    0    0  0.61515206634E+00  0.18811536800E+01  0.13921600130E+02  0.14061582464E+02  0.00000000000E+00 0.  1.
</event>
<event>
 7    1  0.2973028E-011  0.5052886E+02  0.7816164E-02  0.1300439E+00
        -11   -1    0    0    0    0  0.00000000000E+00  0.00000000000E+00  0.45593999997E+02  0.45594000000E+02  0.51100000000E-03 0. -1.
         11   -1    0    0    0    0 -0.00000000000E+00 -0.00000000000E+00 -0.45593999997E+02  0.45594000000E+02  0.51100000000E-03 0.  1.
    9900012    2    1    2    0    0  0.21834351968E+02 -0.30889533461E+02  0.14908497791E+02  0.50528861916E+02  0.30000006281E+02 0.  0.
         12    1    1    2    0    0 -0.21834351968E+02  0.30889533461E+02 -0.14908497791E+02  0.40659138084E+02  0.00000000000E+00 0. -1.
         11    1    3    3    0    0  0.12264201019E+02 -0.30664253076E+02  0.11228198795E+02  0.34882366488E+02  0.51100000000E-03 0. -1.
        -11    1    3    3    0    0 -0.23750670914E+01 -0.49364422874E+00 -0.12405348618E+01  0.27246202153E+01  0.51100000000E-03 0.  1.
         12    1    3    3    0    0  0.11945218040E+02  0.26836384336E+00  0.49208338571E+01  0.12921875213E+02  0.00000000000E+00 0. -1.
</event>
<event>
 7    1  0.2973028E-011  0.5052884E+02  0.7816164E-02  0.1300439E+00
        -11   -1    0    0    0    0  0.00000000000E+00  0.00000000000E+00  0.45593999997E+02  0.45594000000E+02  0.51100000000E-03 0.  1.
         11   -1    0    0    0    0 -0.00000000000E+00 -0.00000000000E+00 -0.45593999997E+02  0.45594000000E+02  0.51100000000E-03 0. -1.
    9900012    2    1    2    0    0  0.18151778850E+02 -0.28690687547E+02  0.22372404311E+02  0.50528842336E+02  0.29999946763E+02 0.  0.
         12    1    1    2    0    0 -0.18151778850E+02  0.28690687547E+02 -0.22372404311E+02  0.40659157664E+02  0.00000000000E+00 0. -1.
         11    1    3    3    0    0 -0.46628906360E+00  0.54071218662E+01  0.41869839603E+01  0.68545771067E+01  0.51100000000E-03 0. -1.
        -11    1    3    3    0    0  0.57696185301E+01 -0.74153359997E+01  0.80518623459E+01  0.12373689566E+02  0.51100000000E-03 0.  1.
         12    1    3    3    0    0  0.12848449383E+02 -0.26682473413E+02  0.10133558005E+02  0.31300575663E+02  0.00000000000E+00 0. -1.
</event>
<event>
 7    1  0.2973028E-011  0.5052886E+02  0.7816164E-02  0.1300439E+00
        -11   -1    0    0    0    0  0.00000000000E+00  0.00000000000E+00  0.45593999997E+02  0.45594000000E+02  0.51100000000E-03 0. -1.
         11   -1    0    0    0    0 -0.00000000000E+00 -0.00000000000E+00 -0.45593999997E+02  0.45594000000E+02  0.51100000000E-03 0.  1.
    9900012    2    1    2    0    0  0.33052266190E+02 -0.53815175185E+01 -0.23059758797E+02  0.50528861951E+02  0.30000006387E+02 0.  0.
         12    1    1    2    0    0 -0.33052266190E+02  0.53815175185E+01  0.23059758797E+02  0.40659138049E+02  0.00000000000E+00 0. -1.
         11    1    3    3    0    0  0.17565491759E+02 -0.65617380825E+01 -0.77441200019E+00  0.18767062146E+02  0.51100000000E-03 0. -1.
        -11    1    3    3    0    0  0.16319668920E+02  0.57508518610E+01 -0.20394564437E+02  0.26745880984E+02  0.51100000000E-03 0.  1.
         12    1    3    3    0    0 -0.83289448902E+00 -0.45706312970E+01 -0.18907823603E+01  0.50159188208E+01  0.00000000000E+00 0. -1.
</event>
<event>
 7    1  0.2973028E-011  0.5052886E+02  0.7816164E-02  0.1300439E+00
        -11   -1    0    0    0    0  0.00000000000E+00  0.00000000000E+00  0.45593999997E+02  0.45594000000E+02  0.51100000000E-03 0. -1.
         11   -1    0    0    0    0 -0.00000000000E+00 -0.00000000000E+00 -0.45593999997E+02  0.45594000000E+02  0.51100000000E-03 0.  1.
    9900012    2    1    2    0    0  0.20096405168E+02 -0.38240857091E+01 -0.35137966324E+02  0.50528858228E+02  0.29999995071E+02 0.  0.
         12    1    1    2    0    0 -0.20096405168E+02  0.38240857091E+01  0.35137966324E+02  0.40659141772E+02  0.00000000000E+00 0. -1.
         11    1    3    3    0    0  0.26924409888E+01 -0.14193176438E+01  0.57505303030E+00  0.30974807991E+01  0.51100000000E-03 0. -1.
        -11    1    3    3    0    0  0.12777633506E+02  0.99773463133E+01 -0.27337999118E+02  0.31783353402E+02  0.51100000000E-03 0.  1.
        -12    1    3    3    0    0  0.46263306741E+01 -0.12382114379E+02 -0.83750202362E+01  0.15648024027E+02  0.00000000000E+00 0.  1.
</event>
<event>
 7    1  0.2973028E-011  0.5052886E+02  0.7816164E-02  0.1300439E+00
        -11   -1    0    0    0    0  0.00000000000E+00  0.00000000000E+00  0.45593999997E+02  0.45594000000E+02  0.51100000000E-03 0. -1.
         11   -1    0    0    0    0 -0.00000000000E+00 -0.00000000000E+00 -0.45593999997E+02  0.45594000000E+02  0.51100000000E-03 0.  1.
    9900012    2    1    2    0    0  0.22259173318E+02  0.14109428179E+02 -0.30961565988E+02  0.50528864141E+02  0.30000013043E+02 0.  0.
         12    1    1    2    0    0 -0.22259173318E+02 -0.14109428179E+02  0.30961565988E+02  0.40659135859E+02  0.00000000000E+00 0. -1.
         11    1    3    3    0    0  0.13578638220E+01  0.93087253114E+01 -0.45177301223E+01  0.10435805997E+02  0.51100000000E-03 0. -1.
        -11    1    3    3    0    0  0.19648961763E+02  0.84558209585E+00 -0.80729700448E+01  0.21259575562E+02  0.51100000000E-03 0.  1.
        -12    1    3    3    0    0  0.12523477330E+01  0.39551207715E+01 -0.18370865821E+02  0.18833482583E+02  0.00000000000E+00 0.  1.
</event>
<event>
 7    1  0.2973028E-011  0.5052886E+02  0.7816164E-02  0.1300439E+00
        -11   -1    0    0    0    0  0.00000000000E+00  0.00000000000E+00  0.45593999997E+02  0.45594000000E+02  0.51100000000E-03 0. -1.
         11   -1    0    0    0    0 -0.00000000000E+00 -0.00000000000E+00 -0.45593999997E+02  0.45594000000E+02  0.51100000000E-03 0.  1.
    9900012    2    1    2    0    0  0.30468905134E+02  0.25930270010E+02 -0.72410592518E+01  0.50528855617E+02  0.29999987134E+02 0.  0.
         12    1    1    2    0    0 -0.30468905134E+02 -0.25930270010E+02  0.72410592518E+01  0.40659144383E+02  0.00000000000E+00 0. -1.
         11    1    3    3    0    0  0.53883370483E+01  0.44480617502E+01 -0.88144710816E+01  0.11247858916E+02  0.51100000000E-03 0. -1.
        -11    1    3    3    0    0  0.59883113960E+01  0.36462338213E+01  0.96552703219E+01  0.11932273032E+02  0.51100000000E-03 0.  1.
        -12    1    3    3    0    0  0.19092256690E+02  0.17835974438E+02 -0.80818584921E+01  0.27348723670E+02  0.00000000000E+00 0.  1.
</event>
<event>
 7    1  0.2973028E-011  0.5052885E+02  0.7816164E-02  0.1300439E+00
        -11   -1    0    0    0    0  0.00000000000E+00  0.00000000000E+00  0.45593999997E+02  0.45594000000E+02  0.51100000000E-03 0.  1.
         11   -1    0    0    0    0 -0.00000000000E+00 -0.00000000000E+00 -0.45593999997E+02  0.45594000000E+02  0.51100000000E-03 0. -1.
    9900012    2    1    2    0    0  0.31472163785E+02  0.25738156831E+02  0.46559196254E+00  0.50528848678E+02  0.29999966041E+02 0.  0.
         12    1    1    2    0    0 -0.31472163785E+02 -0.25738156831E+02 -0.46559196254E+00  0.40659151322E+02  0.00000000000E+00 0. -1.
         11    1    3    3    0    0  0.13909196891E+00 -0.75701403420E+00 -0.38707856339E-02  0.76969608800E+00  0.51100000000E-03 0. -1.
        -11    1    3    3    0    0 -0.29342089601E+01  0.10123238658E+02  0.47124425324E+01  0.11545417187E+02  0.51100000000E-03 0.  1.
        -12    1    3    3    0    0  0.34267280776E+02  0.16371932207E+02 -0.42429797842E+01  0.38213735403E+02  0.00000000000E+00 0.  1.
</event>
<event>
 7    1  0.2973028E-011  0.5052884E+02  0.7816164E-02  0.1300439E+00
        -11   -1    0    0    0    0  0.00000000000E+00  0.00000000000E+00  0.45593999997E+02  0.45594000000E+02  0.51100000000E-03 0. -1.
         11   -1    0    0    0    0 -0.00000000000E+00 -0.00000000000E+00 -0.45593999997E+02  0.45594000000E+02  0.51100000000E-03 0.  1.
    9900012    2    1    2    0    0 -0.38829466918E+02  0.12057316725E+02 -0.24645610957E+00  0.50528842011E+02  0.29999945778E+02 0.  0.
         12    1    1    2    0    0  0.38829466918E+02 -0.12057316725E+02  0.24645610957E+00  0.40659157989E+02  0.00000000000E+00 0. -1.
         11    1    3    3    0    0 -0.67248691111E+01  0.13617981755E+02  0.22706323204E+01  0.15356726964E+02  0.51100000000E-03 0. -1.
        -11    1    3    3    0    0 -0.12004687656E+02 -0.63017892266E+01 -0.48269770436E+01  0.14391830349E+02  0.51100000000E-03 0.  1.
        -12    1    3    3    0    0 -0.20099910151E+02  0.47411241967E+01  0.23098886136E+01  0.20780284698E+02  0.00000000000E+00 0.  1.
</event>
<event>
 7    1  0.2973028E-011  0.5052886E+02  0.7816164E-02  0.1300439E+00
        -11   -1    0    0    0    0  0.00000000000E+00  0.00000000000E+00  0.45593999997E+02  0.45594000000E+02  0.51100000000E-03 0.  1.
         11   -1    0    0    0    0 -0.00000000000E+00 -0.00000000000E+00 -0.45593999997E+02  0.45594000000E+02  0.51100000000E-03 0. -1.
    9900012    2    1    2    0    0 -0.12619946573E+01 -0.22962274296E+02  0.33530685800E+02  0.50528861279E+02  0.30000004343E+02 0.  0.
         12    1    1    2    0    0  0.12619946573E+01  0.22962274296E+02 -0.33530685800E+02  0.40659138721E+02  0.00000000000E+00 0. -1.
         11    1    3    3    0    0  0.22782542637E+01  0.53475846215E+01  0.32924266049E+01  0.66803575491E+01  0.51100000000E-03 0. -1.
        -11    1    3    3    0    0 -0.13189938235E+01 -0.99078588437E+01  0.20735793792E+02  0.23019091121E+02  0.51100000000E-03 0.  1.
         12    1    3    3    0    0 -0.22212550975E+01 -0.18402000074E+02  0.95024654026E+01  0.20829412609E+02  0.00000000000E+00 0. -1.
</event>
<event>
 7    1  0.2973028E-011  0.5052886E+02  0.7816164E-02  0.1300439E+00
        -11   -1    0    0    0    0  0.00000000000E+00  0.00000000000E+00  0.45593999997E+02  0.45594000000E+02  0.51100000000E-03 0.  1.
         11   -1    0    0    0    0 -0.00000000000E+00 -0.00000000000E+00 -0.45593999997E+02  0.45594000000E+02  0.51100000000E-03 0. -1.
    9900012    2    1    2    0    0 -0.26599966497E+02  0.13979470093E+02  0.27389450339E+02  0.50528858450E+02  0.29999995745E+02 0.  0.
         12    1    1    2    0    0  0.26599966497E+02 -0.13979470093E+02 -0.27389450339E+02  0.40659141550E+02  0.00000000000E+00 0. -1.
         11    1    3    3    0    0 -0.13197775380E+02  0.65631582126E+01  0.27770871256E+01  0.14998951093E+02  0.51100000000E-03 0. -1.
        -11    1    3    3    0    0 -0.14924066840E+02 -0.77218493423E+00  0.22373803710E+02  0.26905596692E+02  0.51100000000E-03 0.  1.
        -12    1    3    3    0    0  0.15218757240E+01  0.81884968150E+01  0.22385595027E+01  0.86243106655E+01  0.00000000000E+00 0.  1.
</event>
<event>
 7    1  0.2973028E-011  0.5052887E+02  0.7816164E-02  0.1300439E+00
        -11   -1    0    0    0    0  0.00000000000E+00  0.00000000000E+00  0.45593999997E+02  0.45594000000E+02  0.51100000000E-03 0.  1.
         11   -1    0    0    0    0 -0.00000000000E+00 -0.00000000000E+00 -0.45593999997E+02  0.45594000000E+02  0.51100000000E-03 0. -1.
    9900012    2    1    2    0    0 -0.24305363904E+02 -0.28095127135E+02  0.16525077224E+02  0.50528867440E+02  0.30000023071E+02 0.  0.
         12    1    1    2    0    0  0.24305363904E+02  0.28095127135E+02 -0.16525077224E+02  0.40659132560E+02  0.00000000000E+00 0. -1.
         11    1    3    3    0    0  0.49110380647E+01 -0.13040132087E+02  0.94513299315E+01  0.16837190308E+02  0.51100000000E-03 0. -1.
        -11    1    3    3    0    0 -0.88676190274E+01 -0.57238254353E+01  0.22806205857E+01  0.10798058869E+02  0.51100000000E-03 0.  1.
         12    1    3    3    0    0 -0.20348782942E+02 -0.93311696122E+01  0.47931267072E+01  0.22893618263E+02  0.00000000000E+00 0. -1.
</event>
<event>
 7    1  0.2973028E-011  0.5052886E+02  0.7816164E-02  0.1300439E+00
        -11   -1    0    0    0    0  0.00000000000E+00  0.00000000000E+00  0.45593999997E+02  0.45594000000E+02  0.51100000000E-03 0.  1.
         11   -1    0    0    0    0 -0.00000000000E+00 -0.00000000000E+00 -0.45593999997E+02  0.45594000000E+02  0.51100000000E-03 0. -1.
    9900012    2    1    2    0    0 -0.11932388887E+02 -0.36687232352E+02  0.12838628278E+02  0.50528864516E+02  0.30000014183E+02 0.  0.
         12    1    1    2    0    0  0.11932388887E+02  0.36687232352E+02 -0.12838628278E+02  0.40659135484E+02  0.00000000000E+00 0. -1.
         11    1    3    3    0    0 -0.25267327861E+01 -0.29418721985E+01  0.10349050990E+02  0.11051780276E+02  0.51100000000E-03 0. -1.
        -11    1    3    3    0    0 -0.40392498340E+01 -0.33678371504E+02  0.31689061243E+01  0.34067436251E+02  0.51100000000E-03 0.  1.
        -12    1    3    3    0    0 -0.53664062672E+01 -0.66988649412E-01 -0.67932883653E+00  0.54096479897E+01  0.00000000000E+00 0.  1.
</event>
<event>
 7    1  0.2973028E-011  0.5052886E+02  0.7816164E-02  0.1300439E+00
        -11   -1    0    0    0    0  0.00000000000E+00  0.00000000000E+00  0.45593999997E+02  0.45594000000E+02  0.51100000000E-03 0. -1.
         11   -1    0    0    0    0 -0.00000000000E+00 -0.00000000000E+00 -0.45593999997E+02  0.45594000000E+02  0.51100000000E-03 0.  1.
    9900012    2    1    2    0    0  0.18722206480E+02  0.22438644276E+02 -0.28269279312E+02  0.50528856806E+02  0.29999990749E+02 0.  0.
         12    1    1    2    0    0 -0.18722206480E+02 -0.22438644276E+02  0.28269279312E+02  0.40659143194E+02  0.00000000000E+00 0. -1.
         11    1    3    3    0    0 -0.32301970085E+01 -0.23414956983E+00  0.41402777810E+01  0.52565101636E+01  0.51100000000E-03 0. -1.
        -11    1    3    3    0    0  0.16292514434E+02  0.17120038086E+02 -0.23163139368E+02  0.33091883541E+02  0.51100000000E-03 0.  1.
         12    1    3    3    0    0  0.56598890540E+01  0.55527557605E+01 -0.92464177247E+01  0.12180463102E+02  0.00000000000E+00 0. -1.
</event>
<event>
 7    1  0.2973028E-011  0.5052886E+02  0.7816164E-02  0.1300439E+00
        -11   -1    0    0    0    0  0.00000000000E+00  0.00000000000E+00  0.45593999997E+02  0.45594000000E+02  0.51100000000E-03 0.  1.
         11   -1    0    0    0    0 -0.00000000000E+00 -0.00000000000E+00 -0.45593999997E+02  0.45594000000E+02  0.51100000000E-03 0. -1.
    9900012    2    1    2    0    0  0.47174677790E+01  0.18470892577E+02  0.35912917492E+02  0.50528855671E+02  0.29999987296E+02 0.  0.
         12    1    1    2    0    0 -0.47174677790E+01 -0.18470892577E+02 -0.35912917492E+02  0.40659144329E+02  0.00000000000E+00 0. -1.
         11    1    3    3    0    0 -0.72361546927E+01  0.55354278859E+01  0.70121670650E+01  0.11496668379E+02  0.51100000000E-03 0. -1.
        -11    1    3    3    0    0  0.12301330066E+02  0.70409917456E+00  0.76288357274E+01  0.14491984400E+02  0.51100000000E-03 0.  1.
        -12    1    3    3    0    0 -0.34770759412E+00  0.12231365516E+02  0.21271914699E+02  0.24540202891E+02  0.00000000000E+00 0.  1.
</event>
<event>
 7    1  0.2973028E-011  0.5052885E+02  0.7816164E-02  0.1300439E+00
        -11   -1    0    0    0    0  0.00000000000E+00  0.00000000000E+00  0.45593999997E+02  0.45594000000E+02  0.51100000000E-03 0. -1.
         11   -1    0    0    0    0 -0.00000000000E+00 -0.00000000000E+00 -0.45593999997E+02  0.45594000000E+02  0.51100000000E-03 0.  1.
    9900012    2    1    2    0    0 -0.19584226931E+01  0.34376574084E+02 -0.21623654519E+02  0.50528847279E+02  0.29999961791E+02 0.  0.
         12    1    1    2    0    0  0.19584226931E+01 -0.34376574084E+02  0.21623654519E+02  0.40659152721E+02  0.00000000000E+00 0. -1.
         11    1    3    3    0    0 -0.23247688608E+01  0.18942565607E+02  0.49820652586E+01  0.19724257059E+02  0.51100000000E-03 0. -1.
        -11    1    3    3    0    0  0.81399402568E-01  0.60986802560E+01 -0.89481702804E+01  0.10829140241E+02  0.51100000000E-03 0.  1.
         12    1    3    3    0    0  0.28494676514E+00  0.93353282216E+01 -0.17657549497E+02  0.19975449980E+02  0.00000000000E+00 0. -1.
</event>
<event>
 7    1  0.2973028E-011  0.5052886E+02  0.7816164E-02  0.1300439E+00
        -11   -1    0    0    0    0  0.00000000000E+00  0.00000000000E+00  0.45593999997E+02  0.45594000000E+02  0.51100000000E-03 0.  1.
         11   -1    0    0    0    0 -0.00000000000E+00 -0.00000000000E+00 -0.45593999997E+02  0.45594000000E+02  0.51100000000E-03 0. -1.
    9900012    2    1    2    0    0 -0.17845277320E+02  0.44614638283E+01  0.36260265015E+02  0.50528863252E+02  0.30000010340E+02 0.  0.
         12    1    1    2    0    0  0.17845277320E+02 -0.44614638283E+01 -0.36260265015E+02  0.40659136748E+02  0.00000000000E+00 0. -1.
         11    1    3    3    0    0 -0.13049706235E+02 -0.86229554851E+01  0.22352374405E+02  0.27281474225E+02  0.51100000000E-03 0.  1.
        -11    1    3    3    0    0 -0.33548947235E+01  0.69686534312E+01 -0.27077979265E+00  0.77389127923E+01  0.51100000000E-03 0. -1.
        -12    1    3    3    0    0 -0.14406763615E+01  0.61157658823E+01  0.14178670403E+02  0.15508476234E+02  0.00000000000E+00 0.  1.
</event>
<event>
 7    1  0.2973028E-011  0.5052885E+02  0.7816164E-02  0.1300439E+00
        -11   -1    0    0    0    0  0.00000000000E+00  0.00000000000E+00  0.45593999997E+02  0.45594000000E+02  0.51100000000E-03 0.  1.
         11   -1    0    0    0    0 -0.00000000000E+00 -0.00000000000E+00 -0.45593999997E+02  0.45594000000E+02  0.51100000000E-03 0. -1.
    9900012    2    1    2    0    0  0.26377523901E+01 -0.33692631180E+01  0.40433359789E+02  0.50528852745E+02  0.29999978405E+02 0.  0.
         12    1    1    2    0    0 -0.26377523901E+01  0.33692631180E+01 -0.40433359789E+02  0.40659147255E+02  0.00000000000E+00 0. -1.
         11    1    3    3    0    0 -0.44635572556E+01  0.44062633103E+01 -0.10240123249E+01  0.63550846758E+01  0.51100000000E-03 0. -1.
        -11    1    3    3    0    0  0.59460877558E+01 -0.10593362464E+02  0.34597191377E+02  0.36667982482E+02  0.51100000000E-03 0.  1.
        -12    1    3    3    0    0  0.11552218899E+01  0.28178360352E+01  0.68601807373E+01  0.75057855875E+01  0.00000000000E+00 0.  1.
</event>
<event>
 7    1  0.2973028E-011  0.5052887E+02  0.7816164E-02  0.1300439E+00
        -11   -1    0    0    0    0  0.00000000000E+00  0.00000000000E+00  0.45593999997E+02  0.45594000000E+02  0.51100000000E-03 0.  1.
         11   -1    0    0    0    0 -0.00000000000E+00 -0.00000000000E+00 -0.45593999997E+02  0.45594000000E+02  0.51100000000E-03 0. -1.
    9900012    2    1    2    0    0 -0.11816059534E+02  0.84578525462E+01  0.37973812515E+02  0.50528868559E+02  0.30000026471E+02 0.  0.
         12    1    1    2    0    0  0.11816059534E+02 -0.84578525462E+01 -0.37973812515E+02  0.40659131441E+02  0.00000000000E+00 0. -1.
         11    1    3    3    0    0  0.37568678765E+01  0.80854494185E+01  0.50185052294E+01  0.10231028469E+02  0.51100000000E-03 0. -1.
        -11    1    3    3    0    0 -0.17223304993E+02  0.35486872293E+01  0.32125380056E+02  0.36623427747E+02  0.51100000000E-03 0.  1.
         12    1    3    3    0    0  0.16503775819E+01 -0.31762841016E+01  0.82992722992E+00  0.36744123427E+01  0.00000000000E+00 0. -1.
</event>
<event>
 7    1  0.2973028E-011  0.5052874E+02  0.7816164E-02  0.1300439E+00
        -11   -1    0    0    0    0  0.00000000000E+00  0.00000000000E+00  0.45593999997E+02  0.45594000000E+02  0.51100000000E-03 0.  1.
         11   -1    0    0    0    0 -0.00000000000E+00 -0.00000000000E+00 -0.45593999997E+02  0.45594000000E+02  0.51100000000E-03 0. -1.
    9900012    2    1    2    0    0  0.21067705513E+02 -0.34403474067E+02 -0.50722973485E+01  0.50528739753E+02  0.29999634949E+02 0.  0.
         12    1    1    2    0    0 -0.21067705513E+02  0.34403474067E+02  0.50722973485E+01  0.40659260247E+02  0.00000000000E+00 0. -1.
         11    1    3    3    0    0  0.14883023747E+02 -0.67283767281E+01 -0.60549808134E+01  0.17419478814E+02  0.51100000000E-03 0. -1.
        -11    1    3    3    0    0 -0.16595033429E+00 -0.21149522148E+02 -0.55933243020E+01  0.21877273678E+02  0.51100000000E-03 0.  1.
        -12    1    3    3    0    0  0.63506321003E+01 -0.65255751914E+01  0.65760077669E+01  0.11231987260E+02  0.00000000000E+00 0.  1.
</event>
<event>
 7    1  0.2973028E-011  0.5052886E+02  0.7816164E-02  0.1300439E+00
        -11   -1    0    0    0    0  0.00000000000E+00  0.00000000000E+00  0.45593999997E+02  0.45594000000E+02  0.51100000000E-03 0.  1.
         11   -1    0    0    0    0 -0.00000000000E+00 -0.00000000000E+00 -0.45593999997E+02  0.45594000000E+02  0.51100000000E-03 0. -1.
    9900012    2    1    2    0    0 -0.76025136284E+01 -0.39349248611E+02  0.68559581634E+01  0.50528859059E+02  0.29999997597E+02 0.  0.
         12    1    1    2    0    0  0.76025136284E+01  0.39349248611E+02 -0.68559581634E+01  0.40659140941E+02  0.00000000000E+00 0. -1.
         11    1    3    3    0    0 -0.23787451294E+01 -0.23457821187E+00 -0.62826895813E+00  0.24714727336E+01  0.51100000000E-03 0. -1.
        -11    1    3    3    0    0 -0.70905173545E+01 -0.25576218941E+02  0.16896875487E+02  0.31463038842E+02  0.51100000000E-03 0.  1.
        -12    1    3    3    0    0  0.18667488555E+01 -0.13538451458E+02 -0.94126483658E+01  0.16594347484E+02  0.00000000000E+00 0.  1.
</event>
<event>
 7    1  0.2973028E-011  0.5052886E+02  0.7816164E-02  0.1300439E+00
        -11   -1    0    0    0    0  0.00000000000E+00  0.00000000000E+00  0.45593999997E+02  0.45594000000E+02  0.51100000000E-03 0. -1.
         11   -1    0    0    0    0 -0.00000000000E+00 -0.00000000000E+00 -0.45593999997E+02  0.45594000000E+02  0.51100000000E-03 0.  1.
    9900012    2    1    2    0    0  0.23658137475E+02 -0.48547304871E+01 -0.32709167713E+02  0.50528861675E+02  0.30000005547E+02 0.  0.
         12    1    1    2    0    0 -0.23658137475E+02  0.48547304871E+01  0.32709167713E+02  0.40659138325E+02  0.00000000000E+00 0. -1.
         11    1    3    3    0    0  0.21695262263E+02 -0.64921129470E+01 -0.31897419169E+02  0.39118758737E+02  0.51100000000E-03 0. -1.
        -11    1    3    3    0    0 -0.25524853534E+01 -0.31598438343E+01 -0.22832961994E+01  0.46597463806E+01  0.51100000000E-03 0.  1.
         12    1    3    3    0    0  0.45153605651E+01  0.47972262942E+01  0.14715476558E+01  0.67503565575E+01  0.00000000000E+00 0. -1.
</event>
<event>
 7    1  0.2973028E-011  0.5052885E+02  0.7816164E-02  0.1300439E+00
        -11   -1    0    0    0    0  0.00000000000E+00  0.00000000000E+00  0.45593999997E+02  0.45594000000E+02  0.51100000000E-03 0.  1.
         11   -1    0    0    0    0 -0.00000000000E+00 -0.00000000000E+00 -0.45593999997E+02  0.45594000000E+02  0.51100000000E-03 0. -1.
    9900012    2    1    2    0    0  0.21348120332E+02  0.33736150294E+02  0.77003959923E+01  0.50528853712E+02  0.29999981344E+02 0.  0.
         12    1    1    2    0    0 -0.21348120332E+02 -0.33736150294E+02 -0.77003959923E+01  0.40659146288E+02  0.00000000000E+00 0. -1.
         11    1    3    3    0    0  0.13983288024E+02  0.24876662197E+02  0.16299296939E+01  0.28583864979E+02  0.51100000000E-03 0. -1.
        -11    1    3    3    0    0 -0.17425522250E+01 -0.28896802505E+01  0.62224881064E+01  0.70785661473E+01  0.51100000000E-03 0.  1.
        -12    1    3    3    0    0  0.91073845328E+01  0.11749168348E+02 -0.15202180798E+00  0.14866422586E+02  0.00000000000E+00 0.  1.
</event>
<event>
 7    1  0.2973028E-011  0.5052885E+02  0.7816164E-02  0.1300439E+00
        -11   -1    0    0    0    0  0.00000000000E+00  0.00000000000E+00  0.45593999997E+02  0.45594000000E+02  0.51100000000E-03 0.  1.
         11   -1    0    0    0    0 -0.00000000000E+00 -0.00000000000E+00 -0.45593999997E+02  0.45594000000E+02  0.51100000000E-03 0. -1.
    9900012    2    1    2    0    0  0.28709152852E+02 -0.13959674614E+02  0.25180910074E+02  0.50528853367E+02  0.29999980294E+02 0.  0.
         12    1    1    2    0    0 -0.28709152852E+02  0.13959674614E+02 -0.25180910074E+02  0.40659146633E+02  0.00000000000E+00 0. -1.
         11    1    3    3    0    0 -0.17042763056E+01  0.41988077011E+01  0.71651218915E+01  0.84778249462E+01  0.51100000000E-03 0. -1.
        -11    1    3    3    0    0  0.22004648646E+02 -0.15914887618E+02  0.70603950210E+01  0.28059532927E+02  0.51100000000E-03 0.  1.
        -12    1    3    3    0    0  0.84087805109E+01 -0.22435946965E+01  0.10955393161E+02  0.13991495494E+02  0.00000000000E+00 0.  1.
</event>
<event>
 7    1  0.2973028E-011  0.5052897E+02  0.7816164E-02  0.1300438E+00
        -11   -1    0    0    0    0  0.00000000000E+00  0.00000000000E+00  0.45593999997E+02  0.45594000000E+02  0.51100000000E-03 0. -1.
         11   -1    0    0    0    0 -0.00000000000E+00 -0.00000000000E+00 -0.45593999997E+02  0.45594000000E+02  0.51100000000E-03 0.  1.
    9900012    2    1    2    0    0 -0.20913516458E+02 -0.47901965840E+00 -0.34864763503E+02  0.50528974378E+02  0.30000348117E+02 0.  0.
         12    1    1    2    0    0  0.20913516458E+02  0.47901965840E+00  0.34864763503E+02  0.40659025622E+02  0.00000000000E+00 0. -1.
         11    1    3    3    0    0  0.52818068516E+01 -0.39932898339E+01  0.43141855357E-01  0.66216092301E+01  0.51100000000E-03 0. -1.
        -11    1    3    3    0    0 -0.69016951782E+01  0.21424589250E+01 -0.10883797977E+02  0.13064477993E+02  0.51100000000E-03 0.  1.
         12    1    3    3    0    0 -0.19293628131E+02  0.13718112505E+01 -0.24024107381E+02  0.30842887154E+02  0.00000000000E+00 0. -1.
</event>
<event>
 7    1  0.2973028E-011  0.5052884E+02  0.7816164E-02  0.1300439E+00
        -11   -1    0    0    0    0  0.00000000000E+00  0.00000000000E+00  0.45593999997E+02  0.45594000000E+02  0.51100000000E-03 0. -1.
         11   -1    0    0    0    0 -0.00000000000E+00 -0.00000000000E+00 -0.45593999997E+02  0.45594000000E+02  0.51100000000E-03 0.  1.
    9900012    2    1    2    0    0  0.19083557740E+02 -0.34626112687E+02 -0.94877431830E+01  0.50528842033E+02  0.29999945844E+02 0.  0.
         12    1    1    2    0    0 -0.19083557740E+02  0.34626112687E+02  0.94877431830E+01  0.40659157967E+02  0.00000000000E+00 0. -1.
         11    1    3    3    0    0  0.16413854514E+01 -0.56450477199E+00  0.66543879679E+00  0.18589300393E+01  0.51100000000E-03 0. -1.
        -11    1    3    3    0    0  0.11181965827E+02  0.41969735086E+00 -0.76108597705E+01  0.13532837557E+02  0.51100000000E-03 0.  1.
        -12    1    3    3    0    0  0.62602064617E+01 -0.34481305266E+02 -0.25423222094E+01  0.35137074437E+02  0.00000000000E+00 0.  1.
</event>
<event>
 7    1  0.2973028E-011  0.5052886E+02  0.7816164E-02  0.1300439E+00
        -11   -1    0    0    0    0  0.00000000000E+00  0.00000000000E+00  0.45593999997E+02  0.45594000000E+02  0.51100000000E-03 0.  1.
         11   -1    0    0    0    0 -0.00000000000E+00 -0.00000000000E+00 -0.45593999997E+02  0.45594000000E+02  0.51100000000E-03 0. -1.
    9900012    2    1    2    0    0  0.46643051192E+01  0.33035039718E+02  0.23239959862E+02  0.50528864178E+02  0.30000013156E+02 0.  0.
         12    1    1    2    0    0 -0.46643051192E+01 -0.33035039718E+02 -0.23239959862E+02  0.40659135822E+02  0.00000000000E+00 0. -1.
         11    1    3    3    0    0  0.56266254720E+01  0.27978379479E+01 -0.30137935790E+01  0.69692010577E+01  0.51100000000E-03 0. -1.
        -11    1    3    3    0    0  0.11197093174E+01  0.26844288108E+02  0.13244028204E+02  0.29954529479E+02  0.51100000000E-03 0.  1.
        -12    1    3    3    0    0 -0.20820296702E+01  0.33929136618E+01  0.13009725237E+02  0.13605133641E+02  0.00000000000E+00 0.  1.
</event>
<event>
 7    1  0.2973028E-011  0.5052885E+02  0.7816164E-02  0.1300439E+00
        -11   -1    0    0    0    0  0.00000000000E+00  0.00000000000E+00  0.45593999997E+02  0.45594000000E+02  0.51100000000E-03 0.  1.
         11   -1    0    0    0    0 -0.00000000000E+00 -0.00000000000E+00 -0.45593999997E+02  0.45594000000E+02  0.51100000000E-03 0. -1.
    9900012    2    1    2    0    0 -0.11237533254E+02  0.15148405225E+02  0.36019579694E+02  0.50528850282E+02  0.29999970916E+02 0.  0.
         12    1    1    2    0    0  0.11237533254E+02 -0.15148405225E+02 -0.36019579694E+02  0.40659149718E+02  0.00000000000E+00 0. -1.
         11    1    3    3    0    0  0.63502421673E+01 -0.38682891559E+01  0.56325817679E+01  0.93281945847E+01  0.51100000000E-03 0. -1.
        -11    1    3    3    0    0 -0.71140275704E+01  0.14730597173E+02  0.20017496546E+02  0.25851499949E+02  0.51100000000E-03 0.  1.
        -12    1    3    3    0    0 -0.10473747851E+02  0.42860972072E+01  0.10369501380E+02  0.15349155748E+02  0.00000000000E+00 0.  1.
</event>
<event>
 7    1  0.2973028E-011  0.5052886E+02  0.7816164E-02  0.1300439E+00
        -11   -1    0    0    0    0  0.00000000000E+00  0.00000000000E+00  0.45593999997E+02  0.45594000000E+02  0.51100000000E-03 0. -1.
         11   -1    0    0    0    0 -0.00000000000E+00 -0.00000000000E+00 -0.45593999997E+02  0.45594000000E+02  0.51100000000E-03 0.  1.
    9900012    2    1    2    0    0 -0.39069264168E+02  0.35921598692E+01  0.10670253573E+02  0.50528864170E+02  0.30000013131E+02 0.  0.
         12    1    1    2    0    0  0.39069264168E+02 -0.35921598692E+01 -0.10670253573E+02  0.40659135830E+02  0.00000000000E+00 0. -1.
         11    1    3    3    0    0 -0.31216937426E+02 -0.63393547565E+01  0.84062090585E+01  0.32944634647E+02  0.51100000000E-03 0. -1.
        -11    1    3    3    0    0  0.79522058648E+00  0.15578524903E+01 -0.37428058345E+01  0.41313285925E+01  0.51100000000E-03 0.  1.
         12    1    3    3    0    0 -0.86475473278E+01  0.83736621354E+01  0.60068503485E+01  0.13452900931E+02  0.00000000000E+00 0. -1.
</event>
<event>
 7    1  0.2973028E-011  0.5052884E+02  0.7816164E-02  0.1300439E+00
        -11   -1    0    0    0    0  0.00000000000E+00  0.00000000000E+00  0.45593999997E+02  0.45594000000E+02  0.51100000000E-03 0. -1.
         11   -1    0    0    0    0 -0.00000000000E+00 -0.00000000000E+00 -0.45593999997E+02  0.45594000000E+02  0.51100000000E-03 0.  1.
    9900012    2    1    2    0    0  0.30664811671E+02 -0.16185553150E+02 -0.21233569524E+02  0.50528840142E+02  0.29999940097E+02 0.  0.
         12    1    1    2    0    0 -0.30664811671E+02  0.16185553150E+02  0.21233569524E+02  0.40659159858E+02  0.00000000000E+00 0. -1.
         11    1    3    3    0    0  0.25580349825E+01 -0.61091265458E+01  0.52821052353E+01  0.84714583221E+01  0.51100000000E-03 0. -1.
        -11    1    3    3    0    0  0.23089589468E+02 -0.13206448715E+02 -0.20159733896E+02  0.33375953927E+02  0.51100000000E-03 0.  1.
         12    1    3    3    0    0  0.50171872202E+01  0.31300221112E+01 -0.63559408628E+01  0.86814278935E+01  0.00000000000E+00 0. -1.
</event>
<event>
 7    1  0.2973028E-011  0.5052886E+02  0.7816164E-02  0.1300439E+00
        -11   -1    0    0    0    0  0.00000000000E+00  0.00000000000E+00  0.45593999997E+02  0.45594000000E+02  0.51100000000E-03 0.  1.
         11   -1    0    0    0    0 -0.00000000000E+00 -0.00000000000E+00 -0.45593999997E+02  0.45594000000E+02  0.51100000000E-03 0. -1.
    9900012    2    1    2    0    0 -0.37550843304E+02  0.14466356312E+02  0.58158714135E+01  0.50528860091E+02  0.30000000733E+02 0.  0.
         12    1    1    2    0    0  0.37550843304E+02 -0.14466356312E+02 -0.58158714135E+01  0.40659139909E+02  0.00000000000E+00 0. -1.
         11    1    3    3    0    0 -0.19819456278E+02  0.12280110738E+02 -0.75591814118E+01  0.24510267048E+02  0.51100000000E-03 0. -1.
        -11    1    3    3    0    0 -0.15754992635E+02  0.43437821009E+01  0.15403839137E+02  0.22458105358E+02  0.51100000000E-03 0.  1.
        -12    1    3    3    0    0 -0.19763943913E+01 -0.21575365263E+01 -0.20287863120E+01  0.35604876846E+01  0.00000000000E+00 0.  1.
</event>
<event>
 7    1  0.2973028E-011  0.5052886E+02  0.7816164E-02  0.1300439E+00
        -11   -1    0    0    0    0  0.00000000000E+00  0.00000000000E+00  0.45593999997E+02  0.45594000000E+02  0.51100000000E-03 0. -1.
         11   -1    0    0    0    0 -0.00000000000E+00 -0.00000000000E+00 -0.45593999997E+02  0.45594000000E+02  0.51100000000E-03 0.  1.
    9900012    2    1    2    0    0  0.11862643028E+02  0.29180789285E+02 -0.25708455491E+02  0.50528862692E+02  0.30000008637E+02 0.  0.
         12    1    1    2    0    0 -0.11862643028E+02 -0.29180789285E+02  0.25708455491E+02  0.40659137308E+02  0.00000000000E+00 0. -1.
         11    1    3    3    0    0  0.75244653224E+01  0.12682405872E+02 -0.96896537442E-01  0.14746877171E+02  0.51100000000E-03 0. -1.
        -11    1    3    3    0    0  0.32117701595E+01  0.13903301722E+01 -0.18883760517E+02  0.19205335120E+02  0.51100000000E-03 0.  1.
        -12    1    3    3    0    0  0.11264075459E+01  0.15108053241E+02 -0.67277984367E+01  0.16576650401E+02  0.00000000000E+00 0.  1.
</event>
<event>
 7    1  0.2973028E-011  0.5052885E+02  0.7816164E-02  0.1300439E+00
        -11   -1    0    0    0    0  0.00000000000E+00  0.00000000000E+00  0.45593999997E+02  0.45594000000E+02  0.51100000000E-03 0.  1.
         11   -1    0    0    0    0 -0.00000000000E+00 -0.00000000000E+00 -0.45593999997E+02  0.45594000000E+02  0.51100000000E-03 0. -1.
    9900012    2    1    2    0    0  0.39828672300E+02 -0.79179356461E+01  0.20369896275E+01  0.50528853811E+02  0.29999981645E+02 0.  0.
         12    1    1    2    0    0 -0.39828672300E+02  0.79179356461E+01 -0.20369896275E+01  0.40659146189E+02  0.00000000000E+00 0. -1.
         11    1    3    3    0    0  0.60943469070E+01 -0.67040888877E+01  0.45465841677E+01  0.10136927537E+02  0.51100000000E-03 0. -1.
        -11    1    3    3    0    0  0.26104811355E+02 -0.48644021866E+01 -0.10690069858E+02  0.28625184337E+02  0.51100000000E-03 0.  1.
        -12    1    3    3    0    0  0.76295140375E+01  0.36505554282E+01  0.81804753177E+01  0.11766741937E+02  0.00000000000E+00 0.  1.
</event>
<event>
 7    1  0.2973028E-011  0.5052885E+02  0.7816164E-02  0.1300439E+00
        -11   -1    0    0    0    0  0.00000000000E+00  0.00000000000E+00  0.45593999997E+02  0.45594000000E+02  0.51100000000E-03 0. -1.
         11   -1    0    0    0    0 -0.00000000000E+00 -0.00000000000E+00 -0.45593999997E+02  0.45594000000E+02  0.51100000000E-03 0.  1.
    9900012    2    1    2    0    0  0.20823662349E+02 -0.14081435951E+02 -0.31957072721E+02  0.50528852826E+02  0.29999978649E+02 0.  0.
         12    1    1    2    0    0 -0.20823662349E+02  0.14081435951E+02  0.31957072721E+02  0.40659147174E+02  0.00000000000E+00 0. -1.
         11    1    3    3    0    0  0.88657240160E+00 -0.13657612635E+02 -0.84387970269E+01  0.16078858449E+02  0.51100000000E-03 0. -1.
        -11    1    3    3    0    0  0.88251939196E+01  0.66264265305E+01 -0.15541916258E+02  0.19061603750E+02  0.51100000000E-03 0.  1.
        -12    1    3    3    0    0  0.11111896027E+02 -0.70502498465E+01 -0.79763594361E+01  0.15388390627E+02  0.00000000000E+00 0.  1.
</event>
<event>
 7    1  0.2973028E-011  0.5052886E+02  0.7816164E-02  0.1300439E+00
        -11   -1    0    0    0    0  0.00000000000E+00  0.00000000000E+00  0.45593999997E+02  0.45594000000E+02  0.51100000000E-03 0.  1.
         11   -1    0    0    0    0 -0.00000000000E+00 -0.00000000000E+00 -0.45593999997E+02  0.45594000000E+02  0.51100000000E-03 0. -1.
    9900012    2    1    2    0    0  0.86077104212E+01  0.39470393508E+02 -0.46001079847E+01  0.50528860365E+02  0.30000001567E+02 0.  0.
         12    1    1    2    0    0 -0.86077104212E+01 -0.39470393508E+02  0.46001079847E+01  0.40659139635E+02  0.00000000000E+00 0. -1.
         11    1    3    3    0    0 -0.49528819160E+01  0.19886437755E+02 -0.13050300149E+02  0.24296332647E+02  0.51100000000E-03 0. -1.
        -11    1    3    3    0    0  0.12493829386E+02  0.19989270160E+02  0.74690944626E+01  0.24727597267E+02  0.51100000000E-03 0.  1.
         12    1    3    3    0    0  0.10667629515E+01 -0.40531440712E+00  0.98109770167E+00  0.15049304514E+01  0.00000000000E+00 0. -1.
</event>
<event>
 7    1  0.2973028E-011  0.5052886E+02  0.7816164E-02  0.1300439E+00
        -11   -1    0    0    0    0  0.00000000000E+00  0.00000000000E+00  0.45593999997E+02  0.45594000000E+02  0.51100000000E-03 0.  1.
         11   -1    0    0    0    0 -0.00000000000E+00 -0.00000000000E+00 -0.45593999997E+02  0.45594000000E+02  0.51100000000E-03 0. -1.
    9900012    2    1    2    0    0 -0.24211551630E+01  0.27020096037E+02  0.30285608166E+02  0.50528860263E+02  0.30000001254E+02 0.  0.
         12    1    1    2    0    0  0.24211551630E+01 -0.27020096037E+02 -0.30285608166E+02  0.40659139737E+02  0.00000000000E+00 0. -1.
         11    1    3    3    0    0  0.94514498058E+01  0.17016204755E+02  0.71358834763E+01  0.20731665658E+02  0.51100000000E-03 0. -1.
        -11    1    3    3    0    0 -0.88434950796E+01  0.11760282953E+02  0.15434188461E+02  0.21324301491E+02  0.51100000000E-03 0.  1.
         12    1    3    3    0    0 -0.30291098892E+01 -0.17563916709E+01  0.77155362288E+01  0.84728931139E+01  0.00000000000E+00 0. -1.
</event>
<event>
 7    1  0.2973028E-011  0.5052886E+02  0.7816164E-02  0.1300439E+00
        -11   -1    0    0    0    0  0.00000000000E+00  0.00000000000E+00  0.45593999997E+02  0.45594000000E+02  0.51100000000E-03 0.  1.
         11   -1    0    0    0    0 -0.00000000000E+00 -0.00000000000E+00 -0.45593999997E+02  0.45594000000E+02  0.51100000000E-03 0. -1.
    9900012    2    1    2    0    0 -0.23328466625E+02  0.37003469171E+01  0.33094653127E+02  0.50528856035E+02  0.29999988403E+02 0.  0.
         12    1    1    2    0    0  0.23328466625E+02 -0.37003469171E+01 -0.33094653127E+02  0.40659143965E+02  0.00000000000E+00 0. -1.
         11    1    3    3    0    0  0.27475036045E+01 -0.78808811924E+00 -0.84167414053E+00  0.29796433613E+01  0.51100000000E-03 0. -1.
        -11    1    3    3    0    0 -0.23285166490E+02 -0.44404444392E+01  0.21623243489E+02  0.32085529208E+02  0.51100000000E-03 0.  1.
        -12    1    3    3    0    0 -0.27908037399E+01  0.89288794755E+01  0.12313083778E+02  0.15463683466E+02  0.00000000000E+00 0.  1.
</event>
<event>
 7    1  0.2973028E-011  0.5052885E+02  0.7816164E-02  0.1300439E+00
        -11   -1    0    0    0    0  0.00000000000E+00  0.00000000000E+00  0.45593999997E+02  0.45594000000E+02  0.51100000000E-03 0.  1.
         11   -1    0    0    0    0 -0.00000000000E+00 -0.00000000000E+00 -0.45593999997E+02  0.45594000000E+02  0.51100000000E-03 0. -1.
    9900012    2    1    2    0    0 -0.21723318999E+01  0.26567972169E+02  0.30701627938E+02  0.50528854299E+02  0.29999983129E+02 0.  0.
         12    1    1    2    0    0  0.21723318999E+01 -0.26567972169E+02 -0.30701627938E+02  0.40659145701E+02  0.00000000000E+00 0. -1.
         11    1    3    3    0    0  0.53177629399E+01  0.26566914191E+02  0.23502063604E+02  0.35866788624E+02  0.51100000000E-03 0. -1.
        -11    1    3    3    0    0 -0.36856478716E+01 -0.21000026049E+01  0.90064101136E+01  0.99553721462E+01  0.51100000000E-03 0.  1.
         12    1    3    3    0    0 -0.38044469681E+01  0.21010605830E+01 -0.18068457794E+01  0.47066935292E+01  0.00000000000E+00 0. -1.
</event>
<event>
 7    1  0.2973028E-011  0.5052883E+02  0.7816164E-02  0.1300439E+00
        -11   -1    0    0    0    0  0.00000000000E+00  0.00000000000E+00  0.45593999997E+02  0.45594000000E+02  0.51100000000E-03 0.  1.
         11   -1    0    0    0    0 -0.00000000000E+00 -0.00000000000E+00 -0.45593999997E+02  0.45594000000E+02  0.51100000000E-03 0. -1.
    9900012    2    1    2    0    0  0.12774675159E+02 -0.22572732633E+02  0.31312100685E+02  0.50528828424E+02  0.29999904478E+02 0.  0.
         12    1    1    2    0    0 -0.12774675159E+02  0.22572732633E+02 -0.31312100685E+02  0.40659171576E+02  0.00000000000E+00 0. -1.
         11    1    3    3    0    0  0.40626413413E+01  0.26724817492E+01  0.13061820535E+02  0.13937660109E+02  0.51100000000E-03 0. -1.
        -11    1    3    3    0    0  0.28037337394E+01 -0.16176019224E+02  0.12854410880E+01  0.16467449101E+02  0.51100000000E-03 0.  1.
        -12    1    3    3    0    0  0.59083000784E+01 -0.90691951575E+01  0.16964839063E+02  0.20123719215E+02  0.00000000000E+00 0.  1.
</event>
<event>
 7    1  0.2973028E-011  0.5052886E+02  0.7816164E-02  0.1300439E+00
        -11   -1    0    0    0    0  0.00000000000E+00  0.00000000000E+00  0.45593999997E+02  0.45594000000E+02  0.51100000000E-03 0.  1.
         11   -1    0    0    0    0 -0.00000000000E+00 -0.00000000000E+00 -0.45593999997E+02  0.45594000000E+02  0.51100000000E-03 0. -1.
    9900012    2    1    2    0    0  0.35808132751E+01 -0.14697367857E+01  0.40474477910E+02  0.50528859429E+02  0.29999998719E+02 0.  0.
         12    1    1    2    0    0 -0.35808132751E+01  0.14697367857E+01 -0.40474477910E+02  0.40659140571E+02  0.00000000000E+00 0. -1.
         11    1    3    3    0    0  0.10513846321E+02  0.55212850374E+01  0.28915618028E+02  0.31259214948E+02  0.51100000000E-03 0. -1.
        -11    1    3    3    0    0 -0.78384833206E+01 -0.88637095163E-01  0.34003249166E+01  0.85446993571E+01  0.51100000000E-03 0.  1.
         12    1    3    3    0    0  0.90545027444E+00 -0.69023847280E+01  0.81585349647E+01  0.10724945124E+02  0.00000000000E+00 0. -1.
</event>
<event>
 7    1  0.2973028E-011  0.5052887E+02  0.7816164E-02  0.1300439E+00
        -11   -1    0    0    0    0  0.00000000000E+00  0.00000000000E+00  0.45593999997E+02  0.45594000000E+02  0.51100000000E-03 0.  1.
         11   -1    0    0    0    0 -0.00000000000E+00 -0.00000000000E+00 -0.45593999997E+02  0.45594000000E+02  0.51100000000E-03 0. -1.
    9900012    2    1    2    0    0  0.66166304447E+01 -0.28013909031E+02  0.28715959853E+02  0.50528865135E+02  0.30000016066E+02 0.  0.
         12    1    1    2    0    0 -0.66166304447E+01  0.28013909031E+02 -0.28715959853E+02  0.40659134865E+02  0.00000000000E+00 0. -1.
         11    1    3    3    0    0 -0.57776257745E+01 -0.64901044259E+00 -0.22447226716E+01  0.62322511405E+01  0.51100000000E-03 0. -1.
        -11    1    3    3    0    0  0.90579424330E+01 -0.26803945686E+02  0.27437789527E+02  0.39412309243E+02  0.51100000000E-03 0.  1.
        -12    1    3    3    0    0  0.33363137861E+01 -0.56095290247E+00  0.35228929976E+01  0.48843047520E+01  0.00000000000E+00 0.  1.
</event>
<event>
 7    1  0.2973028E-011  0.5052886E+02  0.7816164E-02  0.1300439E+00
        -11   -1    0    0    0    0  0.00000000000E+00  0.00000000000E+00  0.45593999997E+02  0.45594000000E+02  0.51100000000E-03 0. -1.
         11   -1    0    0    0    0 -0.00000000000E+00 -0.00000000000E+00 -0.45593999997E+02  0.45594000000E+02  0.51100000000E-03 0.  1.
    9900012    2    1    2    0    0  0.36286358984E+02 -0.10620651717E+02 -0.14955521125E+02  0.50528859536E+02  0.29999999045E+02 0.  0.
         12    1    1    2    0    0 -0.36286358984E+02  0.10620651717E+02  0.14955521125E+02  0.40659140464E+02  0.00000000000E+00 0. -1.
         11    1    3    3    0    0  0.26603719897E+02 -0.86984399560E+01 -0.90220609320E+01  0.29407794098E+02  0.51100000000E-03 0. -1.
        -11    1    3    3    0    0  0.14817756715E+02 -0.92984035605E-01 -0.44421929786E+01  0.15469571385E+02  0.51100000000E-03 0.  1.
         12    1    3    3    0    0 -0.51351176281E+01 -0.18292277251E+01 -0.14912672143E+01  0.56514940529E+01  0.00000000000E+00 0. -1.
</event>
<event>
 7    1  0.2973028E-011  0.5052886E+02  0.7816164E-02  0.1300439E+00
        -11   -1    0    0    0    0  0.00000000000E+00  0.00000000000E+00  0.45593999997E+02  0.45594000000E+02  0.51100000000E-03 0. -1.
         11   -1    0    0    0    0 -0.00000000000E+00 -0.00000000000E+00 -0.45593999997E+02  0.45594000000E+02  0.51100000000E-03 0.  1.
    9900012    2    1    2    0    0  0.64930216988E+01  0.10126061233E+02 -0.38839014936E+02  0.50528861691E+02  0.30000005595E+02 0.  0.
         12    1    1    2    0    0 -0.64930216988E+01 -0.10126061233E+02  0.38839014936E+02  0.40659138309E+02  0.00000000000E+00 0. -1.
         11    1    3    3    0    0  0.22587641324E+01  0.10802271216E+02 -0.35100193164E+02  0.36794220188E+02  0.51100000000E-03 0.  1.
        -11    1    3    3    0    0  0.34658408665E+01 -0.48016324122E+01  0.23237606998E+01  0.63614142126E+01  0.51100000000E-03 0. -1.
         12    1    3    3    0    0  0.76841669987E+00  0.41254224289E+01 -0.60625824718E+01  0.73732272899E+01  0.00000000000E+00 0. -1.
</event>
<event>
 7    1  0.2973028E-011  0.5052885E+02  0.7816164E-02  0.1300439E+00
        -11   -1    0    0    0    0  0.00000000000E+00  0.00000000000E+00  0.45593999997E+02  0.45594000000E+02  0.51100000000E-03 0.  1.
         11   -1    0    0    0    0 -0.00000000000E+00 -0.00000000000E+00 -0.45593999997E+02  0.45594000000E+02  0.51100000000E-03 0. -1.
    9900012    2    1    2    0    0 -0.39011042902E+01  0.56705375280E+01  0.40072350030E+02  0.50528845466E+02  0.29999956277E+02 0.  0.
         12    1    1    2    0    0  0.39011042902E+01 -0.56705375280E+01 -0.40072350030E+02  0.40659154534E+02  0.00000000000E+00 0. -1.
         11    1    3    3    0    0  0.11880597837E+02  0.16818138666E+01  0.19964539345E+02  0.23292915970E+02  0.51100000000E-03 0. -1.
        -11    1    3    3    0    0 -0.92969393961E+01  0.63169132164E+01  0.10269887305E+02  0.15225211336E+02  0.51100000000E-03 0.  1.
        -12    1    3    3    0    0 -0.64847627312E+01 -0.23281895549E+01  0.98379233801E+01  0.12010718160E+02  0.00000000000E+00 0.  1.
</event>
<event>
 7    1  0.2973028E-011  0.5052886E+02  0.7816164E-02  0.1300439E+00
        -11   -1    0    0    0    0  0.00000000000E+00  0.00000000000E+00  0.45593999997E+02  0.45594000000E+02  0.51100000000E-03 0.  1.
         11   -1    0    0    0    0 -0.00000000000E+00 -0.00000000000E+00 -0.45593999997E+02  0.45594000000E+02  0.51100000000E-03 0. -1.
    9900012    2    1    2    0    0 -0.17547001026E+02  0.21595647234E+02  0.29646184140E+02  0.50528862546E+02  0.30000008194E+02 0.  0.
         12    1    1    2    0    0  0.17547001026E+02 -0.21595647234E+02 -0.29646184140E+02  0.40659137454E+02  0.00000000000E+00 0. -1.
         11    1    3    3    0    0 -0.12675630253E+02  0.14827832028E+02  0.28805352870E+01  0.19718866316E+02  0.51100000000E-03 0. -1.
        -11    1    3    3    0    0 -0.30557477637E+00 -0.37320670846E+01  0.54243326571E+01  0.65912886224E+01  0.51100000000E-03 0.  1.
         12    1    3    3    0    0 -0.45657959959E+01  0.10499882291E+02  0.21341316196E+02  0.24218707608E+02  0.00000000000E+00 0. -1.
</event>
<event>
 7    1  0.2973028E-011  0.5052885E+02  0.7816164E-02  0.1300439E+00
        -11   -1    0    0    0    0  0.00000000000E+00  0.00000000000E+00  0.45593999997E+02  0.45594000000E+02  0.51100000000E-03 0. -1.
         11   -1    0    0    0    0 -0.00000000000E+00 -0.00000000000E+00 -0.45593999997E+02  0.45594000000E+02  0.51100000000E-03 0.  1.
    9900012    2    1    2    0    0 -0.11956713890E+02 -0.37022727422E+02  0.11811902947E+02  0.50528850918E+02  0.29999972851E+02 0.  0.
         12    1    1    2    0    0  0.11956713890E+02  0.37022727422E+02 -0.11811902947E+02  0.40659149082E+02  0.00000000000E+00 0. -1.
         11    1    3    3    0    0  0.63915873994E+00 -0.64901799221E+00  0.20816961317E+01  0.22722691950E+01  0.51100000000E-03 0. -1.
        -11    1    3    3    0    0  0.55305139692E+01 -0.24179975955E+02  0.90373992155E+01  0.26399477396E+02  0.51100000000E-03 0.  1.
        -12    1    3    3    0    0 -0.18126386599E+02 -0.12193733475E+02  0.69280759960E+00  0.21857104327E+02  0.00000000000E+00 0.  1.
</event>
<event>
 7    1  0.2973028E-011  0.5052886E+02  0.7816164E-02  0.1300439E+00
        -11   -1    0    0    0    0  0.00000000000E+00  0.00000000000E+00  0.45593999997E+02  0.45594000000E+02  0.51100000000E-03 0.  1.
         11   -1    0    0    0    0 -0.00000000000E+00 -0.00000000000E+00 -0.45593999997E+02  0.45594000000E+02  0.51100000000E-03 0. -1.
    9900012    2    1    2    0    0 -0.34526716229E+02 -0.26449427333E+01  0.21309057219E+02  0.50528858652E+02  0.29999996358E+02 0.  0.
         12    1    1    2    0    0  0.34526716229E+02  0.26449427333E+01 -0.21309057219E+02  0.40659141348E+02  0.00000000000E+00 0. -1.
         11    1    3    3    0    0 -0.47746272419E+01  0.28287009100E+01 -0.35280699550E+01  0.65761608866E+01  0.51100000000E-03 0. -1.
        -11    1    3    3    0    0 -0.27366323768E+02 -0.50850351806E+01  0.28322813972E+02  0.39710893354E+02  0.51100000000E-03 0.  1.
        -12    1    3    3    0    0 -0.23857652185E+01 -0.38860846275E+00 -0.34856867977E+01  0.42418044117E+01  0.00000000000E+00 0.  1.
</event>
<event>
 7    1  0.2973028E-011  0.5052887E+02  0.7816164E-02  0.1300439E+00
        -11   -1    0    0    0    0  0.00000000000E+00  0.00000000000E+00  0.45593999997E+02  0.45594000000E+02  0.51100000000E-03 0.  1.
         11   -1    0    0    0    0 -0.00000000000E+00 -0.00000000000E+00 -0.45593999997E+02  0.45594000000E+02  0.51100000000E-03 0. -1.
    9900012    2    1    2    0    0  0.12223543606E+02  0.57866625491E+01  0.38344031651E+02  0.50528865171E+02  0.30000016174E+02 0.  0.
         12    1    1    2    0    0 -0.12223543606E+02 -0.57866625491E+01 -0.38344031651E+02  0.40659134829E+02  0.00000000000E+00 0. -1.
         11    1    3    3    0    0 -0.61848488291E+01  0.38460260969E+01  0.21324880346E+01  0.75889246442E+01  0.51100000000E-03 0. -1.
        -11    1    3    3    0    0  0.18318476887E+02 -0.26238935313E+01  0.28634827233E+02  0.34094057307E+02  0.51100000000E-03 0.  1.
        -12    1    3    3    0    0  0.89915548180E-01  0.45645299835E+01  0.75767163843E+01  0.88458832201E+01  0.00000000000E+00 0.  1.
</event>
<event>
 7    1  0.2973028E-011  0.5052885E+02  0.7816164E-02  0.1300439E+00
        -11   -1    0    0    0    0  0.00000000000E+00  0.00000000000E+00  0.45593999997E+02  0.45594000000E+02  0.51100000000E-03 0. -1.
         11   -1    0    0    0    0 -0.00000000000E+00 -0.00000000000E+00 -0.45593999997E+02  0.45594000000E+02  0.51100000000E-03 0.  1.
    9900012    2    1    2    0    0  0.12737140081E+02  0.27937162412E+02 -0.26654205058E+02  0.50528850620E+02  0.29999971944E+02 0.  0.
         12    1    1    2    0    0 -0.12737140081E+02 -0.27937162412E+02  0.26654205058E+02  0.40659149380E+02  0.00000000000E+00 0. -1.
         11    1    3    3    0    0 -0.31144729488E+01 -0.23382725684E+01 -0.70520348537E+01  0.80559702204E+01  0.51100000000E-03 0. -1.
        -11    1    3    3    0    0  0.16128501351E+02  0.31153013217E+02 -0.15646547110E+02  0.38411628774E+02  0.51100000000E-03 0.  1.
        -12    1    3    3    0    0 -0.27688832139E+00 -0.87757823688E+00 -0.39556230942E+01  0.40612516257E+01  0.00000000000E+00 0.  1.
</event>
<event>
 7    1  0.2973028E-011  0.5052886E+02  0.7816164E-02  0.1300439E+00
        -11   -1    0    0    0    0  0.00000000000E+00  0.00000000000E+00  0.45593999997E+02  0.45594000000E+02  0.51100000000E-03 0.  1.
         11   -1    0    0    0    0 -0.00000000000E+00 -0.00000000000E+00 -0.45593999997E+02  0.45594000000E+02  0.51100000000E-03 0. -1.
    9900012    2    1    2    0    0  0.30831440663E+02  0.15241516908E+02  0.21686039326E+02  0.50528857453E+02  0.29999992713E+02 0.  0.
         12    1    1    2    0    0 -0.30831440663E+02 -0.15241516908E+02 -0.21686039326E+02  0.40659142547E+02  0.00000000000E+00 0. -1.
         11    1    3    3    0    0 -0.79722976006E+00  0.11481033609E+01 -0.31944676266E+01  0.34868811703E+01  0.51100000000E-03 0. -1.
        -11    1    3    3    0    0  0.32381508255E+02  0.77889936312E+01  0.18770634721E+02  0.38230448948E+02  0.51100000000E-03 0.  1.
         12    1    3    3    0    0 -0.75283783190E+00  0.63044199160E+01  0.61098722314E+01  0.88115273342E+01  0.00000000000E+00 0. -1.
</event>
<event>
 7    1  0.2973028E-011  0.5052886E+02  0.7816164E-02  0.1300439E+00
        -11   -1    0    0    0    0  0.00000000000E+00  0.00000000000E+00  0.45593999997E+02  0.45594000000E+02  0.51100000000E-03 0. -1.
         11   -1    0    0    0    0 -0.00000000000E+00 -0.00000000000E+00 -0.45593999997E+02  0.45594000000E+02  0.51100000000E-03 0.  1.
    9900012    2    1    2    0    0 -0.22864250607E+02  0.27820668523E+02  0.18878616572E+02  0.50528859372E+02  0.29999998548E+02 0.  0.
         12    1    1    2    0    0  0.22864250607E+02 -0.27820668523E+02 -0.18878616572E+02  0.40659140628E+02  0.00000000000E+00 0. -1.
         11    1    3    3    0    0 -0.15952699341E+02  0.48857377945E+00  0.95217464002E+01  0.18584697344E+02  0.51100000000E-03 0. -1.
        -11    1    3    3    0    0 -0.97278892806E+01  0.19667992016E+02  0.43596265522E+01  0.22371143997E+02  0.51100000000E-03 0.  1.
         12    1    3    3    0    0  0.28163380145E+01  0.76641027276E+01  0.49972436198E+01  0.95730180312E+01  0.00000000000E+00 0. -1.
</event>
<event>
 7    1  0.2973028E-011  0.5052886E+02  0.7816164E-02  0.1300439E+00
        -11   -1    0    0    0    0  0.00000000000E+00  0.00000000000E+00  0.45593999997E+02  0.45594000000E+02  0.51100000000E-03 0.  1.
         11   -1    0    0    0    0 -0.00000000000E+00 -0.00000000000E+00 -0.45593999997E+02  0.45594000000E+02  0.51100000000E-03 0. -1.
    9900012    2    1    2    0    0  0.76052746838E+01  0.36101062848E+02  0.17089130028E+02  0.50528864411E+02  0.30000013863E+02 0.  0.
         12    1    1    2    0    0 -0.76052746838E+01 -0.36101062848E+02 -0.17089130028E+02  0.40659135589E+02  0.00000000000E+00 0. -1.
         11    1    3    3    0    0 -0.26758199344E+01  0.20133650979E+02  0.16461541660E+01  0.20377284850E+02  0.51100000000E-03 0. -1.
        -11    1    3    3    0    0  0.75337188481E+01  0.84889365948E+01  0.18428662137E+02  0.21643348923E+02  0.51100000000E-03 0.  1.
        -12    1    3    3    0    0  0.27473757700E+01  0.74784752741E+01 -0.29856862753E+01  0.85082306376E+01  0.00000000000E+00 0.  1.
</event>
<event>
 7    1  0.2973028E-011  0.5052889E+02  0.7816164E-02  0.1300439E+00
        -11   -1    0    0    0    0  0.00000000000E+00  0.00000000000E+00  0.45593999997E+02  0.45594000000E+02  0.51100000000E-03 0.  1.
         11   -1    0    0    0    0 -0.00000000000E+00 -0.00000000000E+00 -0.45593999997E+02  0.45594000000E+02  0.51100000000E-03 0. -1.
    9900012    2    1    2    0    0 -0.19025593763E+02 -0.35298056471E+02  0.67258426193E+01  0.50528893177E+02  0.30000101301E+02 0.  0.
         12    1    1    2    0    0  0.19025593763E+02  0.35298056471E+02 -0.67258426193E+01  0.40659106823E+02  0.00000000000E+00 0. -1.
         11    1    3    3    0    0 -0.40074479626E+01  0.16740005375E+01 -0.45236227948E+01  0.62709712504E+01  0.51100000000E-03 0. -1.
        -11    1    3    3    0    0 -0.45275692836E+01 -0.24957457828E+02  0.12464033655E+02  0.28261735970E+02  0.51100000000E-03 0.  1.
        -12    1    3    3    0    0 -0.10490576517E+02 -0.12014599181E+02 -0.12145682405E+01  0.15996185957E+02  0.00000000000E+00 0.  1.
</event>
<event>
 7    1  0.2973028E-011  0.5052885E+02  0.7816164E-02  0.1300439E+00
        -11   -1    0    0    0    0  0.00000000000E+00  0.00000000000E+00  0.45593999997E+02  0.45594000000E+02  0.51100000000E-03 0.  1.
         11   -1    0    0    0    0 -0.00000000000E+00 -0.00000000000E+00 -0.45593999997E+02  0.45594000000E+02  0.51100000000E-03 0. -1.
    9900012    2    1    2    0    0 -0.85282538631E+00  0.27841703436E+02  0.29618891252E+02  0.50528849980E+02  0.29999970000E+02 0.  0.
         12    1    1    2    0    0  0.85282538631E+00 -0.27841703436E+02 -0.29618891252E+02  0.40659150020E+02  0.00000000000E+00 0. -1.
         11    1    3    3    0    0 -0.34097762820E+00  0.18125629190E+02  0.18079581080E+01  0.18218765383E+02  0.51100000000E-03 0. -1.
        -11    1    3    3    0    0  0.58539189148E+01  0.16084750383E+01  0.89223627451E+01  0.10791854142E+02  0.51100000000E-03 0.  1.
         12    1    3    3    0    0 -0.63657666729E+01  0.81075992072E+01  0.18888570399E+02  0.21518230456E+02  0.00000000000E+00 0. -1.
</event>
<event>
 7    1  0.2973028E-011  0.5052886E+02  0.7816164E-02  0.1300439E+00
        -11   -1    0    0    0    0  0.00000000000E+00  0.00000000000E+00  0.45593999997E+02  0.45594000000E+02  0.51100000000E-03 0. -1.
         11   -1    0    0    0    0 -0.00000000000E+00 -0.00000000000E+00 -0.45593999997E+02  0.45594000000E+02  0.51100000000E-03 0.  1.
    9900012    2    1    2    0    0 -0.10663111922E+02 -0.44374681501E+01 -0.38984264075E+02  0.50528856811E+02  0.29999990762E+02 0.  0.
         12    1    1    2    0    0  0.10663111922E+02  0.44374681501E+01  0.38984264075E+02  0.40659143189E+02  0.00000000000E+00 0. -1.
         11    1    3    3    0    0  0.32549308098E+01 -0.10102972418E+02 -0.40906429442E+01  0.11375323565E+02  0.51100000000E-03 0. -1.
        -11    1    3    3    0    0 -0.13359638386E+02  0.71012571045E+01 -0.25628228781E+02  0.29760945902E+02  0.51100000000E-03 0.  1.
         12    1    3    3    0    0 -0.55840434524E+00 -0.14357528370E+01 -0.92653923499E+01  0.93925873442E+01  0.00000000000E+00 0. -1.
</event>
<event>
 7    1  0.2973028E-011  0.5052886E+02  0.7816164E-02  0.1300439E+00
        -11   -1    0    0    0    0  0.00000000000E+00  0.00000000000E+00  0.45593999997E+02  0.45594000000E+02  0.51100000000E-03 0. -1.
         11   -1    0    0    0    0 -0.00000000000E+00 -0.00000000000E+00 -0.45593999997E+02  0.45594000000E+02  0.51100000000E-03 0.  1.
    9900012    2    1    2    0    0  0.68294286250E+01 -0.39997205099E+02 -0.25976992263E+01  0.50528861392E+02  0.30000004686E+02 0.  0.
         12    1    1    2    0    0 -0.68294286250E+01  0.39997205099E+02  0.25976992263E+01  0.40659138608E+02  0.00000000000E+00 0. -1.
         11    1    3    3    0    0 -0.11524833154E+01  0.59854006861E+00  0.26208545043E+01  0.29249524098E+01  0.51100000000E-03 0. -1.
        -11    1    3    3    0    0  0.15585282861E+02 -0.28875727790E+02 -0.69058210677E+01  0.33532060214E+02  0.51100000000E-03 0.  1.
        -12    1    3    3    0    0 -0.76033709208E+01 -0.11720017378E+02  0.16872673371E+01  0.14071848768E+02  0.00000000000E+00 0.  1.
</event>
<event>
 7    1  0.2973028E-011  0.5052885E+02  0.7816164E-02  0.1300439E+00
        -11   -1    0    0    0    0  0.00000000000E+00  0.00000000000E+00  0.45593999997E+02  0.45594000000E+02  0.51100000000E-03 0. -1.
         11   -1    0    0    0    0 -0.00000000000E+00 -0.00000000000E+00 -0.45593999997E+02  0.45594000000E+02  0.51100000000E-03 0.  1.
    9900012    2    1    2    0    0 -0.47836338572E+01 -0.29557733533E+02 -0.27506794468E+02  0.50528849660E+02  0.29999969025E+02 0.  0.
         12    1    1    2    0    0  0.47836338572E+01  0.29557733533E+02  0.27506794468E+02  0.40659150340E+02  0.00000000000E+00 0. -1.
         11    1    3    3    0    0 -0.64715761570E+01 -0.22500667719E+01  0.39906407348E+01  0.79290170999E+01  0.51100000000E-03 0. -1.
        -11    1    3    3    0    0  0.27457436071E+01 -0.22727886997E+02 -0.20865509356E+02  0.30975239083E+02  0.51100000000E-03 0.  1.
        -12    1    3    3    0    0 -0.10578013073E+01 -0.45797797647E+01 -0.10631925846E+02  0.11624593477E+02  0.00000000000E+00 0.  1.
</event>
<event>
 7    1  0.2973028E-011  0.5052889E+02  0.7816164E-02  0.1300439E+00
        -11   -1    0    0    0    0  0.00000000000E+00  0.00000000000E+00  0.45593999997E+02  0.45594000000E+02  0.51100000000E-03 0.  1.
         11   -1    0    0    0    0 -0.00000000000E+00 -0.00000000000E+00 -0.45593999997E+02  0.45594000000E+02  0.51100000000E-03 0. -1.
    9900012    2    1    2    0    0 -0.20754906066E+01 -0.23693713666E+02  0.32976712254E+02  0.50528889340E+02  0.30000089639E+02 0.  0.
         12    1    1    2    0    0  0.20754906066E+01  0.23693713666E+02 -0.32976712254E+02  0.40659110660E+02  0.00000000000E+00 0. -1.
         11    1    3    3    0    0 -0.96327089639E+01 -0.14500895868E+02  0.10521338362E+02  0.20341180500E+02  0.51100000000E-03 0.  1.
        -11    1    3    3    0    0 -0.60659332662E+00  0.42863329915E+01  0.60544627981E+01  0.74429245604E+01  0.51100000000E-03 0. -1.
         12    1    3    3    0    0  0.81638116839E+01 -0.13479150790E+02  0.16400911094E+02  0.22744784280E+02  0.00000000000E+00 0. -1.
</event>
<event>
 7    1  0.2973028E-011  0.5052886E+02  0.7816164E-02  0.1300439E+00
        -11   -1    0    0    0    0  0.00000000000E+00  0.00000000000E+00  0.45593999997E+02  0.45594000000E+02  0.51100000000E-03 0.  1.
         11   -1    0    0    0    0 -0.00000000000E+00 -0.00000000000E+00 -0.45593999997E+02  0.45594000000E+02  0.51100000000E-03 0. -1.
    9900012    2    1    2    0    0  0.41023661355E+01  0.40004479420E+02 -0.59981508797E+01  0.50528860861E+02  0.30000003073E+02 0.  0.
         12    1    1    2    0    0 -0.41023661355E+01 -0.40004479420E+02  0.59981508797E+01  0.40659139139E+02  0.00000000000E+00 0. -1.
         11    1    3    3    0    0 -0.99029413399E+01  0.12065947064E+02  0.57707614843E+01  0.16642025541E+02  0.51100000000E-03 0. -1.
        -11    1    3    3    0    0  0.78871153003E+01  0.16382097925E+02 -0.38026609813E+01  0.18575251034E+02  0.51100000000E-03 0.  1.
         12    1    3    3    0    0  0.61181921751E+01  0.11556434431E+02 -0.79662513827E+01  0.15311584286E+02  0.00000000000E+00 0. -1.
</event>
<event>
 7    1  0.2973028E-011  0.5052886E+02  0.7816164E-02  0.1300439E+00
        -11   -1    0    0    0    0  0.00000000000E+00  0.00000000000E+00  0.45593999997E+02  0.45594000000E+02  0.51100000000E-03 0.  1.
         11   -1    0    0    0    0 -0.00000000000E+00 -0.00000000000E+00 -0.45593999997E+02  0.45594000000E+02  0.51100000000E-03 0. -1.
    9900012    2    1    2    0    0 -0.35361274171E+02  0.66869913911E+01  0.18921688065E+02  0.50528857804E+02  0.29999993782E+02 0.  0.
         12    1    1    2    0    0  0.35361274171E+02 -0.66869913911E+01 -0.18921688065E+02  0.40659142196E+02  0.00000000000E+00 0. -1.
         11    1    3    3    0    0 -0.32656857068E+02  0.48197926390E+01  0.18325382778E+02  0.37756064002E+02  0.51100000000E-03 0. -1.
        -11    1    3    3    0    0  0.22055910081E+01  0.15647214206E+01  0.53104578960E+01  0.59593580313E+01  0.51100000000E-03 0.  1.
         12    1    3    3    0    0 -0.49100081108E+01  0.30247733158E+00 -0.47141526096E+01  0.68134357714E+01  0.00000000000E+00 0. -1.
</event>
<event>
 7    1  0.2973028E-011  0.5052884E+02  0.7816164E-02  0.1300439E+00
        -11   -1    0    0    0    0  0.00000000000E+00  0.00000000000E+00  0.45593999997E+02  0.45594000000E+02  0.51100000000E-03 0.  1.
         11   -1    0    0    0    0 -0.00000000000E+00 -0.00000000000E+00 -0.45593999997E+02  0.45594000000E+02  0.51100000000E-03 0. -1.
    9900012    2    1    2    0    0 -0.29884719217E+02  0.19681001604E+02  0.19306190497E+02  0.50528840413E+02  0.29999940920E+02 0.  0.
         12    1    1    2    0    0  0.29884719217E+02 -0.19681001604E+02 -0.19306190497E+02  0.40659159587E+02  0.00000000000E+00 0. -1.
         11    1    3    3    0    0 -0.65122337377E+01 -0.51670199480E+01  0.51843641695E+01  0.97971891633E+01  0.51100000000E-03 0. -1.
        -11    1    3    3    0    0 -0.23945367955E+02  0.25792344408E+02  0.10178299256E+02  0.36636367896E+02  0.51100000000E-03 0.  1.
         12    1    3    3    0    0  0.57288247566E+00 -0.94432285645E+00  0.39435270715E+01  0.40952833543E+01  0.00000000000E+00 0. -1.
</event>
<event>
 7    1  0.2973028E-011  0.5052887E+02  0.7816164E-02  0.1300439E+00
        -11   -1    0    0    0    0  0.00000000000E+00  0.00000000000E+00  0.45593999997E+02  0.45594000000E+02  0.51100000000E-03 0. -1.
         11   -1    0    0    0    0 -0.00000000000E+00 -0.00000000000E+00 -0.45593999997E+02  0.45594000000E+02  0.51100000000E-03 0.  1.
    9900012    2    1    2    0    0 -0.67865571986E+01  0.22035474345E+02 -0.33489486951E+02  0.50528865424E+02  0.30000016944E+02 0.  0.
         12    1    1    2    0    0  0.67865571986E+01 -0.22035474345E+02  0.33489486951E+02  0.40659134576E+02  0.00000000000E+00 0. -1.
         11    1    3    3    0    0 -0.25838027020E+01  0.11226260342E+02  0.27283212450E+01  0.11838441399E+02  0.51100000000E-03 0. -1.
        -11    1    3    3    0    0  0.55302130890E+00  0.79826399277E+01 -0.23376339753E+02  0.24707926527E+02  0.51100000000E-03 0.  1.
         12    1    3    3    0    0 -0.47557758054E+01  0.28265740748E+01 -0.12841468443E+02  0.13982497498E+02  0.00000000000E+00 0. -1.
</event>
<event>
 7    1  0.2973028E-011  0.5052886E+02  0.7816164E-02  0.1300439E+00
        -11   -1    0    0    0    0  0.00000000000E+00  0.00000000000E+00  0.45593999997E+02  0.45594000000E+02  0.51100000000E-03 0.  1.
         11   -1    0    0    0    0 -0.00000000000E+00 -0.00000000000E+00 -0.45593999997E+02  0.45594000000E+02  0.51100000000E-03 0. -1.
    9900012    2    1    2    0    0  0.13310107920E+02  0.35276393773E+02  0.15217833363E+02  0.50528863478E+02  0.30000011027E+02 0.  0.
         12    1    1    2    0    0 -0.13310107920E+02 -0.35276393773E+02 -0.15217833363E+02  0.40659136522E+02  0.00000000000E+00 0. -1.
         11    1    3    3    0    0  0.12828152021E+02  0.20739409001E+01 -0.18288277667E+00  0.12996005598E+02  0.51100000000E-03 0. -1.
        -11    1    3    3    0    0  0.32861859485E+00  0.24071265954E+02  0.15055837402E+02  0.28393873898E+02  0.51100000000E-03 0.  1.
        -12    1    3    3    0    0  0.15333730425E+00  0.91311869183E+01  0.34487873776E+00  0.91389839813E+01  0.00000000000E+00 0.  1.
</event>
<event>
 7    1  0.2973028E-011  0.5052888E+02  0.7816164E-02  0.1300439E+00
        -11   -1    0    0    0    0  0.00000000000E+00  0.00000000000E+00  0.45593999997E+02  0.45594000000E+02  0.51100000000E-03 0.  1.
         11   -1    0    0    0    0 -0.00000000000E+00 -0.00000000000E+00 -0.45593999997E+02  0.45594000000E+02  0.51100000000E-03 0. -1.
    9900012    2    1    2    0    0 -0.11405859047E+02  0.84847659985E+01  0.38093038043E+02  0.50528875292E+02  0.30000046939E+02 0.  0.
         12    1    1    2    0    0  0.11405859047E+02 -0.84847659985E+01 -0.38093038043E+02  0.40659124708E+02  0.00000000000E+00 0. -1.
         11    1    3    3    0    0 -0.15463615354E+02  0.85188108518E+01  0.99354864913E+01  0.20258515005E+02  0.51100000000E-03 0. -1.
        -11    1    3    3    0    0 -0.15256369183E+01  0.21060168591E+01  0.19932918285E+02  0.20101843364E+02  0.51100000000E-03 0.  1.
         12    1    3    3    0    0  0.55833932253E+01 -0.21400617124E+01  0.82246332667E+01  0.10168516923E+02  0.00000000000E+00 0. -1.
</event>
<event>
 7    1  0.2973028E-011  0.5052887E+02  0.7816164E-02  0.1300439E+00
        -11   -1    0    0    0    0  0.00000000000E+00  0.00000000000E+00  0.45593999997E+02  0.45594000000E+02  0.51100000000E-03 0.  1.
         11   -1    0    0    0    0 -0.00000000000E+00 -0.00000000000E+00 -0.45593999997E+02  0.45594000000E+02  0.51100000000E-03 0. -1.
    9900012    2    1    2    0    0 -0.11996931601E+02  0.13413803983E+02 -0.36459683519E+02  0.50528867847E+02  0.30000024309E+02 0.  0.
         12    1    1    2    0    0  0.11996931601E+02 -0.13413803983E+02  0.36459683519E+02  0.40659132153E+02  0.00000000000E+00 0. -1.
         11    1    3    3    0    0 -0.76837056120E+01  0.18885634297E+02 -0.34111088822E+02  0.39740066628E+02  0.51100000000E-03 0. -1.
        -11    1    3    3    0    0 -0.40176934443E+01 -0.11748849376E+01  0.20253562589E+01  0.46501917665E+01  0.51100000000E-03 0.  1.
         12    1    3    3    0    0 -0.29553254435E+00 -0.42969453761E+01 -0.43739509553E+01  0.61386094524E+01  0.00000000000E+00 0. -1.
</event>
<event>
 7    1  0.2973028E-011  0.5052886E+02  0.7816164E-02  0.1300439E+00
        -11   -1    0    0    0    0  0.00000000000E+00  0.00000000000E+00  0.45593999997E+02  0.45594000000E+02  0.51100000000E-03 0.  1.
         11   -1    0    0    0    0 -0.00000000000E+00 -0.00000000000E+00 -0.45593999997E+02  0.45594000000E+02  0.51100000000E-03 0. -1.
    9900012    2    1    2    0    0  0.43334848558E+01  0.34373607834E+02  0.21280074271E+02  0.50528861205E+02  0.30000004120E+02 0.  0.
         12    1    1    2    0    0 -0.43334848558E+01 -0.34373607834E+02 -0.21280074271E+02  0.40659138795E+02  0.00000000000E+00 0. -1.
         11    1    3    3    0    0 -0.13160438432E+01 -0.36691165065E+01  0.50545084563E+01  0.63829807560E+01  0.51100000000E-03 0. -1.
        -11    1    3    3    0    0 -0.47231544032E+01  0.16216516645E+02  0.66800267079E+01  0.18163324494E+02  0.51100000000E-03 0.  1.
         12    1    3    3    0    0  0.10372683102E+02  0.21826207696E+02  0.95455391069E+01  0.25982555955E+02  0.00000000000E+00 0. -1.
</event>
<event>
 7    1  0.2973028E-011  0.5052888E+02  0.7816164E-02  0.1300439E+00
        -11   -1    0    0    0    0  0.00000000000E+00  0.00000000000E+00  0.45593999997E+02  0.45594000000E+02  0.51100000000E-03 0. -1.
         11   -1    0    0    0    0 -0.00000000000E+00 -0.00000000000E+00 -0.45593999997E+02  0.45594000000E+02  0.51100000000E-03 0.  1.
    9900012    2    1    2    0    0 -0.28062796049E+02 -0.67080191288E+01 -0.28646913489E+02  0.50528884230E+02  0.30000074106E+02 0.  0.
         12    1    1    2    0    0  0.28062796049E+02  0.67080191288E+01  0.28646913489E+02  0.40659115770E+02  0.00000000000E+00 0. -1.
         11    1    3    3    0    0 -0.39402256115E+01  0.82182752943E+01 -0.36407904599E+01  0.98143151629E+01  0.51100000000E-03 0. -1.
        -11    1    3    3    0    0 -0.21404978865E+02 -0.13445247953E+02 -0.27036984006E+02  0.37012785860E+02  0.51100000000E-03 0.  1.
         12    1    3    3    0    0 -0.27175915727E+01 -0.14810464700E+01  0.20308609770E+01  0.37017832068E+01  0.00000000000E+00 0. -1.
</event>
<event>
 7    1  0.2973028E-011  0.5052887E+02  0.7816164E-02  0.1300439E+00
        -11   -1    0    0    0    0  0.00000000000E+00  0.00000000000E+00  0.45593999997E+02  0.45594000000E+02  0.51100000000E-03 0.  1.
         11   -1    0    0    0    0 -0.00000000000E+00 -0.00000000000E+00 -0.45593999997E+02  0.45594000000E+02  0.51100000000E-03 0. -1.
    9900012    2    1    2    0    0  0.22052406002E+02 -0.17341081845E+02  0.29430304002E+02  0.50528874042E+02  0.30000043138E+02 0.  0.
         12    1    1    2    0    0 -0.22052406002E+02  0.17341081845E+02 -0.29430304002E+02  0.40659125958E+02  0.00000000000E+00 0. -1.
         11    1    3    3    0    0 -0.93430281213E+00 -0.13951336441E+02  0.14388332954E+02  0.20063320654E+02  0.51100000000E-03 0. -1.
        -11    1    3    3    0    0  0.22900432027E+02  0.81186812357E-01  0.12024279609E+02  0.25865414721E+02  0.51100000000E-03 0.  1.
        -12    1    3    3    0    0  0.86276787521E-01 -0.34709322159E+01  0.30176914393E+01  0.46001386668E+01  0.00000000000E+00 0.  1.
</event>
<event>
 7    1  0.2973028E-011  0.5052886E+02  0.7816164E-02  0.1300439E+00
        -11   -1    0    0    0    0  0.00000000000E+00  0.00000000000E+00  0.45593999997E+02  0.45594000000E+02  0.51100000000E-03 0.  1.
         11   -1    0    0    0    0 -0.00000000000E+00 -0.00000000000E+00 -0.45593999997E+02  0.45594000000E+02  0.51100000000E-03 0. -1.
    9900012    2    1    2    0    0  0.25952704216E+02 -0.10073930937E+02  0.29633402289E+02  0.50528862382E+02  0.30000007696E+02 0.  0.
         12    1    1    2    0    0 -0.25952704216E+02  0.10073930937E+02 -0.29633402289E+02  0.40659137618E+02  0.00000000000E+00 0. -1.
         11    1    3    3    0    0 -0.64127350656E+01 -0.24167810507E+01  0.40677342583E+01  0.79693452633E+01  0.51100000000E-03 0. -1.
        -11    1    3    3    0    0  0.27342488139E+02 -0.37941198155E+01  0.19586669011E+02  0.33847372218E+02  0.51100000000E-03 0.  1.
         12    1    3    3    0    0  0.50229511422E+01 -0.38630300707E+01  0.59789990190E+01  0.87121449009E+01  0.00000000000E+00 0. -1.
</event>
<event>
 7    1  0.2973028E-011  0.5052886E+02  0.7816164E-02  0.1300439E+00
        -11   -1    0    0    0    0  0.00000000000E+00  0.00000000000E+00  0.45593999997E+02  0.45594000000E+02  0.51100000000E-03 0.  1.
         11   -1    0    0    0    0 -0.00000000000E+00 -0.00000000000E+00 -0.45593999997E+02  0.45594000000E+02  0.51100000000E-03 0. -1.
    9900012    2    1    2    0    0  0.28332699839E+02  0.36903413048E+01  0.28927581359E+02  0.50528862498E+02  0.30000008050E+02 0.  0.
         12    1    1    2    0    0 -0.28332699839E+02 -0.36903413048E+01 -0.28927581359E+02  0.40659137502E+02  0.00000000000E+00 0. -1.
         11    1    3    3    0    0  0.73972580418E+00  0.31647304834E+00  0.20850700265E+02  0.20866217944E+02  0.51100000000E-03 0. -1.
        -11    1    3    3    0    0  0.27938405598E+02  0.34249214212E+01  0.77764782672E+01  0.29202024050E+02  0.51100000000E-03 0.  1.
        -12    1    3    3    0    0 -0.34543156385E+00 -0.51053164722E-01  0.30040282654E+00  0.46062050446E+00  0.00000000000E+00 0.  1.
</event>
<event>
 7    1  0.2973028E-011  0.5052885E+02  0.7816164E-02  0.1300439E+00
        -11   -1    0    0    0    0  0.00000000000E+00  0.00000000000E+00  0.45593999997E+02  0.45594000000E+02  0.51100000000E-03 0.  1.
         11   -1    0    0    0    0 -0.00000000000E+00 -0.00000000000E+00 -0.45593999997E+02  0.45594000000E+02  0.51100000000E-03 0. -1.
    9900012    2    1    2    0    0 -0.71374799703E+01  0.38402373194E+02  0.11290717217E+02  0.50528853642E+02  0.29999981130E+02 0.  0.
         12    1    1    2    0    0  0.71374799703E+01 -0.38402373194E+02 -0.11290717217E+02  0.40659146358E+02  0.00000000000E+00 0. -1.
         11    1    3    3    0    0 -0.21884710042E+01 -0.17011388903E+01  0.21554640873E+01  0.35113109451E+01  0.51100000000E-03 0. -1.
        -11    1    3    3    0    0  0.54429928746E+01  0.32944720322E+02  0.80758350173E+01  0.34354037317E+02  0.51100000000E-03 0.  1.
        -12    1    3    3    0    0 -0.10392001841E+02  0.71587917631E+01  0.10594181122E+01  0.12663505380E+02  0.00000000000E+00 0.  1.
</event>
<event>
 7    1  0.2973028E-011  0.5052885E+02  0.7816164E-02  0.1300439E+00
        -11   -1    0    0    0    0  0.00000000000E+00  0.00000000000E+00  0.45593999997E+02  0.45594000000E+02  0.51100000000E-03 0.  1.
         11   -1    0    0    0    0 -0.00000000000E+00 -0.00000000000E+00 -0.45593999997E+02  0.45594000000E+02  0.51100000000E-03 0. -1.
    9900012    2    1    2    0    0  0.28760209207E+02 -0.28307998874E+02 -0.49672614434E+01  0.50528854409E+02  0.29999983462E+02 0.  0.
         12    1    1    2    0    0 -0.28760209207E+02  0.28307998874E+02  0.49672614434E+01  0.40659145591E+02  0.00000000000E+00 0. -1.
         11    1    3    3    0    0  0.89094453995E+01 -0.16472792270E+02  0.39246663479E+01  0.19134631136E+02  0.51100000000E-03 0.  1.
        -11    1    3    3    0    0  0.63463835134E+01  0.20448970040E+01 -0.99751122029E+01  0.11998377023E+02  0.51100000000E-03 0. -1.
         12    1    3    3    0    0  0.13504380295E+02 -0.13880103608E+02  0.10831844115E+01  0.19395846251E+02  0.00000000000E+00 0. -1.
</event>
<event>
 7    1  0.2973028E-011  0.5052884E+02  0.7816164E-02  0.1300439E+00
        -11   -1    0    0    0    0  0.00000000000E+00  0.00000000000E+00  0.45593999997E+02  0.45594000000E+02  0.51100000000E-03 0.  1.
         11   -1    0    0    0    0 -0.00000000000E+00 -0.00000000000E+00 -0.45593999997E+02  0.45594000000E+02  0.51100000000E-03 0. -1.
    9900012    2    1    2    0    0  0.27067392368E+02  0.30173283161E+02  0.31775505608E+01  0.50528836533E+02  0.29999929124E+02 0.  0.
         12    1    1    2    0    0 -0.27067392368E+02 -0.30173283161E+02 -0.31775505608E+01  0.40659163467E+02  0.00000000000E+00 0. -1.
         11    1    3    3    0    0  0.20425600342E+02  0.18050009634E+02 -0.34760380009E+01  0.27478916237E+02  0.51100000000E-03 0. -1.
        -11    1    3    3    0    0 -0.58610964116E+01  0.29514334902E+01  0.20195736883E+01  0.68660096808E+01  0.51100000000E-03 0.  1.
         12    1    3    3    0    0  0.12502888438E+02  0.91718400363E+01  0.46340148734E+01  0.16183910615E+02  0.00000000000E+00 0. -1.
</event>
<event>
 7    1  0.2973028E-011  0.5052885E+02  0.7816164E-02  0.1300439E+00
        -11   -1    0    0    0    0  0.00000000000E+00  0.00000000000E+00  0.45593999997E+02  0.45594000000E+02  0.51100000000E-03 0.  1.
         11   -1    0    0    0    0 -0.00000000000E+00 -0.00000000000E+00 -0.45593999997E+02  0.45594000000E+02  0.51100000000E-03 0. -1.
    9900012    2    1    2    0    0 -0.39596736740E+02 -0.82173145430E+01 -0.42119894086E+01  0.50528847604E+02  0.29999962778E+02 0.  0.
         12    1    1    2    0    0  0.39596736740E+02  0.82173145430E+01  0.42119894086E+01  0.40659152396E+02  0.00000000000E+00 0. -1.
         11    1    3    3    0    0 -0.27963060712E+02 -0.15254322061E+02 -0.86081909346E+01  0.32995879400E+02  0.51100000000E-03 0. -1.
        -11    1    3    3    0    0 -0.20121467750E+01 -0.47931714174E+00  0.48942909916E+01  0.53134324253E+01  0.51100000000E-03 0.  1.
         12    1    3    3    0    0 -0.96215292527E+01  0.75163246595E+01 -0.49808946552E+00  0.12219535779E+02  0.00000000000E+00 0. -1.
</event>
<event>
 7    1  0.2973028E-011  0.5052888E+02  0.7816164E-02  0.1300439E+00
        -11   -1    0    0    0    0  0.00000000000E+00  0.00000000000E+00  0.45593999997E+02  0.45594000000E+02  0.51100000000E-03 0.  1.
         11   -1    0    0    0    0 -0.00000000000E+00 -0.00000000000E+00 -0.45593999997E+02  0.45594000000E+02  0.51100000000E-03 0. -1.
    9900012    2    1    2    0    0  0.16036456155E+02  0.77258532472E+01  0.36555539111E+02  0.50528878341E+02  0.30000056204E+02 0.  0.
         12    1    1    2    0    0 -0.16036456155E+02 -0.77258532472E+01 -0.36555539111E+02  0.40659121659E+02  0.00000000000E+00 0. -1.
         11    1    3    3    0    0  0.21916496681E+02  0.84858446798E+01  0.36635867932E+02  0.43526189887E+02  0.51100000000E-03 0. -1.
        -11    1    3    3    0    0 -0.54919610735E+01 -0.95734060468E+00  0.11547514637E+01  0.56931176582E+01  0.51100000000E-03 0.  1.
         12    1    3    3    0    0 -0.38807945275E+00  0.19734917206E+00 -0.12350802849E+01  0.13095707951E+01  0.00000000000E+00 0. -1.
</event>
<event>
 7    1  0.2973028E-011  0.5052886E+02  0.7816164E-02  0.1300439E+00
        -11   -1    0    0    0    0  0.00000000000E+00  0.00000000000E+00  0.45593999997E+02  0.45594000000E+02  0.51100000000E-03 0.  1.
         11   -1    0    0    0    0 -0.00000000000E+00 -0.00000000000E+00 -0.45593999997E+02  0.45594000000E+02  0.51100000000E-03 0. -1.
    9900012    2    1    2    0    0 -0.26050800246E+02 -0.16395990657E+02  0.26564884971E+02  0.50528858142E+02  0.29999994808E+02 0.  0.
         12    1    1    2    0    0  0.26050800246E+02  0.16395990657E+02 -0.26564884971E+02  0.40659141858E+02  0.00000000000E+00 0. -1.
         11    1    3    3    0    0 -0.23419329567E+00  0.56136533338E+01  0.94477966641E+01  0.10992215988E+02  0.51100000000E-03 0. -1.
        -11    1    3    3    0    0 -0.53092109563E+01 -0.11033066728E+02  0.75573998626E+01  0.14388557097E+02  0.51100000000E-03 0.  1.
         12    1    3    3    0    0 -0.20507395994E+02 -0.10976577263E+02  0.95596884445E+01  0.25148085057E+02  0.00000000000E+00 0. -1.
</event>
<event>
 7    1  0.2973028E-011  0.5052886E+02  0.7816164E-02  0.1300439E+00
        -11   -1    0    0    0    0  0.00000000000E+00  0.00000000000E+00  0.45593999997E+02  0.45594000000E+02  0.51100000000E-03 0.  1.
         11   -1    0    0    0    0 -0.00000000000E+00 -0.00000000000E+00 -0.45593999997E+02  0.45594000000E+02  0.51100000000E-03 0. -1.
    9900012    2    1    2    0    0 -0.25661316900E+02 -0.14126877963E+02  0.28197410194E+02  0.50528858252E+02  0.29999995143E+02 0.  0.
         12    1    1    2    0    0  0.25661316900E+02  0.14126877963E+02 -0.28197410194E+02  0.40659141748E+02  0.00000000000E+00 0. -1.
         11    1    3    3    0    0 -0.15632524893E+02  0.86648407984E+00  0.24224161333E+01  0.15842813178E+02  0.51100000000E-03 0. -1.
        -11    1    3    3    0    0 -0.12543948289E+02 -0.12669276067E+02  0.14743021062E+02  0.23134776096E+02  0.51100000000E-03 0.  1.
        -12    1    3    3    0    0  0.25151562828E+01 -0.23240859758E+01  0.11031972999E+02  0.11551268978E+02  0.00000000000E+00 0.  1.
</event>
<event>
 7    1  0.2973028E-011  0.5052885E+02  0.7816164E-02  0.1300439E+00
        -11   -1    0    0    0    0  0.00000000000E+00  0.00000000000E+00  0.45593999997E+02  0.45594000000E+02  0.51100000000E-03 0.  1.
         11   -1    0    0    0    0 -0.00000000000E+00 -0.00000000000E+00 -0.45593999997E+02  0.45594000000E+02  0.51100000000E-03 0. -1.
    9900012    2    1    2    0    0 -0.20672692401E+02 -0.31562025397E+02  0.15154033205E+02  0.50528851206E+02  0.29999973727E+02 0.  0.
         12    1    1    2    0    0  0.20672692401E+02  0.31562025397E+02 -0.15154033205E+02  0.40659148794E+02  0.00000000000E+00 0. -1.
         11    1    3    3    0    0 -0.52579231191E+01 -0.28759670892E+02  0.13573495295E+02  0.32233588074E+02  0.51100000000E-03 0. -1.
        -11    1    3    3    0    0 -0.85764882497E+01 -0.60552364024E+01 -0.26142463632E+00  0.10501922761E+02  0.51100000000E-03 0.  1.
         12    1    3    3    0    0 -0.68382810324E+01  0.32528818974E+01  0.18419625458E+01  0.77933403709E+01  0.00000000000E+00 0. -1.
</event>
<event>
 7    1  0.2973028E-011  0.5052888E+02  0.7816164E-02  0.1300439E+00
        -11   -1    0    0    0    0  0.00000000000E+00  0.00000000000E+00  0.45593999997E+02  0.45594000000E+02  0.51100000000E-03 0.  1.
         11   -1    0    0    0    0 -0.00000000000E+00 -0.00000000000E+00 -0.45593999997E+02  0.45594000000E+02  0.51100000000E-03 0. -1.
    9900012    2    1    2    0    0 -0.25751966423E+02  0.30528777128E+02  0.76153715793E+01  0.50528881812E+02  0.30000066755E+02 0.  0.
         12    1    1    2    0    0  0.25751966423E+02 -0.30528777128E+02 -0.76153715793E+01  0.40659118188E+02  0.00000000000E+00 0. -1.
         11    1    3    3    0    0 -0.60769123985E+01 -0.37247690913E+01 -0.33923844424E+01  0.78937343221E+01  0.51100000000E-03 0. -1.
        -11    1    3    3    0    0 -0.14097149766E+02  0.16769593480E+02  0.14813342793E+01  0.21957760553E+02  0.51100000000E-03 0.  1.
         12    1    3    3    0    0 -0.55779042587E+01  0.17483952739E+02  0.95264217424E+01  0.20677386936E+02  0.00000000000E+00 0. -1.
</event>
<event>
 7    1  0.2973028E-011  0.5052885E+02  0.7816164E-02  0.1300439E+00
        -11   -1    0    0    0    0  0.00000000000E+00  0.00000000000E+00  0.45593999997E+02  0.45594000000E+02  0.51100000000E-03 0.  1.
         11   -1    0    0    0    0 -0.00000000000E+00 -0.00000000000E+00 -0.45593999997E+02  0.45594000000E+02  0.51100000000E-03 0. -1.
    9900012    2    1    2    0    0  0.23422633975E+02  0.33037723157E+02  0.36132949773E+01  0.50528845627E+02  0.29999956769E+02 0.  0.
         12    1    1    2    0    0 -0.23422633975E+02 -0.33037723157E+02 -0.36132949773E+01  0.40659154373E+02  0.00000000000E+00 0. -1.
         11    1    3    3    0    0  0.19347165091E+02  0.13479573641E+02  0.61928329420E+00  0.23588031174E+02  0.51100000000E-03 0. -1.
        -11    1    3    3    0    0  0.71518732147E+01  0.17293208347E+02  0.82430505125E+01  0.20448770805E+02  0.51100000000E-03 0.  1.
         12    1    3    3    0    0 -0.30764043311E+01  0.22649411690E+01 -0.52490388294E+01  0.64920436489E+01  0.00000000000E+00 0. -1.
</event>
<event>
 7    1  0.2973028E-011  0.5052884E+02  0.7816164E-02  0.1300439E+00
        -11   -1    0    0    0    0  0.00000000000E+00  0.00000000000E+00  0.45593999997E+02  0.45594000000E+02  0.51100000000E-03 0. -1.
         11   -1    0    0    0    0 -0.00000000000E+00 -0.00000000000E+00 -0.45593999997E+02  0.45594000000E+02  0.51100000000E-03 0.  1.
    9900012    2    1    2    0    0 -0.14397112022E+02  0.37852249809E+02  0.36190867583E+01  0.50528838189E+02  0.29999934160E+02 0.  0.
         12    1    1    2    0    0  0.14397112022E+02 -0.37852249809E+02 -0.36190867583E+01  0.40659161811E+02  0.00000000000E+00 0. -1.
         11    1    3    3    0    0 -0.32912755946E+00 -0.19312910658E+01 -0.19788047557E+01  0.27845787210E+01  0.51100000000E-03 0. -1.
        -11    1    3    3    0    0 -0.18693558270E+02  0.21771272972E+02  0.50700587867E+01  0.29140057378E+02  0.51100000000E-03 0.  1.
        -12    1    3    3    0    0  0.46255738072E+01  0.18012267902E+02  0.52783272732E+00  0.18604202091E+02  0.00000000000E+00 0.  1.
</event>
<event>
 7    1  0.2973028E-011  0.5052886E+02  0.7816164E-02  0.1300439E+00
        -11   -1    0    0    0    0  0.00000000000E+00  0.00000000000E+00  0.45593999997E+02  0.45594000000E+02  0.51100000000E-03 0.  1.
         11   -1    0    0    0    0 -0.00000000000E+00 -0.00000000000E+00 -0.45593999997E+02  0.45594000000E+02  0.51100000000E-03 0. -1.
    9900012    2    1    2    0    0  0.36608353781E+02 -0.10233537266E+02  0.14431522819E+02  0.50528859546E+02  0.29999999078E+02 0.  0.
         12    1    1    2    0    0 -0.36608353781E+02  0.10233537266E+02 -0.14431522819E+02  0.40659140454E+02  0.00000000000E+00 0. -1.
         11    1    3    3    0    0  0.13597716706E+01  0.19088914950E+01 -0.59794931031E+01  0.64223970421E+01  0.51100000000E-03 0. -1.
        -11    1    3    3    0    0  0.20112682941E+02 -0.11497185073E+02  0.79583256100E+01  0.24495718533E+02  0.51100000000E-03 0.  1.
        -12    1    3    3    0    0  0.15135899169E+02 -0.64524368821E+00  0.12452690312E+02  0.19610743971E+02  0.00000000000E+00 0.  1.
</event>
<event>
 7    1  0.2973028E-011  0.5052885E+02  0.7816164E-02  0.1300439E+00
        -11   -1    0    0    0    0  0.00000000000E+00  0.00000000000E+00  0.45593999997E+02  0.45594000000E+02  0.51100000000E-03 0. -1.
         11   -1    0    0    0    0 -0.00000000000E+00 -0.00000000000E+00 -0.45593999997E+02  0.45594000000E+02  0.51100000000E-03 0.  1.
    9900012    2    1    2    0    0 -0.22926123339E+02 -0.32619374805E+02 -0.79709062938E+01  0.50528854766E+02  0.29999984546E+02 0.  0.
         12    1    1    2    0    0  0.22926123339E+02  0.32619374805E+02  0.79709062938E+01  0.40659145234E+02  0.00000000000E+00 0. -1.
         11    1    3    3    0    0 -0.18716385780E+02 -0.34014954001E+01  0.65571428503E-01  0.19023079864E+02  0.51100000000E-03 0. -1.
        -11    1    3    3    0    0 -0.36482690217E+01 -0.29342750829E+02 -0.71038773028E+01  0.30410063565E+02  0.51100000000E-03 0.  1.
        -12    1    3    3    0    0 -0.56146853706E+00  0.12487142342E+00 -0.93260041946E+00  0.10957113365E+01  0.00000000000E+00 0.  1.
</event>
<event>
 7    1  0.2973028E-011  0.5052890E+02  0.7816164E-02  0.1300439E+00
        -11   -1    0    0    0    0  0.00000000000E+00  0.00000000000E+00  0.45593999997E+02  0.45594000000E+02  0.51100000000E-03 0.  1.
         11   -1    0    0    0    0 -0.00000000000E+00 -0.00000000000E+00 -0.45593999997E+02  0.45594000000E+02  0.51100000000E-03 0. -1.
    9900012    2    1    2    0    0  0.14592216016E+02  0.21086912818E+02  0.31552683877E+02  0.50528898678E+02  0.30000118023E+02 0.  0.
         12    1    1    2    0    0 -0.14592216016E+02 -0.21086912818E+02 -0.31552683877E+02  0.40659101322E+02  0.00000000000E+00 0. -1.
         11    1    3    3    0    0  0.90781799175E+00  0.20488661811E+02  0.20308624625E+02  0.28862599168E+02  0.51100000000E-03 0. -1.
        -11    1    3    3    0    0  0.42201781743E+01 -0.56720064315E+01  0.54093996449E+01  0.89018630388E+01  0.51100000000E-03 0.  1.
        -12    1    3    3    0    0  0.94642198499E+01  0.62702574387E+01  0.58346596071E+01  0.12764436472E+02  0.00000000000E+00 0.  1.
</event>
<event>
 7    1  0.2973028E-011  0.5052886E+02  0.7816164E-02  0.1300439E+00
        -11   -1    0    0    0    0  0.00000000000E+00  0.00000000000E+00  0.45593999997E+02  0.45594000000E+02  0.51100000000E-03 0.  1.
         11   -1    0    0    0    0 -0.00000000000E+00 -0.00000000000E+00 -0.45593999997E+02  0.45594000000E+02  0.51100000000E-03 0. -1.
    9900012    2    1    2    0    0  0.67513802589E+01 -0.36429822195E+02 -0.16746728592E+02  0.50528855898E+02  0.29999987989E+02 0.  0.
         12    1    1    2    0    0 -0.67513802589E+01  0.36429822195E+02  0.16746728592E+02  0.40659144102E+02  0.00000000000E+00 0. -1.
         11    1    3    3    0    0  0.13962328891E+02 -0.69198895592E+01 -0.49425390717E+01  0.16348094455E+02  0.51100000000E-03 0. -1.
        -11    1    3    3    0    0 -0.56531937348E+01 -0.62612800148E+01 -0.99295392235E+00  0.84940087462E+01  0.51100000000E-03 0.  1.
         12    1    3    3    0    0 -0.15577548968E+01 -0.23248652621E+02 -0.10811235597E+02  0.25686752698E+02  0.00000000000E+00 0. -1.
</event>
<event>
 7    1  0.2973028E-011  0.5052887E+02  0.7816164E-02  0.1300439E+00
        -11   -1    0    0    0    0  0.00000000000E+00  0.00000000000E+00  0.45593999997E+02  0.45594000000E+02  0.51100000000E-03 0.  1.
         11   -1    0    0    0    0 -0.00000000000E+00 -0.00000000000E+00 -0.45593999997E+02  0.45594000000E+02  0.51100000000E-03 0. -1.
    9900012    2    1    2    0    0 -0.71679713043E+00  0.38811962442E+02  0.12094725963E+02  0.50528872822E+02  0.30000039430E+02 0.  0.
         12    1    1    2    0    0  0.71679713043E+00 -0.38811962442E+02 -0.12094725963E+02  0.40659127178E+02  0.00000000000E+00 0. -1.
         11    1    3    3    0    0 -0.74280495886E+01 -0.36289512654E+00 -0.55654956419E+00  0.74577048240E+01  0.51100000000E-03 0. -1.
        -11    1    3    3    0    0  0.57068076319E+01  0.27691418698E+02  0.37788699032E+01  0.28524764344E+02  0.51100000000E-03 0.  1.
         12    1    3    3    0    0  0.10044448263E+01  0.11483438871E+02  0.88724056241E+01  0.14546403654E+02  0.00000000000E+00 0. -1.
</event>
<event>
 7    1  0.2973028E-011  0.5052886E+02  0.7816164E-02  0.1300439E+00
        -11   -1    0    0    0    0  0.00000000000E+00  0.00000000000E+00  0.45593999997E+02  0.45594000000E+02  0.51100000000E-03 0.  1.
         11   -1    0    0    0    0 -0.00000000000E+00 -0.00000000000E+00 -0.45593999997E+02  0.45594000000E+02  0.51100000000E-03 0. -1.
    9900012    2    1    2    0    0  0.13522505091E+02 -0.14959900831E+01  0.38315394436E+02  0.50528861039E+02  0.30000003615E+02 0.  0.
         12    1    1    2    0    0 -0.13522505091E+02  0.14959900831E+01 -0.38315394436E+02  0.40659138961E+02  0.00000000000E+00 0. -1.
         11    1    3    3    0    0 -0.47402655405E+01  0.64606151541E+01  0.17528289145E+02  0.19273053369E+02  0.51100000000E-03 0. -1.
        -11    1    3    3    0    0  0.16345543736E+02 -0.33074487877E+01  0.20197122164E+02  0.26192360746E+02  0.51100000000E-03 0.  1.
         12    1    3    3    0    0  0.19172268957E+01 -0.46491564495E+01  0.58998312740E+00  0.50634469239E+01  0.00000000000E+00 0. -1.
</event>
<event>
 7    1  0.2973028E-011  0.5052886E+02  0.7816164E-02  0.1300439E+00
        -11   -1    0    0    0    0  0.00000000000E+00  0.00000000000E+00  0.45593999997E+02  0.45594000000E+02  0.51100000000E-03 0. -1.
         11   -1    0    0    0    0 -0.00000000000E+00 -0.00000000000E+00 -0.45593999997E+02  0.45594000000E+02  0.51100000000E-03 0.  1.
    9900012    2    1    2    0    0  0.44286133528E+00  0.32860618315E+02 -0.23940530291E+02  0.50528863845E+02  0.30000012144E+02 0.  0.
         12    1    1    2    0    0 -0.44286133528E+00 -0.32860618315E+02  0.23940530291E+02  0.40659136155E+02  0.00000000000E+00 0. -1.
         11    1    3    3    0    0 -0.25336974614E+01  0.20562807282E+02 -0.59727945395E+01  0.21562071817E+02  0.51100000000E-03 0. -1.
        -11    1    3    3    0    0 -0.51107037866E+01  0.73275712131E+01 -0.17275889218E+02  0.19449137297E+02  0.51100000000E-03 0.  1.
         12    1    3    3    0    0  0.80872625833E+01  0.49702398201E+01 -0.69184653431E+00  0.95176547315E+01  0.00000000000E+00 0. -1.
</event>
<event>
 7    1  0.2973028E-011  0.5052887E+02  0.7816164E-02  0.1300439E+00
        -11   -1    0    0    0    0  0.00000000000E+00  0.00000000000E+00  0.45593999997E+02  0.45594000000E+02  0.51100000000E-03 0.  1.
         11   -1    0    0    0    0 -0.00000000000E+00 -0.00000000000E+00 -0.45593999997E+02  0.45594000000E+02  0.51100000000E-03 0. -1.
    9900012    2    1    2    0    0 -0.37589392891E+02 -0.77260405141E+00  0.15479199481E+02  0.50528868289E+02  0.30000025652E+02 0.  0.
         12    1    1    2    0    0  0.37589392891E+02  0.77260405141E+00 -0.15479199481E+02  0.40659131711E+02  0.00000000000E+00 0. -1.
         11    1    3    3    0    0 -0.80101647112E+01 -0.31012724182E+01 -0.39144966072E+01  0.94394869173E+01  0.51100000000E-03 0. -1.
        -11    1    3    3    0    0 -0.15560712872E+02  0.39715853665E+01  0.21481901647E+02  0.26821285839E+02  0.51100000000E-03 0.  1.
        -12    1    3    3    0    0 -0.14018515307E+02 -0.16429169996E+01 -0.20882055590E+01  0.14268095533E+02  0.00000000000E+00 0.  1.
</event>
<event>
 7    1  0.2973028E-011  0.5052886E+02  0.7816164E-02  0.1300439E+00
        -11   -1    0    0    0    0  0.00000000000E+00  0.00000000000E+00  0.45593999997E+02  0.45594000000E+02  0.51100000000E-03 0.  1.
         11   -1    0    0    0    0 -0.00000000000E+00 -0.00000000000E+00 -0.45593999997E+02  0.45594000000E+02  0.51100000000E-03 0. -1.
    9900012    2    1    2    0    0 -0.22718759094E+02 -0.45639131074E+01  0.33409490391E+02  0.50528863685E+02  0.30000011658E+02 0.  0.
         12    1    1    2    0    0  0.22718759094E+02  0.45639131074E+01 -0.33409490391E+02  0.40659136315E+02  0.00000000000E+00 0. -1.
         11    1    3    3    0    0 -0.39755113584E+01 -0.44210928673E+01  0.38164540476E+01  0.70651308877E+01  0.51100000000E-03 0. -1.
        -11    1    3    3    0    0 -0.53694051842E+01  0.12236036353E+02  0.98824560124E+01  0.16619688167E+02  0.51100000000E-03 0.  1.
        -12    1    3    3    0    0 -0.13373842552E+02 -0.12378856593E+02  0.19710580331E+02  0.26844044631E+02  0.00000000000E+00 0.  1.
</event>
<event>
 7    1  0.2973028E-011  0.5052883E+02  0.7816164E-02  0.1300439E+00
        -11   -1    0    0    0    0  0.00000000000E+00  0.00000000000E+00  0.45593999997E+02  0.45594000000E+02  0.51100000000E-03 0. -1.
         11   -1    0    0    0    0 -0.00000000000E+00 -0.00000000000E+00 -0.45593999997E+02  0.45594000000E+02  0.51100000000E-03 0.  1.
    9900012    2    1    2    0    0 -0.38254957776E+02 -0.79154762789E+01  0.11272618509E+02  0.50528825301E+02  0.29999894984E+02 0.  0.
         12    1    1    2    0    0  0.38254957776E+02  0.79154762789E+01 -0.11272618509E+02  0.40659174699E+02  0.00000000000E+00 0. -1.
         11    1    3    3    0    0 -0.76797781161E+01 -0.11621720287E+02  0.67340946163E+01  0.15472278595E+02  0.51100000000E-03 0. -1.
        -11    1    3    3    0    0 -0.21256412079E+02 -0.18509307571E+01 -0.34086626322E+01  0.21607405683E+02  0.51100000000E-03 0.  1.
         12    1    3    3    0    0 -0.93187675811E+01  0.55571747655E+01  0.79471865254E+01  0.13449141024E+02  0.00000000000E+00 0. -1.
</event>
<event>
 7    1  0.2973028E-011  0.5052886E+02  0.7816164E-02  0.1300439E+00
        -11   -1    0    0    0    0  0.00000000000E+00  0.00000000000E+00  0.45593999997E+02  0.45594000000E+02  0.51100000000E-03 0.  1.
         11   -1    0    0    0    0 -0.00000000000E+00 -0.00000000000E+00 -0.45593999997E+02  0.45594000000E+02  0.51100000000E-03 0. -1.
    9900012    2    1    2    0    0  0.21985777605E+02 -0.27895959870E+02  0.19789058337E+02  0.50528858053E+02  0.29999994539E+02 0.  0.
         12    1    1    2    0    0 -0.21985777605E+02  0.27895959870E+02 -0.19789058337E+02  0.40659141947E+02  0.00000000000E+00 0. -1.
         11    1    3    3    0    0  0.57931763030E+01 -0.18468268840E+02  0.66833654873E+01  0.20476943623E+02  0.51100000000E-03 0. -1.
        -11    1    3    3    0    0  0.17912841771E+02 -0.81799024843E+01  0.16737367742E+02  0.25844151836E+02  0.51100000000E-03 0.  1.
        -12    1    3    3    0    0 -0.17202404689E+01 -0.12477885460E+01 -0.36316748925E+01  0.42077625945E+01  0.00000000000E+00 0.  1.
</event>
<event>
 7    1  0.2973028E-011  0.5052881E+02  0.7816164E-02  0.1300439E+00
        -11   -1    0    0    0    0  0.00000000000E+00  0.00000000000E+00  0.45593999997E+02  0.45594000000E+02  0.51100000000E-03 0. -1.
         11   -1    0    0    0    0 -0.00000000000E+00 -0.00000000000E+00 -0.45593999997E+02  0.45594000000E+02  0.51100000000E-03 0.  1.
    9900012    2    1    2    0    0 -0.15287172326E+02 -0.22817536633E+02 -0.29980527887E+02  0.50528810779E+02  0.29999850844E+02 0.  0.
         12    1    1    2    0    0  0.15287172326E+02  0.22817536633E+02  0.29980527887E+02  0.40659189221E+02  0.00000000000E+00 0. -1.
         11    1    3    3    0    0  0.34771645749E+01 -0.47327292773E+01 -0.59809928068E+00  0.59031451705E+01  0.51100000000E-03 0.  1.
        -11    1    3    3    0    0 -0.19260885694E+02 -0.77520269272E+01 -0.10910951086E+02  0.23454732850E+02  0.51100000000E-03 0. -1.
        -12    1    3    3    0    0  0.49654879320E+00 -0.10332780428E+02 -0.18471477520E+02  0.21170932758E+02  0.00000000000E+00 0.  1.
</event>
<event>
 7    1  0.2973028E-011  0.5052886E+02  0.7816164E-02  0.1300439E+00
        -11   -1    0    0    0    0  0.00000000000E+00  0.00000000000E+00  0.45593999997E+02  0.45594000000E+02  0.51100000000E-03 0.  1.
         11   -1    0    0    0    0 -0.00000000000E+00 -0.00000000000E+00 -0.45593999997E+02  0.45594000000E+02  0.51100000000E-03 0. -1.
    9900012    2    1    2    0    0  0.38229519270E+02  0.53657101676E+01  0.12762384454E+02  0.50528862697E+02  0.30000008655E+02 0.  0.
         12    1    1    2    0    0 -0.38229519270E+02 -0.53657101676E+01 -0.12762384454E+02  0.40659137303E+02  0.00000000000E+00 0. -1.
         11    1    3    3    0    0  0.22437624021E+02 -0.34536932493E+01  0.26678720869E+01  0.22858095076E+02  0.51100000000E-03 0. -1.
        -11    1    3    3    0    0  0.73547742337E+01  0.14028758998E+02  0.65476775349E+01  0.17139745167E+02  0.51100000000E-03 0.  1.
        -12    1    3    3    0    0  0.84371210159E+01 -0.52093555807E+01  0.35468348320E+01  0.10531022454E+02  0.00000000000E+00 0.  1.
</event>
<event>
 7    1  0.2973028E-011  0.5052886E+02  0.7816164E-02  0.1300439E+00
        -11   -1    0    0    0    0  0.00000000000E+00  0.00000000000E+00  0.45593999997E+02  0.45594000000E+02  0.51100000000E-03 0.  1.
         11   -1    0    0    0    0 -0.00000000000E+00 -0.00000000000E+00 -0.45593999997E+02  0.45594000000E+02  0.51100000000E-03 0. -1.
    9900012    2    1    2    0    0 -0.66575154363E+00  0.11942108341E+02  0.38860119083E+02  0.50528855495E+02  0.29999986762E+02 0.  0.
         12    1    1    2    0    0  0.66575154363E+00 -0.11942108341E+02 -0.38860119083E+02  0.40659144505E+02  0.00000000000E+00 0. -1.
         11    1    3    3    0    0 -0.99410646642E+01  0.49864300715E+01  0.47635496399E+01  0.12098787416E+02  0.51100000000E-03 0. -1.
        -11    1    3    3    0    0  0.39765527449E+01  0.96027430571E+01  0.28275919207E+02  0.30125624529E+02  0.51100000000E-03 0.  1.
         12    1    3    3    0    0  0.52987603756E+01 -0.26470647873E+01  0.58206502357E+01  0.83044435498E+01  0.00000000000E+00 0. -1.
</event>
<event>
 7    1  0.2973028E-011  0.5052886E+02  0.7816164E-02  0.1300439E+00
        -11   -1    0    0    0    0  0.00000000000E+00  0.00000000000E+00  0.45593999997E+02  0.45594000000E+02  0.51100000000E-03 0. -1.
         11   -1    0    0    0    0 -0.00000000000E+00 -0.00000000000E+00 -0.45593999997E+02  0.45594000000E+02  0.51100000000E-03 0.  1.
    9900012    2    1    2    0    0  0.90056328204E+01 -0.34644802978E+02  0.19282161333E+02  0.50528861525E+02  0.30000005092E+02 0.  0.
         12    1    1    2    0    0 -0.90056328204E+01  0.34644802978E+02 -0.19282161333E+02  0.40659138475E+02  0.00000000000E+00 0. -1.
         11    1    3    3    0    0 -0.12659602218E+01 -0.33512555960E+02  0.10310397070E+02  0.35085586076E+02  0.51100000000E-03 0.  1.
        -11    1    3    3    0    0  0.90305899767E+01 -0.36323455691E+01  0.74988442873E+01  0.12287316858E+02  0.51100000000E-03 0. -1.
        -12    1    3    3    0    0  0.12410030655E+01  0.25000985517E+01  0.14729199755E+01  0.31559585914E+01  0.00000000000E+00 0.  1.
</event>
<event>
 7    1  0.2973028E-011  0.5052886E+02  0.7816164E-02  0.1300439E+00
        -11   -1    0    0    0    0  0.00000000000E+00  0.00000000000E+00  0.45593999997E+02  0.45594000000E+02  0.51100000000E-03 0. -1.
         11   -1    0    0    0    0 -0.00000000000E+00 -0.00000000000E+00 -0.45593999997E+02  0.45594000000E+02  0.51100000000E-03 0.  1.
    9900012    2    1    2    0    0  0.30048996697E+02  0.12320638038E+02 -0.24462730833E+02  0.50528861741E+02  0.30000005749E+02 0.  0.
         12    1    1    2    0    0 -0.30048996697E+02 -0.12320638038E+02  0.24462730833E+02  0.40659138259E+02  0.00000000000E+00 0. -1.
         11    1    3    3    0    0  0.13316174825E+02  0.13706503571E+02 -0.10559523188E+02  0.21833283819E+02  0.51100000000E-03 0. -1.
        -11    1    3    3    0    0  0.12913598930E+02 -0.74318735210E+01 -0.15358134113E+02  0.21397805146E+02  0.51100000000E-03 0.  1.
         12    1    3    3    0    0  0.38192229414E+01  0.60460079878E+01  0.14549264682E+01  0.72977727762E+01  0.00000000000E+00 0. -1.
</event>
<event>
 7    1  0.2973028E-011  0.5052887E+02  0.7816164E-02  0.1300439E+00
        -11   -1    0    0    0    0  0.00000000000E+00  0.00000000000E+00  0.45593999997E+02  0.45594000000E+02  0.51100000000E-03 0. -1.
         11   -1    0    0    0    0 -0.00000000000E+00 -0.00000000000E+00 -0.45593999997E+02  0.45594000000E+02  0.51100000000E-03 0.  1.
    9900012    2    1    2    0    0 -0.40364862360E+02 -0.43955159722E+01  0.21265279122E+01  0.50528870706E+02  0.30000032998E+02 0.  0.
         12    1    1    2    0    0  0.40364862360E+02  0.43955159722E+01 -0.21265279122E+01  0.40659129294E+02  0.00000000000E+00 0. -1.
         11    1    3    3    0    0 -0.11718775622E+02 -0.56389045467E+01 -0.48115059982E+01  0.13866417590E+02  0.51100000000E-03 0.  1.
        -11    1    3    3    0    0 -0.22601133442E+01  0.37933324927E+01  0.90497950570E+01  0.10069571717E+02  0.51100000000E-03 0. -1.
        -12    1    3    3    0    0 -0.26385973394E+02 -0.25499439181E+01 -0.21117611467E+01  0.26592881399E+02  0.00000000000E+00 0.  1.
</event>
<event>
 7    1  0.2973028E-011  0.5052886E+02  0.7816164E-02  0.1300439E+00
        -11   -1    0    0    0    0  0.00000000000E+00  0.00000000000E+00  0.45593999997E+02  0.45594000000E+02  0.51100000000E-03 0.  1.
         11   -1    0    0    0    0 -0.00000000000E+00 -0.00000000000E+00 -0.45593999997E+02  0.45594000000E+02  0.51100000000E-03 0. -1.
    9900012    2    1    2    0    0  0.22263339739E+02  0.31206819629E+02 -0.13551510636E+02  0.50528864148E+02  0.30000013065E+02 0.  0.
         12    1    1    2    0    0 -0.22263339739E+02 -0.31206819629E+02  0.13551510636E+02  0.40659135852E+02  0.00000000000E+00 0. -1.
         11    1    3    3    0    0 -0.63064468804E+00 -0.16000267335E+01 -0.18212100324E+01  0.25049160692E+01  0.51100000000E-03 0. -1.
        -11    1    3    3    0    0  0.25309758448E+02  0.26739853184E+02 -0.16080967886E+02  0.40177122215E+02  0.51100000000E-03 0.  1.
        -12    1    3    3    0    0 -0.24157740209E+01  0.60669931780E+01  0.43506672829E+01  0.78468258645E+01  0.00000000000E+00 0.  1.
</event>
<event>
 7    1  0.2973028E-011  0.5052876E+02  0.7816164E-02  0.1300439E+00
        -11   -1    0    0    0    0  0.00000000000E+00  0.00000000000E+00  0.45593999997E+02  0.45594000000E+02  0.51100000000E-03 0.  1.
         11   -1    0    0    0    0 -0.00000000000E+00 -0.00000000000E+00 -0.45593999997E+02  0.45594000000E+02  0.51100000000E-03 0. -1.
    9900012    2    1    2    0    0 -0.12933691581E+02 -0.13720897721E+02  0.36022636023E+02  0.50528760973E+02  0.29999699452E+02 0.  0.
         12    1    1    2    0    0  0.12933691581E+02  0.13720897721E+02 -0.36022636023E+02  0.40659239027E+02  0.00000000000E+00 0. -1.
         11    1    3    3    0    0 -0.16785518002E+02 -0.92932420586E+01  0.99951455530E+01  0.21633790639E+02  0.51100000000E-03 0. -1.
        -11    1    3    3    0    0 -0.31024985025E+01 -0.33993094577E+01  0.15999790731E+02  0.16648546646E+02  0.51100000000E-03 0.  1.
         12    1    3    3    0    0  0.69543249233E+01 -0.10283462049E+01  0.10027699740E+02  0.12246423687E+02  0.00000000000E+00 0. -1.
</event>
<event>
 7    1  0.2973028E-011  0.5052887E+02  0.7816164E-02  0.1300439E+00
        -11   -1    0    0    0    0  0.00000000000E+00  0.00000000000E+00  0.45593999997E+02  0.45594000000E+02  0.51100000000E-03 0. -1.
         11   -1    0    0    0    0 -0.00000000000E+00 -0.00000000000E+00 -0.45593999997E+02  0.45594000000E+02  0.51100000000E-03 0.  1.
    9900012    2    1    2    0    0  0.32133468308E+02 -0.81004347731E+01 -0.23558190930E+02  0.50528865862E+02  0.30000018273E+02 0.  0.
         12    1    1    2    0    0 -0.32133468308E+02  0.81004347731E+01  0.23558190930E+02  0.40659134138E+02  0.00000000000E+00 0. -1.
         11    1    3    3    0    0 -0.26333648445E+01  0.72544184046E-01  0.32195423507E+01  0.41599670999E+01  0.51100000000E-03 0. -1.
        -11    1    3    3    0    0  0.29969190100E+02 -0.11374062883E+02 -0.21983396689E+02  0.38868900061E+02  0.51100000000E-03 0.  1.
         12    1    3    3    0    0  0.47976430524E+01  0.32010839256E+01 -0.47943365910E+01  0.74999987003E+01  0.00000000000E+00 0. -1.
</event>
<event>
 7    1  0.2973028E-011  0.5052884E+02  0.7816164E-02  0.1300439E+00
        -11   -1    0    0    0    0  0.00000000000E+00  0.00000000000E+00  0.45593999997E+02  0.45594000000E+02  0.51100000000E-03 0. -1.
         11   -1    0    0    0    0 -0.00000000000E+00 -0.00000000000E+00 -0.45593999997E+02  0.45594000000E+02  0.51100000000E-03 0.  1.
    9900012    2    1    2    0    0  0.28731086904E+02 -0.28708533027E+02 -0.18740389163E+01  0.50528840575E+02  0.29999941413E+02 0.  0.
         12    1    1    2    0    0 -0.28731086904E+02  0.28708533027E+02  0.18740389163E+01  0.40659159425E+02  0.00000000000E+00 0. -1.
         11    1    3    3    0    0  0.27244778460E+01 -0.21728509484E+02  0.28605323860E+01  0.22084690393E+02  0.51100000000E-03 0. -1.
        -11    1    3    3    0    0  0.18376250563E+02 -0.16852010728E+01 -0.51141091740E+01  0.19148905982E+02  0.51100000000E-03 0.  1.
         12    1    3    3    0    0  0.76303584948E+01 -0.52948224704E+01  0.37953787166E+00  0.92952442006E+01  0.00000000000E+00 0. -1.
</event>
<event>
 7    1  0.2973028E-011  0.5052887E+02  0.7816164E-02  0.1300439E+00
        -11   -1    0    0    0    0  0.00000000000E+00  0.00000000000E+00  0.45593999997E+02  0.45594000000E+02  0.51100000000E-03 0.  1.
         11   -1    0    0    0    0 -0.00000000000E+00 -0.00000000000E+00 -0.45593999997E+02  0.45594000000E+02  0.51100000000E-03 0. -1.
    9900012    2    1    2    0    0  0.28667940214E+01 -0.14368041445E+02  0.37927634204E+02  0.50528873604E+02  0.30000041808E+02 0.  0.
         12    1    1    2    0    0 -0.28667940214E+01  0.14368041445E+02 -0.37927634204E+02  0.40659126396E+02  0.00000000000E+00 0. -1.
         11    1    3    3    0    0  0.22911222467E+01  0.85152097917E+01  0.12436763907E+02  0.15245692365E+02  0.51100000000E-03 0. -1.
        -11    1    3    3    0    0  0.21473728662E+01 -0.16135006697E+02  0.22416546559E+02  0.27702909797E+02  0.51100000000E-03 0.  1.
         12    1    3    3    0    0 -0.15717010915E+01 -0.67482445397E+01  0.30743237384E+01  0.75802714422E+01  0.00000000000E+00 0. -1.
</event>
<event>
 7    1  0.2973028E-011  0.5052886E+02  0.7816164E-02  0.1300439E+00
        -11   -1    0    0    0    0  0.00000000000E+00  0.00000000000E+00  0.45593999997E+02  0.45594000000E+02  0.51100000000E-03 0.  1.
         11   -1    0    0    0    0 -0.00000000000E+00 -0.00000000000E+00 -0.45593999997E+02  0.45594000000E+02  0.51100000000E-03 0. -1.
    9900012    2    1    2    0    0  0.16447255210E+02 -0.19187892388E+02  0.31850871736E+02  0.50528862668E+02  0.30000008567E+02 0.  0.
         12    1    1    2    0    0 -0.16447255210E+02  0.19187892388E+02 -0.31850871736E+02  0.40659137332E+02  0.00000000000E+00 0. -1.
         11    1    3    3    0    0  0.86361739419E+01 -0.17044232943E+02  0.29036082494E+01  0.19326673746E+02  0.51100000000E-03 0. -1.
        -11    1    3    3    0    0 -0.73132591680E-01 -0.34077944289E+01  0.59376360797E+01  0.68464540984E+01  0.51100000000E-03 0.  1.
         12    1    3    3    0    0  0.78842138594E+01  0.12641349835E+01  0.23009627407E+02  0.24355734824E+02  0.00000000000E+00 0. -1.
</event>
<event>
 7    1  0.2973028E-011  0.5052885E+02  0.7816164E-02  0.1300439E+00
        -11   -1    0    0    0    0  0.00000000000E+00  0.00000000000E+00  0.45593999997E+02  0.45594000000E+02  0.51100000000E-03 0.  1.
         11   -1    0    0    0    0 -0.00000000000E+00 -0.00000000000E+00 -0.45593999997E+02  0.45594000000E+02  0.51100000000E-03 0. -1.
    9900012    2    1    2    0    0  0.67242519647E+01 -0.28543320829E+02  0.28164328794E+02  0.50528854106E+02  0.29999982540E+02 0.  0.
         12    1    1    2    0    0 -0.67242519647E+01  0.28543320829E+02 -0.28164328794E+02  0.40659145894E+02  0.00000000000E+00 0. -1.
         11    1    3    3    0    0 -0.61532632634E+01  0.17295303470E+01  0.23172088934E+01  0.67987779289E+01  0.51100000000E-03 0. -1.
        -11    1    3    3    0    0  0.96675652245E+01 -0.22789337894E+02  0.25559134559E+02  0.35582089578E+02  0.51100000000E-03 0.  1.
         12    1    3    3    0    0  0.32099500036E+01 -0.74835132817E+01  0.28798534136E+00  0.81479865992E+01  0.00000000000E+00 0. -1.
</event>
<event>
 7    1  0.2973028E-011  0.5052886E+02  0.7816164E-02  0.1300439E+00
        -11   -1    0    0    0    0  0.00000000000E+00  0.00000000000E+00  0.45593999997E+02  0.45594000000E+02  0.51100000000E-03 0.  1.
         11   -1    0    0    0    0 -0.00000000000E+00 -0.00000000000E+00 -0.45593999997E+02  0.45594000000E+02  0.51100000000E-03 0. -1.
    9900012    2    1    2    0    0 -0.28337980504E+02  0.29156701765E+02  0.10705932063E+00  0.50528857626E+02  0.29999993240E+02 0.  0.
         12    1    1    2    0    0  0.28337980504E+02 -0.29156701765E+02 -0.10705932063E+00  0.40659142374E+02  0.00000000000E+00 0. -1.
         11    1    3    3    0    0  0.25451559004E+00  0.72421069418E+01  0.57919924685E+01  0.92768565882E+01  0.51100000000E-03 0. -1.
        -11    1    3    3    0    0 -0.30012885403E+02  0.17223929753E+02 -0.84555163842E+01  0.35622083094E+02  0.51100000000E-03 0.  1.
        -12    1    3    3    0    0  0.14203893083E+01  0.46906650701E+01  0.27705832363E+01  0.56299179440E+01  0.00000000000E+00 0.  1.
</event>
<event>
 7    1  0.2973028E-011  0.5052885E+02  0.7816164E-02  0.1300439E+00
        -11   -1    0    0    0    0  0.00000000000E+00  0.00000000000E+00  0.45593999997E+02  0.45594000000E+02  0.51100000000E-03 0.  1.
         11   -1    0    0    0    0 -0.00000000000E+00 -0.00000000000E+00 -0.45593999997E+02  0.45594000000E+02  0.51100000000E-03 0. -1.
    9900012    2    1    2    0    0  0.28527093969E+02 -0.25233653038E+02  0.14234959858E+02  0.50528850745E+02  0.29999972325E+02 0.  0.
         12    1    1    2    0    0 -0.28527093969E+02  0.25233653038E+02 -0.14234959858E+02  0.40659149255E+02  0.00000000000E+00 0. -1.
         11    1    3    3    0    0  0.12514781598E+01 -0.11295273149E+02 -0.28165018376E+01  0.11708205497E+02  0.51100000000E-03 0. -1.
        -11    1    3    3    0    0  0.12894061344E+02 -0.14741727542E+02  0.14059999277E+02  0.24109312076E+02  0.51100000000E-03 0.  1.
        -12    1    3    3    0    0  0.14381554466E+02  0.80334765278E+00  0.29914624180E+01  0.14711333172E+02  0.00000000000E+00 0.  1.
</event>
<event>
 7    1  0.2973028E-011  0.5052886E+02  0.7816164E-02  0.1300439E+00
        -11   -1    0    0    0    0  0.00000000000E+00  0.00000000000E+00  0.45593999997E+02  0.45594000000E+02  0.51100000000E-03 0.  1.
         11   -1    0    0    0    0 -0.00000000000E+00 -0.00000000000E+00 -0.45593999997E+02  0.45594000000E+02  0.51100000000E-03 0. -1.
    9900012    2    1    2    0    0  0.10124270756E+02  0.38230132015E+02  0.94404348697E+01  0.50528860034E+02  0.30000000559E+02 0.  0.
         12    1    1    2    0    0 -0.10124270756E+02 -0.38230132015E+02 -0.94404348697E+01  0.40659139966E+02  0.00000000000E+00 0. -1.
         11    1    3    3    0    0 -0.40874096057E+01  0.21923886755E+02  0.11958572528E+02  0.25305556403E+02  0.51100000000E-03 0. -1.
        -11    1    3    3    0    0  0.55966037197E+01  0.14540279173E+02 -0.44829044727E+01  0.16212283134E+02  0.51100000000E-03 0.  1.
         12    1    3    3    0    0  0.86150766416E+01  0.17659660876E+01  0.19647668142E+01  0.90110204970E+01  0.00000000000E+00 0. -1.
</event>
<event>
 7    1  0.2973028E-011  0.5052885E+02  0.7816164E-02  0.1300439E+00
        -11   -1    0    0    0    0  0.00000000000E+00  0.00000000000E+00  0.45593999997E+02  0.45594000000E+02  0.51100000000E-03 0. -1.
         11   -1    0    0    0    0 -0.00000000000E+00 -0.00000000000E+00 -0.45593999997E+02  0.45594000000E+02  0.51100000000E-03 0.  1.
    9900012    2    1    2    0    0  0.11740813324E+02  0.33174089752E+01 -0.38785489712E+02  0.50528854510E+02  0.29999983769E+02 0.  0.
         12    1    1    2    0    0 -0.11740813324E+02 -0.33174089752E+01  0.38785489712E+02  0.40659145490E+02  0.00000000000E+00 0. -1.
         11    1    3    3    0    0  0.13436803783E+02  0.94876667388E-01 -0.27973361566E+02  0.31033299133E+02  0.51100000000E-03 0.  1.
        -11    1    3    3    0    0 -0.18138393201E+00 -0.54875084485E+01  0.49562186072E-01  0.54907290750E+01  0.51100000000E-03 0. -1.
        -12    1    3    3    0    0 -0.15146065268E+01  0.87100407563E+01 -0.10861690331E+02  0.14004826303E+02  0.00000000000E+00 0.  1.
</event>
<event>
 7    1  0.2973028E-011  0.5052886E+02  0.7816164E-02  0.1300439E+00
        -11   -1    0    0    0    0  0.00000000000E+00  0.00000000000E+00  0.45593999997E+02  0.45594000000E+02  0.51100000000E-03 0.  1.
         11   -1    0    0    0    0 -0.00000000000E+00 -0.00000000000E+00 -0.45593999997E+02  0.45594000000E+02  0.51100000000E-03 0. -1.
    9900012    2    1    2    0    0 -0.12306496975E+02 -0.13381786626E+01  0.38728865837E+02  0.50528860327E+02  0.30000001450E+02 0.  0.
         12    1    1    2    0    0  0.12306496975E+02  0.13381786626E+01 -0.38728865837E+02  0.40659139673E+02  0.00000000000E+00 0. -1.
         11    1    3    3    0    0 -0.71631672101E+01 -0.31184776329E+01  0.22251990666E+01  0.81232615601E+01  0.51100000000E-03 0. -1.
        -11    1    3    3    0    0 -0.49570431710E+01 -0.58742124499E+01  0.33179863756E+02  0.34058508600E+02  0.51100000000E-03 0.  1.
        -12    1    3    3    0    0 -0.18628659436E+00  0.76545114202E+01  0.33238030138E+01  0.83470901667E+01  0.00000000000E+00 0.  1.
</event>
<event>
 7    1  0.2973028E-011  0.5052887E+02  0.7816164E-02  0.1300439E+00
        -11   -1    0    0    0    0  0.00000000000E+00  0.00000000000E+00  0.45593999997E+02  0.45594000000E+02  0.51100000000E-03 0.  1.
         11   -1    0    0    0    0 -0.00000000000E+00 -0.00000000000E+00 -0.45593999997E+02  0.45594000000E+02  0.51100000000E-03 0. -1.
    9900012    2    1    2    0    0 -0.18290121856E+02 -0.11055580249E+02  0.34589170313E+02  0.50528866769E+02  0.30000021031E+02 0.  0.
         12    1    1    2    0    0  0.18290121856E+02  0.11055580249E+02 -0.34589170313E+02  0.40659133231E+02  0.00000000000E+00 0. -1.
         11    1    3    3    0    0  0.29135245424E+01 -0.78395310234E+01  0.25235789841E+02  0.26585559258E+02  0.51100000000E-03 0. -1.
        -11    1    3    3    0    0 -0.15824308211E+02 -0.43435784197E+01  0.81273145104E+01  0.18311980921E+02  0.51100000000E-03 0.  1.
         12    1    3    3    0    0 -0.53793381870E+01  0.11275291944E+01  0.12260659618E+01  0.56313265895E+01  0.00000000000E+00 0. -1.
</event>
<event>
 7    1  0.2973028E-011  0.5052887E+02  0.7816164E-02  0.1300439E+00
        -11   -1    0    0    0    0  0.00000000000E+00  0.00000000000E+00  0.45593999997E+02  0.45594000000E+02  0.51100000000E-03 0.  1.
         11   -1    0    0    0    0 -0.00000000000E+00 -0.00000000000E+00 -0.45593999997E+02  0.45594000000E+02  0.51100000000E-03 0. -1.
    9900012    2    1    2    0    0 -0.15678026370E+02 -0.25279934397E+02  0.27718033822E+02  0.50528868271E+02  0.30000025597E+02 0.  0.
         12    1    1    2    0    0  0.15678026370E+02  0.25279934397E+02 -0.27718033822E+02  0.40659131729E+02  0.00000000000E+00 0. -1.
         11    1    3    3    0    0 -0.11662834007E+02 -0.34289913755E+01  0.17419149804E+02  0.21241620915E+02  0.51100000000E-03 0. -1.
        -11    1    3    3    0    0  0.12640701922E+01 -0.10964368693E+02 -0.28700408675E+01  0.11404051435E+02  0.51100000000E-03 0.  1.
        -12    1    3    3    0    0 -0.52792625558E+01 -0.10886574328E+02  0.13168924885E+02  0.17883195921E+02  0.00000000000E+00 0.  1.
</event>
<event>
 7    1  0.2973028E-011  0.5052886E+02  0.7816164E-02  0.1300439E+00
        -11   -1    0    0    0    0  0.00000000000E+00  0.00000000000E+00  0.45593999997E+02  0.45594000000E+02  0.51100000000E-03 0. -1.
         11   -1    0    0    0    0 -0.00000000000E+00 -0.00000000000E+00 -0.45593999997E+02  0.45594000000E+02  0.51100000000E-03 0.  1.
    9900012    2    1    2    0    0  0.66892165964E+00 -0.18067728268E+02 -0.36418063892E+02  0.50528860331E+02  0.30000001463E+02 0.  0.
         12    1    1    2    0    0 -0.66892165964E+00  0.18067728268E+02  0.36418063892E+02  0.40659139669E+02  0.00000000000E+00 0. -1.
         11    1    3    3    0    0 -0.12621237509E+02 -0.21055284835E+01 -0.17985619493E+02  0.22072865588E+02  0.51100000000E-03 0. -1.
        -11    1    3    3    0    0  0.31682154902E+01 -0.75437630966E+01 -0.95439895654E+01  0.12571145061E+02  0.51100000000E-03 0.  1.
         12    1    3    3    0    0  0.10121943679E+02 -0.84184366879E+01 -0.88884548336E+01  0.15884849682E+02  0.00000000000E+00 0. -1.
</event>
<event>
 7    1  0.2973028E-011  0.5052886E+02  0.7816164E-02  0.1300439E+00
        -11   -1    0    0    0    0  0.00000000000E+00  0.00000000000E+00  0.45593999997E+02  0.45594000000E+02  0.51100000000E-03 0. -1.
         11   -1    0    0    0    0 -0.00000000000E+00 -0.00000000000E+00 -0.45593999997E+02  0.45594000000E+02  0.51100000000E-03 0.  1.
    9900012    2    1    2    0    0 -0.19574285339E+02 -0.20029123041E+02 -0.29476214638E+02  0.50528860244E+02  0.30000001198E+02 0.  0.
         12    1    1    2    0    0  0.19574285339E+02  0.20029123041E+02  0.29476214638E+02  0.40659139756E+02  0.00000000000E+00 0. -1.
         11    1    3    3    0    0 -0.12768387611E+01 -0.29621507243E+01  0.42922464271E+01  0.53691744046E+01  0.51100000000E-03 0. -1.
        -11    1    3    3    0    0 -0.18900762317E+02 -0.14584337401E+02 -0.19963975214E+02  0.31120765097E+02  0.51100000000E-03 0.  1.
        -12    1    3    3    0    0  0.60331573947E+00 -0.24826349160E+01 -0.13804485851E+02  0.14038920743E+02  0.00000000000E+00 0.  1.
</event>
<event>
 7    1  0.2973028E-011  0.5052886E+02  0.7816164E-02  0.1300439E+00
        -11   -1    0    0    0    0  0.00000000000E+00  0.00000000000E+00  0.45593999997E+02  0.45594000000E+02  0.51100000000E-03 0. -1.
         11   -1    0    0    0    0 -0.00000000000E+00 -0.00000000000E+00 -0.45593999997E+02  0.45594000000E+02  0.51100000000E-03 0.  1.
    9900012    2    1    2    0    0  0.35527036008E+02 -0.15466562838E+02 -0.12319925028E+02  0.50528863189E+02  0.30000010150E+02 0.  0.
         12    1    1    2    0    0 -0.35527036008E+02  0.15466562838E+02  0.12319925028E+02  0.40659136811E+02  0.00000000000E+00 0. -1.
         11    1    3    3    0    0  0.42130606693E+01  0.59862212377E+01 -0.13880849043E+01  0.74506043294E+01  0.51100000000E-03 0. -1.
        -11    1    3    3    0    0  0.21758880272E+02 -0.23305196912E+02 -0.74635717427E+01  0.32745778006E+02  0.51100000000E-03 0.  1.
        -12    1    3    3    0    0  0.95550950661E+01  0.18524128360E+01 -0.34682683812E+01  0.10332480854E+02  0.00000000000E+00 0.  1.
</event>
<event>
 7    1  0.2973028E-011  0.5052885E+02  0.7816164E-02  0.1300439E+00
        -11   -1    0    0    0    0  0.00000000000E+00  0.00000000000E+00  0.45593999997E+02  0.45594000000E+02  0.51100000000E-03 0. -1.
         11   -1    0    0    0    0 -0.00000000000E+00 -0.00000000000E+00 -0.45593999997E+02  0.45594000000E+02  0.51100000000E-03 0.  1.
    9900012    2    1    2    0    0 -0.36061165063E+02  0.38202774698E+01 -0.18389236626E+02  0.50528853805E+02  0.29999981625E+02 0.  0.
         12    1    1    2    0    0  0.36061165063E+02 -0.38202774698E+01  0.18389236626E+02  0.40659146195E+02  0.00000000000E+00 0. -1.
         11    1    3    3    0    0 -0.49589126304E+01  0.84729677578E+01  0.78224846997E+00  0.98485486256E+01  0.51100000000E-03 0. -1.
        -11    1    3    3    0    0 -0.28153561105E+02  0.25139075966E+00 -0.10015143306E+02  0.29882926495E+02  0.51100000000E-03 0.  1.
         12    1    3    3    0    0 -0.29486913271E+01 -0.49040810476E+01 -0.91563417909E+01  0.10797378684E+02  0.00000000000E+00 0. -1.
</event>
<event>
 7    1  0.2973028E-011  0.5052886E+02  0.7816164E-02  0.1300439E+00
        -11   -1    0    0    0    0  0.00000000000E+00  0.00000000000E+00  0.45593999997E+02  0.45594000000E+02  0.51100000000E-03 0. -1.
         11   -1    0    0    0    0 -0.00000000000E+00 -0.00000000000E+00 -0.45593999997E+02  0.45594000000E+02  0.51100000000E-03 0.  1.
    9900012    2    1    2    0    0  0.64236749127E+01 -0.39162418035E+02 -0.88434850552E+01  0.50528858178E+02  0.29999994919E+02 0.  0.
         12    1    1    2    0    0 -0.64236749127E+01  0.39162418035E+02  0.88434850552E+01  0.40659141822E+02  0.00000000000E+00 0. -1.
         11    1    3    3    0    0  0.11949602985E+02 -0.11036669116E+02 -0.67582237125E+01  0.17614615088E+02  0.51100000000E-03 0.  1.
        -11    1    3    3    0    0 -0.43449879604E+01 -0.27318826451E+02 -0.63793106619E+01  0.28388251158E+02  0.51100000000E-03 0. -1.
         12    1    3    3    0    0 -0.11809401122E+01 -0.80692246845E+00  0.42940493192E+01  0.45259919327E+01  0.00000000000E+00 0. -1.
</event>
<event>
 7    1  0.2973028E-011  0.5052886E+02  0.7816164E-02  0.1300439E+00
        -11   -1    0    0    0    0  0.00000000000E+00  0.00000000000E+00  0.45593999997E+02  0.45594000000E+02  0.51100000000E-03 0. -1.
         11   -1    0    0    0    0 -0.00000000000E+00 -0.00000000000E+00 -0.45593999997E+02  0.45594000000E+02  0.51100000000E-03 0.  1.
    9900012    2    1    2    0    0  0.22495967386E+02 -0.34343579759E+01 -0.33694250463E+02  0.50528857392E+02  0.29999992529E+02 0.  0.
         12    1    1    2    0    0 -0.22495967386E+02  0.34343579759E+01  0.33694250463E+02  0.40659142608E+02  0.00000000000E+00 0. -1.
         11    1    3    3    0    0 -0.43924987131E+01  0.36170904937E+01 -0.72360209256E+01  0.92052912872E+01  0.51100000000E-03 0. -1.
        -11    1    3    3    0    0  0.19870074185E+02 -0.11497692410E+02 -0.22410014301E+02  0.32081544852E+02  0.51100000000E-03 0.  1.
        -12    1    3    3    0    0  0.70183919139E+01  0.44462439399E+01 -0.40482152363E+01  0.92420212524E+01  0.00000000000E+00 0.  1.
</event>
<event>
 7    1  0.2973028E-011  0.5052884E+02  0.7816164E-02  0.1300439E+00
        -11   -1    0    0    0    0  0.00000000000E+00  0.00000000000E+00  0.45593999997E+02  0.45594000000E+02  0.51100000000E-03 0. -1.
         11   -1    0    0    0    0 -0.00000000000E+00 -0.00000000000E+00 -0.45593999997E+02  0.45594000000E+02  0.51100000000E-03 0.  1.
    9900012    2    1    2    0    0 -0.18585773906E+02  0.24207770711E+02 -0.26864845708E+02  0.50528842490E+02  0.29999947233E+02 0.  0.
         12    1    1    2    0    0  0.18585773906E+02 -0.24207770711E+02  0.26864845708E+02  0.40659157510E+02  0.00000000000E+00 0. -1.
         11    1    3    3    0    0 -0.16348724481E+02  0.28105341751E+02 -0.21065971322E+02  0.38742304721E+02  0.51100000000E-03 0. -1.
        -11    1    3    3    0    0  0.73140686951E+00 -0.33258487223E+01 -0.75574498499E+01  0.82892263950E+01  0.51100000000E-03 0.  1.
         12    1    3    3    0    0 -0.29684562949E+01 -0.57172231812E+00  0.17585754639E+01  0.34973113738E+01  0.00000000000E+00 0. -1.
</event>
<event>
 7    1  0.2973028E-011  0.5052882E+02  0.7816164E-02  0.1300439E+00
        -11   -1    0    0    0    0  0.00000000000E+00  0.00000000000E+00  0.45593999997E+02  0.45594000000E+02  0.51100000000E-03 0.  1.
         11   -1    0    0    0    0 -0.00000000000E+00 -0.00000000000E+00 -0.45593999997E+02  0.45594000000E+02  0.51100000000E-03 0. -1.
    9900012    2    1    2    0    0 -0.58656733654E+01 -0.32668076150E+02  0.23485308430E+02  0.50528818559E+02  0.29999874492E+02 0.  0.
         12    1    1    2    0    0  0.58656733654E+01  0.32668076150E+02 -0.23485308430E+02  0.40659181441E+02  0.00000000000E+00 0. -1.
         11    1    3    3    0    0 -0.58593234662E+01 -0.12571155239E+02  0.21387649308E+02  0.25491119213E+02  0.51100000000E-03 0. -1.
        -11    1    3    3    0    0 -0.55962112775E+01 -0.13167262270E+02 -0.32231775058E+01  0.14665716820E+02  0.51100000000E-03 0.  1.
        -12    1    3    3    0    0  0.55898613783E+01 -0.69296586411E+01  0.53208366280E+01  0.10371982527E+02  0.00000000000E+00 0.  1.
</event>
<event>
 7    1  0.2973028E-011  0.5052886E+02  0.7816164E-02  0.1300439E+00
        -11   -1    0    0    0    0  0.00000000000E+00  0.00000000000E+00  0.45593999997E+02  0.45594000000E+02  0.51100000000E-03 0. -1.
         11   -1    0    0    0    0 -0.00000000000E+00 -0.00000000000E+00 -0.45593999997E+02  0.45594000000E+02  0.51100000000E-03 0.  1.
    9900012    2    1    2    0    0 -0.37863789512E+02 -0.13875670681E+02 -0.51927700269E+01  0.50528860146E+02  0.30000000901E+02 0.  0.
         12    1    1    2    0    0  0.37863789512E+02  0.13875670681E+02  0.51927700269E+01  0.40659139854E+02  0.00000000000E+00 0. -1.
         11    1    3    3    0    0 -0.86377924928E+01  0.95638372921E-01 -0.39864233256E+01  0.95137887847E+01  0.51100000000E-03 0. -1.
        -11    1    3    3    0    0 -0.20060989792E+02 -0.12233127713E+02  0.10759288495E+02  0.25842890981E+02  0.51100000000E-03 0.  1.
        -12    1    3    3    0    0 -0.91650072278E+01 -0.17381813407E+01 -0.11965635196E+02  0.15172180381E+02  0.00000000000E+00 0.  1.
</event>
<event>
 7    1  0.2973028E-011  0.5052887E+02  0.7816164E-02  0.1300439E+00
        -11   -1    0    0    0    0  0.00000000000E+00  0.00000000000E+00  0.45593999997E+02  0.45594000000E+02  0.51100000000E-03 0. -1.
         11   -1    0    0    0    0 -0.00000000000E+00 -0.00000000000E+00 -0.45593999997E+02  0.45594000000E+02  0.51100000000E-03 0.  1.
    9900012    2    1    2    0    0  0.26292489552E+02 -0.30000626268E+02 -0.78633693020E+01  0.50528866215E+02  0.30000019348E+02 0.  0.
         12    1    1    2    0    0 -0.26292489552E+02  0.30000626268E+02  0.78633693020E+01  0.40659133785E+02  0.00000000000E+00 0. -1.
         11    1    3    3    0    0  0.34188752006E+01  0.94865438306E+00 -0.10287306134E+02  0.10881972272E+02  0.51100000000E-03 0. -1.
        -11    1    3    3    0    0  0.17105589613E+02 -0.23862287663E+02 -0.21304327494E+01  0.29437199467E+02  0.51100000000E-03 0.  1.
        -12    1    3    3    0    0  0.57680247385E+01 -0.70869929884E+01  0.45543695816E+01  0.10209694476E+02  0.00000000000E+00 0.  1.
</event>
<event>
 7    1  0.2973028E-011  0.5052888E+02  0.7816164E-02  0.1300439E+00
        -11   -1    0    0    0    0  0.00000000000E+00  0.00000000000E+00  0.45593999997E+02  0.45594000000E+02  0.51100000000E-03 0.  1.
         11   -1    0    0    0    0 -0.00000000000E+00 -0.00000000000E+00 -0.45593999997E+02  0.45594000000E+02  0.51100000000E-03 0. -1.
    9900012    2    1    2    0    0  0.22570835993E+01 -0.83467643317E+01  0.39729095213E+02  0.50528881617E+02  0.30000066164E+02 0.  0.
         12    1    1    2    0    0 -0.22570835993E+01  0.83467643317E+01 -0.39729095213E+02  0.40659118383E+02  0.00000000000E+00 0. -1.
         11    1    3    3    0    0  0.19570385582E+01  0.42787652531E+01  0.35890804563E+02  0.36197896133E+02  0.51100000000E-03 0. -1.
        -11    1    3    3    0    0 -0.22646256233E+01 -0.28281095046E+01  0.44608971705E+00  0.36504422856E+01  0.51100000000E-03 0.  1.
         12    1    3    3    0    0  0.25646706644E+01 -0.97974200802E+01  0.33922009333E+01  0.10680543199E+02  0.00000000000E+00 0. -1.
</event>
<event>
 7    1  0.3099908E-011  0.5052888E+02  0.7816164E-02  0.1300439E+00
        -11   -1    0    0    0    0  0.00000000000E+00  0.00000000000E+00  0.45593999997E+02  0.45594000000E+02  0.51100000000E-03 0.  1.
         11   -1    0    0    0    0 -0.00000000000E+00 -0.00000000000E+00 -0.45593999997E+02  0.45594000000E+02  0.51100000000E-03 0. -1.
    9900012    2    1    2    0    0 -0.11413814433E+02  0.36044893148E+02 -0.14955077546E+02  0.50528882617E+02  0.30000069201E+02 0.  0.
         12    1    1    2    0    0  0.11413814433E+02 -0.36044893148E+02  0.14955077546E+02  0.40659117383E+02  0.00000000000E+00 0. -1.
         11    1    3    3    0    0 -0.11845381154E+02  0.18012083374E+01 -0.72206938563E+00  0.12003282493E+02  0.51100000000E-03 0. -1.
        -11    1    3    3    0    0 -0.46585327220E+01  0.21232110932E+02 -0.99969695250E+01  0.23925799082E+02  0.51100000000E-03 0.  1.
         12    1    3    3    0    0  0.50900994424E+01  0.13011573879E+02 -0.42360386354E+01  0.14599801042E+02  0.00000000000E+00 0. -1.
</event>
<event>
 7    1  0.2973028E-011  0.5052886E+02  0.7816164E-02  0.1300439E+00
        -11   -1    0    0    0    0  0.00000000000E+00  0.00000000000E+00  0.45593999997E+02  0.45594000000E+02  0.51100000000E-03 0.  1.
         11   -1    0    0    0    0 -0.00000000000E+00 -0.00000000000E+00 -0.45593999997E+02  0.45594000000E+02  0.51100000000E-03 0. -1.
    9900012    2    1    2    0    0  0.10829469971E+02  0.31531872493E+02  0.23272932989E+02  0.50528858190E+02  0.29999994955E+02 0.  0.
         12    1    1    2    0    0 -0.10829469971E+02 -0.31531872493E+02 -0.23272932989E+02  0.40659141810E+02  0.00000000000E+00 0. -1.
         11    1    3    3    0    0 -0.59688510957E+01  0.35531841612E+01  0.10372956326E+02  0.12484010745E+02  0.51100000000E-03 0. -1.
        -11    1    3    3    0    0  0.16084140568E+02  0.27995045850E+02  0.82278981797E+01  0.33318470533E+02  0.51100000000E-03 0.  1.
         12    1    3    3    0    0  0.71418049910E+00 -0.16357518167E-01  0.46720784835E+01  0.47263769115E+01  0.00000000000E+00 0. -1.
</event>
<event>
 7    1  0.2973028E-011  0.5052886E+02  0.7816164E-02  0.1300439E+00
        -11   -1    0    0    0    0  0.00000000000E+00  0.00000000000E+00  0.45593999997E+02  0.45594000000E+02  0.51100000000E-03 0. -1.
         11   -1    0    0    0    0 -0.00000000000E+00 -0.00000000000E+00 -0.45593999997E+02  0.45594000000E+02  0.51100000000E-03 0.  1.
    9900012    2    1    2    0    0  0.11626226516E+02 -0.36661521757E+02 -0.13188221502E+02  0.50528861951E+02  0.30000006386E+02 0.  0.
         12    1    1    2    0    0 -0.11626226516E+02  0.36661521757E+02  0.13188221502E+02  0.40659138049E+02  0.00000000000E+00 0. -1.
         11    1    3    3    0    0 -0.21757478454E+01 -0.17465467227E+02  0.53410917205E+01  0.18393033604E+02  0.51100000000E-03 0. -1.
        -11    1    3    3    0    0  0.78451563499E+01 -0.18119762211E+02 -0.16560067976E+02  0.25770295155E+02  0.51100000000E-03 0.  1.
         12    1    3    3    0    0  0.59568180119E+01 -0.10762923195E+01 -0.19692452461E+01  0.63655331924E+01  0.00000000000E+00 0. -1.
</event>
<event>
 7    1  0.2973028E-011  0.5052885E+02  0.7816164E-02  0.1300439E+00
        -11   -1    0    0    0    0  0.00000000000E+00  0.00000000000E+00  0.45593999997E+02  0.45594000000E+02  0.51100000000E-03 0.  1.
         11   -1    0    0    0    0 -0.00000000000E+00 -0.00000000000E+00 -0.45593999997E+02  0.45594000000E+02  0.51100000000E-03 0. -1.
    9900012    2    1    2    0    0 -0.72123225259E+01 -0.17566512403E+02  0.35952277844E+02  0.50528852980E+02  0.29999979117E+02 0.  0.
         12    1    1    2    0    0  0.72123225259E+01  0.17566512403E+02 -0.35952277844E+02  0.40659147020E+02  0.00000000000E+00 0. -1.
         11    1    3    3    0    0 -0.11313242279E+02 -0.74401925271E+01  0.35889707256E+01  0.14008091477E+02  0.51100000000E-03 0. -1.
        -11    1    3    3    0    0  0.31423513028E+00 -0.91766297937E+01  0.90833945117E+01  0.12915778498E+02  0.51100000000E-03 0.  1.
         12    1    3    3    0    0  0.37866846226E+01 -0.94969008243E+00  0.23279912607E+02  0.23604983005E+02  0.00000000000E+00 0. -1.
</event>
<event>
 7    1  0.2973028E-011  0.5052886E+02  0.7816164E-02  0.1300439E+00
        -11   -1    0    0    0    0  0.00000000000E+00  0.00000000000E+00  0.45593999997E+02  0.45594000000E+02  0.51100000000E-03 0.  1.
         11   -1    0    0    0    0 -0.00000000000E+00 -0.00000000000E+00 -0.45593999997E+02  0.45594000000E+02  0.51100000000E-03 0. -1.
    9900012    2    1    2    0    0 -0.35010194208E+02  0.29522730401E+01  0.20463047564E+02  0.50528856745E+02  0.29999990563E+02 0.  0.
         12    1    1    2    0    0  0.35010194208E+02 -0.29522730401E+01 -0.20463047564E+02  0.40659143255E+02  0.00000000000E+00 0. -1.
         11    1    3    3    0    0 -0.14964586033E+02 -0.98186258818E+01  0.15729962499E+02  0.23828050063E+02  0.51100000000E-03 0. -1.
        -11    1    3    3    0    0 -0.12460440876E+02  0.50414102682E+01  0.76753231076E+01  0.15478662390E+02  0.51100000000E-03 0.  1.
         12    1    3    3    0    0 -0.75851672990E+01  0.77294886537E+01 -0.29422380423E+01  0.11222144291E+02  0.00000000000E+00 0. -1.
</event>
<event>
 7    1  0.2973028E-011  0.5052886E+02  0.7816164E-02  0.1300439E+00
        -11   -1    0    0    0    0  0.00000000000E+00  0.00000000000E+00  0.45593999997E+02  0.45594000000E+02  0.51100000000E-03 0.  1.
         11   -1    0    0    0    0 -0.00000000000E+00 -0.00000000000E+00 -0.45593999997E+02  0.45594000000E+02  0.51100000000E-03 0. -1.
    9900012    2    1    2    0    0 -0.33823959083E+02  0.22559257133E+02 -0.43008553478E+00  0.50528864938E+02  0.30000015464E+02 0.  0.
         12    1    1    2    0    0  0.33823959083E+02 -0.22559257133E+02  0.43008553478E+00  0.40659135062E+02  0.00000000000E+00 0. -1.
         11    1    3    3    0    0  0.36118307236E+01  0.25503773564E+01  0.22737510388E+01  0.49718899710E+01  0.51100000000E-03 0. -1.
        -11    1    3    3    0    0 -0.18152293235E+02  0.10081292812E+02  0.68394685621E+01  0.21861302452E+02  0.51100000000E-03 0.  1.
         12    1    3    3    0    0 -0.19283496572E+02  0.99275869651E+01 -0.95433051357E+01  0.23695672514E+02  0.00000000000E+00 0. -1.
</event>
<event>
 7    1  0.2973028E-011  0.5052885E+02  0.7816164E-02  0.1300439E+00
        -11   -1    0    0    0    0  0.00000000000E+00  0.00000000000E+00  0.45593999997E+02  0.45594000000E+02  0.51100000000E-03 0.  1.
         11   -1    0    0    0    0 -0.00000000000E+00 -0.00000000000E+00 -0.45593999997E+02  0.45594000000E+02  0.51100000000E-03 0. -1.
    9900012    2    1    2    0    0 -0.38791484509E+02 -0.40518176603E+01  0.11487808292E+02  0.50528852983E+02  0.29999979128E+02 0.  0.
         12    1    1    2    0    0  0.38791484509E+02  0.40518176603E+01 -0.11487808292E+02  0.40659147017E+02  0.00000000000E+00 0. -1.
         11    1    3    3    0    0 -0.43495740673E+01 -0.88563130649E+01  0.20908503265E+01  0.10085867886E+02  0.51100000000E-03 0. -1.
        -11    1    3    3    0    0 -0.29493153726E+02  0.94567676248E+01  0.11934872804E+02  0.33192134004E+02  0.51100000000E-03 0.  1.
        -12    1    3    3    0    0 -0.49487567156E+01 -0.46522722202E+01 -0.25379148387E+01  0.72508510927E+01  0.00000000000E+00 0.  1.
</event>
<event>
 7    1  0.2973028E-011  0.5052885E+02  0.7816164E-02  0.1300439E+00
        -11   -1    0    0    0    0  0.00000000000E+00  0.00000000000E+00  0.45593999997E+02  0.45594000000E+02  0.51100000000E-03 0. -1.
         11   -1    0    0    0    0 -0.00000000000E+00 -0.00000000000E+00 -0.45593999997E+02  0.45594000000E+02  0.51100000000E-03 0.  1.
    9900012    2    1    2    0    0  0.34483502990E+02  0.18321728507E+02 -0.11329993640E+02  0.50528850109E+02  0.29999970391E+02 0.  0.
         12    1    1    2    0    0 -0.34483502990E+02 -0.18321728507E+02  0.11329993640E+02  0.40659149891E+02  0.00000000000E+00 0. -1.
         11    1    3    3    0    0  0.76062573958E+01  0.14230235453E+01  0.27093862496E+01  0.81988366060E+01  0.51100000000E-03 0. -1.
        -11    1    3    3    0    0  0.53211317527E+01  0.15721932163E+02 -0.12325391023E+02  0.20673868970E+02  0.51100000000E-03 0.  1.
        -12    1    3    3    0    0  0.21556113842E+02  0.11767727989E+01 -0.17139888666E+01  0.21656144533E+02  0.00000000000E+00 0.  1.
</event>
<event>
 7    1  0.2973028E-011  0.5052886E+02  0.7816164E-02  0.1300439E+00
        -11   -1    0    0    0    0  0.00000000000E+00  0.00000000000E+00  0.45593999997E+02  0.45594000000E+02  0.51100000000E-03 0. -1.
         11   -1    0    0    0    0 -0.00000000000E+00 -0.00000000000E+00 -0.45593999997E+02  0.45594000000E+02  0.51100000000E-03 0.  1.
    9900012    2    1    2    0    0  0.24054103781E+02  0.21249109767E+02 -0.24960788899E+02  0.50528861334E+02  0.30000004511E+02 0.  0.
         12    1    1    2    0    0 -0.24054103781E+02 -0.21249109767E+02  0.24960788899E+02  0.40659138666E+02  0.00000000000E+00 0. -1.
         11    1    3    3    0    0  0.79145782971E+01  0.17091021469E+02 -0.20889887899E+01  0.18950130314E+02  0.51100000000E-03 0. -1.
        -11    1    3    3    0    0  0.12412163105E+02 -0.37056236119E+01 -0.15265829433E+02  0.20020963709E+02  0.51100000000E-03 0.  1.
        -12    1    3    3    0    0  0.37273623783E+01  0.78637119095E+01 -0.76059706763E+01  0.11557767311E+02  0.00000000000E+00 0.  1.
</event>
<event>
 7    1  0.2973028E-011  0.5052886E+02  0.7816164E-02  0.1300439E+00
        -11   -1    0    0    0    0  0.00000000000E+00  0.00000000000E+00  0.45593999997E+02  0.45594000000E+02  0.51100000000E-03 0.  1.
         11   -1    0    0    0    0 -0.00000000000E+00 -0.00000000000E+00 -0.45593999997E+02  0.45594000000E+02  0.51100000000E-03 0. -1.
    9900012    2    1    2    0    0 -0.32035409760E+02 -0.22205382967E+02  0.11568018908E+02  0.50528861143E+02  0.30000003929E+02 0.  0.
         12    1    1    2    0    0  0.32035409760E+02  0.22205382967E+02 -0.11568018908E+02  0.40659138857E+02  0.00000000000E+00 0. -1.
         11    1    3    3    0    0 -0.57776733061E+01 -0.19515889272E+02 -0.14397072900E+01  0.20404024119E+02  0.51100000000E-03 0. -1.
        -11    1    3    3    0    0 -0.24419686781E+02 -0.42152400441E+01  0.11755954339E+02  0.27427938563E+02  0.51100000000E-03 0.  1.
         12    1    3    3    0    0 -0.18380496724E+01  0.15257463496E+01  0.12517718592E+01  0.26968984610E+01  0.00000000000E+00 0. -1.
</event>
<event>
 7    1  0.2973028E-011  0.5052886E+02  0.7816164E-02  0.1300439E+00
        -11   -1    0    0    0    0  0.00000000000E+00  0.00000000000E+00  0.45593999997E+02  0.45594000000E+02  0.51100000000E-03 0.  1.
         11   -1    0    0    0    0 -0.00000000000E+00 -0.00000000000E+00 -0.45593999997E+02  0.45594000000E+02  0.51100000000E-03 0. -1.
    9900012    2    1    2    0    0  0.87683313197E+01 -0.17121724956E+02  0.35820784529E+02  0.50528859529E+02  0.29999999023E+02 0.  0.
         12    1    1    2    0    0 -0.87683313197E+01  0.17121724956E+02 -0.35820784529E+02  0.40659140471E+02  0.00000000000E+00 0. -1.
         11    1    3    3    0    0  0.40250279383E+01 -0.16514930086E+02  0.16000028794E+02  0.23344050362E+02  0.51100000000E-03 0. -1.
        -11    1    3    3    0    0  0.42430703737E+01  0.83723023778E+01  0.12228973859E+02  0.15415800181E+02  0.51100000000E-03 0.  1.
        -12    1    3    3    0    0  0.50023300773E+00 -0.89790972481E+01  0.75917818758E+01  0.11769008986E+02  0.00000000000E+00 0.  1.
</event>
<event>
 7    1  0.2973028E-011  0.5052888E+02  0.7816164E-02  0.1300439E+00
        -11   -1    0    0    0    0  0.00000000000E+00  0.00000000000E+00  0.45593999997E+02  0.45594000000E+02  0.51100000000E-03 0.  1.
         11   -1    0    0    0    0 -0.00000000000E+00 -0.00000000000E+00 -0.45593999997E+02  0.45594000000E+02  0.51100000000E-03 0. -1.
    9900012    2    1    2    0    0  0.50313018668E+01  0.31792693378E+01  0.40221167049E+02  0.50528880103E+02  0.30000061561E+02 0.  0.
         12    1    1    2    0    0 -0.50313018668E+01 -0.31792693378E+01 -0.40221167049E+02  0.40659119897E+02  0.00000000000E+00 0. -1.
         11    1    3    3    0    0  0.69238784337E+00  0.70940174644E+01  0.58491229759E+01  0.92204514293E+01  0.51100000000E-03 0. -1.
        -11    1    3    3    0    0  0.12114935305E+01 -0.13118362999E+02  0.18985538005E+02  0.23108652448E+02  0.51100000000E-03 0.  1.
        -12    1    3    3    0    0  0.31274204929E+01  0.92036148729E+01  0.15386506068E+02  0.18199776225E+02  0.00000000000E+00 0.  1.
</event>
<event>
 7    1  0.2973028E-011  0.5052886E+02  0.7816164E-02  0.1300439E+00
        -11   -1    0    0    0    0  0.00000000000E+00  0.00000000000E+00  0.45593999997E+02  0.45594000000E+02  0.51100000000E-03 0. -1.
         11   -1    0    0    0    0 -0.00000000000E+00 -0.00000000000E+00 -0.45593999997E+02  0.45594000000E+02  0.51100000000E-03 0.  1.
    9900012    2    1    2    0    0 -0.17525381792E+02 -0.32915395214E+02  0.16205036452E+02  0.50528862583E+02  0.30000008308E+02 0.  0.
         12    1    1    2    0    0  0.17525381792E+02  0.32915395214E+02 -0.16205036452E+02  0.40659137417E+02  0.00000000000E+00 0. -1.
         11    1    3    3    0    0 -0.45703173677E+01  0.24474278194E+01  0.64178435859E+01  0.82502375922E+01  0.51100000000E-03 0. -1.
        -11    1    3    3    0    0 -0.13485646240E+02 -0.34632266117E+02  0.12663855319E+02  0.39263593094E+02  0.51100000000E-03 0.  1.
        -12    1    3    3    0    0  0.53058181631E+00 -0.73055691691E+00 -0.28766624524E+01  0.30150318967E+01  0.00000000000E+00 0.  1.
</event>
<event>
 7    1  0.2973028E-011  0.5052886E+02  0.7816164E-02  0.1300439E+00
        -11   -1    0    0    0    0  0.00000000000E+00  0.00000000000E+00  0.45593999997E+02  0.45594000000E+02  0.51100000000E-03 0.  1.
         11   -1    0    0    0    0 -0.00000000000E+00 -0.00000000000E+00 -0.45593999997E+02  0.45594000000E+02  0.51100000000E-03 0. -1.
    9900012    2    1    2    0    0  0.61124797564E+01  0.23967504135E+02  0.32270137333E+02  0.50528862937E+02  0.30000009382E+02 0.  0.
         12    1    1    2    0    0 -0.61124797564E+01 -0.23967504135E+02 -0.32270137333E+02  0.40659137063E+02  0.00000000000E+00 0. -1.
         11    1    3    3    0    0  0.13168565429E+02  0.35509402265E+01  0.13745376479E+02  0.19363772018E+02  0.51100000000E-03 0. -1.
        -11    1    3    3    0    0 -0.62015423359E+01  0.14833204610E+02  0.19667138700E+02  0.25402350900E+02  0.51100000000E-03 0.  1.
         12    1    3    3    0    0 -0.85454333684E+00  0.55833592986E+01 -0.11423778466E+01  0.57627400181E+01  0.00000000000E+00 0. -1.
</event>
<event>
 7    1  0.2973028E-011  0.5052885E+02  0.7816164E-02  0.1300439E+00
        -11   -1    0    0    0    0  0.00000000000E+00  0.00000000000E+00  0.45593999997E+02  0.45594000000E+02  0.51100000000E-03 0. -1.
         11   -1    0    0    0    0 -0.00000000000E+00 -0.00000000000E+00 -0.45593999997E+02  0.45594000000E+02  0.51100000000E-03 0.  1.
    9900012    2    1    2    0    0  0.36006538492E+02 -0.18401996226E+01 -0.18796517733E+02  0.50528853087E+02  0.29999979442E+02 0.  0.
         12    1    1    2    0    0 -0.36006538492E+02  0.18401996226E+01  0.18796517733E+02  0.40659146913E+02  0.00000000000E+00 0. -1.
         11    1    3    3    0    0  0.19904917126E+02  0.10654220231E+02 -0.96739671940E+01  0.24562242896E+02  0.51100000000E-03 0. -1.
        -11    1    3    3    0    0  0.14450360314E+02 -0.13046663399E+02 -0.11805379890E+02  0.22768296679E+02  0.51100000000E-03 0.  1.
         12    1    3    3    0    0  0.16512610523E+01  0.55224354530E+00  0.26828293509E+01  0.31983135122E+01  0.00000000000E+00 0. -1.
</event>
<event>
 7    1  0.2973028E-011  0.5052891E+02  0.7816164E-02  0.1300439E+00
        -11   -1    0    0    0    0  0.00000000000E+00  0.00000000000E+00  0.45593999997E+02  0.45594000000E+02  0.51100000000E-03 0. -1.
         11   -1    0    0    0    0 -0.00000000000E+00 -0.00000000000E+00 -0.45593999997E+02  0.45594000000E+02  0.51100000000E-03 0.  1.
    9900012    2    1    2    0    0  0.34112333162E+02  0.62327978574E+01 -0.21228808358E+02  0.50528913105E+02  0.30000161872E+02 0.  0.
         12    1    1    2    0    0 -0.34112333162E+02 -0.62327978574E+01  0.21228808358E+02  0.40659086895E+02  0.00000000000E+00 0. -1.
         11    1    3    3    0    0  0.16112749579E+02  0.10804434734E+02 -0.18688223516E+02  0.26937078672E+02  0.51100000000E-03 0. -1.
        -11    1    3    3    0    0  0.11620003051E+02  0.48452541739E+00  0.48464234479E+01  0.12599486350E+02  0.51100000000E-03 0.  1.
         12    1    3    3    0    0  0.63795805317E+01 -0.50561622939E+01 -0.73870082893E+01  0.10992348083E+02  0.00000000000E+00 0. -1.
</event>
<event>
 7    1  0.2973028E-011  0.5052886E+02  0.7816164E-02  0.1300439E+00
        -11   -1    0    0    0    0  0.00000000000E+00  0.00000000000E+00  0.45593999997E+02  0.45594000000E+02  0.51100000000E-03 0. -1.
         11   -1    0    0    0    0 -0.00000000000E+00 -0.00000000000E+00 -0.45593999997E+02  0.45594000000E+02  0.51100000000E-03 0.  1.
    9900012    2    1    2    0    0  0.38548182894E+00  0.40200305777E+02 -0.60788645327E+01  0.50528858657E+02  0.29999996372E+02 0.  0.
         12    1    1    2    0    0 -0.38548182894E+00 -0.40200305777E+02  0.60788645327E+01  0.40659141343E+02  0.00000000000E+00 0. -1.
         11    1    3    3    0    0 -0.89324338359E+01  0.20712659450E+02 -0.16442952353E+01  0.22616505982E+02  0.51100000000E-03 0.  1.
        -11    1    3    3    0    0  0.10106092877E+02  0.15219995722E+02  0.37479750909E+01  0.18650166234E+02  0.51100000000E-03 0. -1.
        -12    1    3    3    0    0 -0.78817721207E+00  0.42676506045E+01 -0.81825443883E+01  0.92621864409E+01  0.00000000000E+00 0.  1.
</event>
<event>
 7    1  0.2973028E-011  0.5052887E+02  0.7816164E-02  0.1300439E+00
        -11   -1    0    0    0    0  0.00000000000E+00  0.00000000000E+00  0.45593999997E+02  0.45594000000E+02  0.51100000000E-03 0.  1.
         11   -1    0    0    0    0 -0.00000000000E+00 -0.00000000000E+00 -0.45593999997E+02  0.45594000000E+02  0.51100000000E-03 0. -1.
    9900012    2    1    2    0    0 -0.27653439202E+02 -0.24259625395E+02  0.17318275166E+02  0.50528870906E+02  0.30000033605E+02 0.  0.
         12    1    1    2    0    0  0.27653439202E+02  0.24259625395E+02 -0.17318275166E+02  0.40659129094E+02  0.00000000000E+00 0. -1.
         11    1    3    3    0    0  0.19598902390E+01 -0.84051275447E+01  0.32700749993E+01  0.92293406890E+01  0.51100000000E-03 0. -1.
        -11    1    3    3    0    0 -0.11281274558E+02  0.25681823279E+01 -0.37504160578E+00  0.11575982575E+02  0.51100000000E-03 0.  1.
         12    1    3    3    0    0 -0.18332054883E+02 -0.18422680178E+02  0.14423241773E+02  0.29723547642E+02  0.00000000000E+00 0. -1.
</event>
<event>
 7    1  0.2973028E-011  0.5052886E+02  0.7816164E-02  0.1300439E+00
        -11   -1    0    0    0    0  0.00000000000E+00  0.00000000000E+00  0.45593999997E+02  0.45594000000E+02  0.51100000000E-03 0.  1.
         11   -1    0    0    0    0 -0.00000000000E+00 -0.00000000000E+00 -0.45593999997E+02  0.45594000000E+02  0.51100000000E-03 0. -1.
    9900012    2    1    2    0    0 -0.25508990885E+02 -0.31601856003E+02 -0.19441485104E+01  0.50528860409E+02  0.30000001700E+02 0.  0.
         12    1    1    2    0    0  0.25508990885E+02  0.31601856003E+02  0.19441485104E+01  0.40659139591E+02  0.00000000000E+00 0. -1.
         11    1    3    3    0    0 -0.11276236250E+02 -0.27884326064E+02  0.45980914374E+01  0.30427480821E+02  0.51100000000E-03 0. -1.
        -11    1    3    3    0    0 -0.88470265143E+01  0.74883772732E+00  0.19579047606E+01  0.90919759898E+01  0.51100000000E-03 0.  1.
         12    1    3    3    0    0 -0.53857281212E+01 -0.44663676664E+01 -0.85001447083E+01  0.11009403598E+02  0.00000000000E+00 0. -1.
</event>
<event>
 7    1  0.2973028E-011  0.5052884E+02  0.7816164E-02  0.1300439E+00
        -11   -1    0    0    0    0  0.00000000000E+00  0.00000000000E+00  0.45593999997E+02  0.45594000000E+02  0.51100000000E-03 0.  1.
         11   -1    0    0    0    0 -0.00000000000E+00 -0.00000000000E+00 -0.45593999997E+02  0.45594000000E+02  0.51100000000E-03 0. -1.
    9900012    2    1    2    0    0  0.51522920414E+01 -0.15017605083E+02  0.37431169209E+02  0.50528843539E+02  0.29999950422E+02 0.  0.
         12    1    1    2    0    0 -0.51522920414E+01  0.15017605083E+02 -0.37431169209E+02  0.40659156461E+02  0.00000000000E+00 0. -1.
         11    1    3    3    0    0  0.28539460973E+01 -0.14241124945E+02  0.20235522656E+01  0.14664563139E+02  0.51100000000E-03 0. -1.
        -11    1    3    3    0    0 -0.50494230863E+00  0.18149817095E+01  0.12298181285E+02  0.12441639302E+02  0.51100000000E-03 0.  1.
         12    1    3    3    0    0  0.28032882528E+01 -0.25914618472E+01  0.23109435659E+02  0.23422641098E+02  0.00000000000E+00 0. -1.
</event>
<event>
 7    1  0.2973028E-011  0.5052886E+02  0.7816164E-02  0.1300439E+00
        -11   -1    0    0    0    0  0.00000000000E+00  0.00000000000E+00  0.45593999997E+02  0.45594000000E+02  0.51100000000E-03 0. -1.
         11   -1    0    0    0    0 -0.00000000000E+00 -0.00000000000E+00 -0.45593999997E+02  0.45594000000E+02  0.51100000000E-03 0.  1.
    9900012    2    1    2    0    0 -0.19754678475E+02  0.10668522312E+02 -0.33898397798E+02  0.50528855109E+02  0.29999985590E+02 0.  0.
         12    1    1    2    0    0  0.19754678475E+02 -0.10668522312E+02  0.33898397798E+02  0.40659144891E+02  0.00000000000E+00 0. -1.
         11    1    3    3    0    0  0.26084528892E+01  0.92636814748E+01 -0.38049047481E+01  0.10348773905E+02  0.51100000000E-03 0. -1.
        -11    1    3    3    0    0 -0.76657595443E+01 -0.35842312020E+01 -0.19863455073E+02  0.21590910828E+02  0.51100000000E-03 0.  1.
        -12    1    3    3    0    0 -0.14697371820E+02  0.49890720390E+01 -0.10230037977E+02  0.18589170376E+02  0.00000000000E+00 0.  1.
</event>
<event>
 7    1  0.2973028E-011  0.5052886E+02  0.7816164E-02  0.1300439E+00
        -11   -1    0    0    0    0  0.00000000000E+00  0.00000000000E+00  0.45593999997E+02  0.45594000000E+02  0.51100000000E-03 0.  1.
         11   -1    0    0    0    0 -0.00000000000E+00 -0.00000000000E+00 -0.45593999997E+02  0.45594000000E+02  0.51100000000E-03 0. -1.
    9900012    2    1    2    0    0 -0.20663916488E+02 -0.24420875680E+02  0.25095597621E+02  0.50528860394E+02  0.30000001653E+02 0.  0.
         12    1    1    2    0    0  0.20663916488E+02  0.24420875680E+02 -0.25095597621E+02  0.40659139606E+02  0.00000000000E+00 0. -1.
         11    1    3    3    0    0 -0.39923932068E+01 -0.11299025130E+02 -0.55719602550E+01  0.13215669251E+02  0.51100000000E-03 0. -1.
        -11    1    3    3    0    0 -0.10888717532E+02 -0.81758330200E+01  0.18725886778E+02  0.23153126159E+02  0.51100000000E-03 0.  1.
         12    1    3    3    0    0 -0.57828057488E+01 -0.49460175304E+01  0.11941671098E+02  0.14160064984E+02  0.00000000000E+00 0. -1.
</event>
<event>
 7    1  0.2973028E-011  0.5052886E+02  0.7816164E-02  0.1300439E+00
        -11   -1    0    0    0    0  0.00000000000E+00  0.00000000000E+00  0.45593999997E+02  0.45594000000E+02  0.51100000000E-03 0.  1.
         11   -1    0    0    0    0 -0.00000000000E+00 -0.00000000000E+00 -0.45593999997E+02  0.45594000000E+02  0.51100000000E-03 0. -1.
    9900012    2    1    2    0    0  0.29323517811E+02 -0.31893606470E+01  0.27984369654E+02  0.50528860030E+02  0.30000000547E+02 0.  0.
         12    1    1    2    0    0 -0.29323517811E+02  0.31893606470E+01 -0.27984369654E+02  0.40659139970E+02  0.00000000000E+00 0. -1.
         11    1    3    3    0    0  0.59641809327E+01  0.11082797545E+02  0.65408985491E+01  0.14183906715E+02  0.51100000000E-03 0. -1.
        -11    1    3    3    0    0  0.12674058058E+02 -0.13509032261E+02  0.12057225187E+02  0.22102089941E+02  0.51100000000E-03 0.  1.
         12    1    3    3    0    0  0.10685278820E+02 -0.76312593104E+00  0.93862459179E+01  0.14242863374E+02  0.00000000000E+00 0. -1.
</event>
<event>
 7    1  0.2973028E-011  0.5052887E+02  0.7816164E-02  0.1300439E+00
        -11   -1    0    0    0    0  0.00000000000E+00  0.00000000000E+00  0.45593999997E+02  0.45594000000E+02  0.51100000000E-03 0. -1.
         11   -1    0    0    0    0 -0.00000000000E+00 -0.00000000000E+00 -0.45593999997E+02  0.45594000000E+02  0.51100000000E-03 0.  1.
    9900012    2    1    2    0    0 -0.12039510024E+02 -0.10120281931E+02 -0.37493934026E+02  0.50528868224E+02  0.30000025455E+02 0.  0.
         12    1    1    2    0    0  0.12039510024E+02  0.10120281931E+02  0.37493934026E+02  0.40659131776E+02  0.00000000000E+00 0. -1.
         11    1    3    3    0    0 -0.51732799219E+01 -0.12332312043E+02 -0.95964054838E+01  0.16460247384E+02  0.51100000000E-03 0. -1.
        -11    1    3    3    0    0  0.30421745379E+01  0.23356413105E+01 -0.22421202229E+02  0.22746875739E+02  0.51100000000E-03 0.  1.
         12    1    3    3    0    0 -0.99084046403E+01 -0.12361119901E+00 -0.54763263134E+01  0.11321745101E+02  0.00000000000E+00 0. -1.
</event>
<event>
 7    1  0.2973028E-011  0.5052889E+02  0.7816164E-02  0.1300439E+00
        -11   -1    0    0    0    0  0.00000000000E+00  0.00000000000E+00  0.45593999997E+02  0.45594000000E+02  0.51100000000E-03 0.  1.
         11   -1    0    0    0    0 -0.00000000000E+00 -0.00000000000E+00 -0.45593999997E+02  0.45594000000E+02  0.51100000000E-03 0. -1.
    9900012    2    1    2    0    0  0.11492260411E+02 -0.38973820207E+02 -0.14604278783E+01  0.50528885887E+02  0.30000079143E+02 0.  0.
         12    1    1    2    0    0 -0.11492260411E+02  0.38973820207E+02  0.14604278783E+01  0.40659114113E+02  0.00000000000E+00 0. -1.
         11    1    3    3    0    0  0.42267855746E+01  0.84794440015E+00 -0.28474728655E+01  0.51665102323E+01  0.51100000000E-03 0. -1.
        -11    1    3    3    0    0  0.65339382822E+00 -0.29326967155E+02 -0.72876825460E+01  0.30225953139E+02  0.51100000000E-03 0.  1.
         12    1    3    3    0    0  0.66120810080E+01 -0.10494797451E+02  0.86747275332E+01  0.15136422516E+02  0.00000000000E+00 0. -1.
</event>
<event>
 7    1  0.2973028E-011  0.5052887E+02  0.7816164E-02  0.1300439E+00
        -11   -1    0    0    0    0  0.00000000000E+00  0.00000000000E+00  0.45593999997E+02  0.45594000000E+02  0.51100000000E-03 0.  1.
         11   -1    0    0    0    0 -0.00000000000E+00 -0.00000000000E+00 -0.45593999997E+02  0.45594000000E+02  0.51100000000E-03 0. -1.
    9900012    2    1    2    0    0 -0.29190450996E+02  0.28102739423E+02  0.33642614952E+01  0.50528872515E+02  0.30000038497E+02 0.  0.
         12    1    1    2    0    0  0.29190450996E+02 -0.28102739423E+02 -0.33642614952E+01  0.40659127485E+02  0.00000000000E+00 0. -1.
         11    1    3    3    0    0  0.84399769275E+00 -0.90365645364E+00  0.43949655015E+01  0.45655940590E+01  0.51100000000E-03 0. -1.
        -11    1    3    3    0    0 -0.20099193819E+02  0.87612415312E+01 -0.62828473205E+01  0.22808137058E+02  0.51100000000E-03 0.  1.
        -12    1    3    3    0    0 -0.99352548701E+01  0.20245154345E+02  0.52521433143E+01  0.23155141398E+02  0.00000000000E+00 0.  1.
</event>
<event>
 7    1  0.2973028E-011  0.5052888E+02  0.7816164E-02  0.1300439E+00
        -11   -1    0    0    0    0  0.00000000000E+00  0.00000000000E+00  0.45593999997E+02  0.45594000000E+02  0.51100000000E-03 0.  1.
         11   -1    0    0    0    0 -0.00000000000E+00 -0.00000000000E+00 -0.45593999997E+02  0.45594000000E+02  0.51100000000E-03 0. -1.
    9900012    2    1    2    0    0 -0.14918722594E+02  0.37823180260E+02  0.54489601405E-01  0.50528877801E+02  0.30000054565E+02 0.  0.
         12    1    1    2    0    0  0.14918722594E+02 -0.37823180260E+02 -0.54489601405E-01  0.40659122199E+02  0.00000000000E+00 0. -1.
         11    1    3    3    0    0 -0.15435626076E+01  0.27618509975E+02 -0.31013283397E+01  0.27834922606E+02  0.51100000000E-03 0. -1.
        -11    1    3    3    0    0 -0.11791810090E+02  0.10528998154E+02 -0.32058231932E+01  0.16130216673E+02  0.51100000000E-03 0.  1.
        -12    1    3    3    0    0 -0.15833498967E+01 -0.32432786826E+00  0.63616411343E+01  0.65637385219E+01  0.00000000000E+00 0.  1.
</event>
<event>
 7    1  0.2973028E-011  0.5052885E+02  0.7816164E-02  0.1300439E+00
        -11   -1    0    0    0    0  0.00000000000E+00  0.00000000000E+00  0.45593999997E+02  0.45594000000E+02  0.51100000000E-03 0.  1.
         11   -1    0    0    0    0 -0.00000000000E+00 -0.00000000000E+00 -0.45593999997E+02  0.45594000000E+02  0.51100000000E-03 0. -1.
    9900012    2    1    2    0    0  0.13828635348E+02 -0.41443298268E+01  0.38009997271E+02  0.50528849518E+02  0.29999968596E+02 0.  0.
         12    1    1    2    0    0 -0.13828635348E+02  0.41443298268E+01 -0.38009997271E+02  0.40659150482E+02  0.00000000000E+00 0. -1.
         11    1    3    3    0    0  0.65151143385E+01 -0.16455747967E+01  0.44968269682E+01  0.80855478663E+01  0.51100000000E-03 0. -1.
        -11    1    3    3    0    0 -0.11182276941E+01  0.10212959447E+02  0.17743118031E+02  0.20503004940E+02  0.51100000000E-03 0.  1.
        -12    1    3    3    0    0  0.84317487037E+01 -0.12711714477E+02  0.15770052272E+02  0.21940296712E+02  0.00000000000E+00 0.  1.
</event>
<event>
 7    1  0.2973028E-011  0.5052886E+02  0.7816164E-02  0.1300439E+00
        -11   -1    0    0    0    0  0.00000000000E+00  0.00000000000E+00  0.45593999997E+02  0.45594000000E+02  0.51100000000E-03 0. -1.
         11   -1    0    0    0    0 -0.00000000000E+00 -0.00000000000E+00 -0.45593999997E+02  0.45594000000E+02  0.51100000000E-03 0.  1.
    9900012    2    1    2    0    0  0.38718621347E+02 -0.93944675801E+01 -0.81103811584E+01  0.50528856592E+02  0.29999990098E+02 0.  0.
         12    1    1    2    0    0 -0.38718621347E+02  0.93944675801E+01  0.81103811584E+01  0.40659143408E+02  0.00000000000E+00 0. -1.
         11    1    3    3    0    0 -0.81948648928E+00  0.37795808327E+01  0.40344081257E+01  0.55886705542E+01  0.51100000000E-03 0. -1.
        -11    1    3    3    0    0  0.38476065252E+02 -0.14089337928E+02 -0.96767865468E+01  0.42101748641E+02  0.51100000000E-03 0.  1.
        -12    1    3    3    0    0  0.10620425843E+01  0.91528951503E+00 -0.24680027373E+01  0.28384373973E+01  0.00000000000E+00 0.  1.
</event>
<event>
 7    1  0.2973028E-011  0.5052886E+02  0.7816164E-02  0.1300439E+00
        -11   -1    0    0    0    0  0.00000000000E+00  0.00000000000E+00  0.45593999997E+02  0.45594000000E+02  0.51100000000E-03 0.  1.
         11   -1    0    0    0    0 -0.00000000000E+00 -0.00000000000E+00 -0.45593999997E+02  0.45594000000E+02  0.51100000000E-03 0. -1.
    9900012    2    1    2    0    0  0.36773838457E+02 -0.16883392618E+02  0.39751313359E+01  0.50528858220E+02  0.29999995046E+02 0.  0.
         12    1    1    2    0    0 -0.36773838457E+02  0.16883392618E+02 -0.39751313359E+01  0.40659141780E+02  0.00000000000E+00 0. -1.
         11    1    3    3    0    0  0.29256221083E+02 -0.31780414857E+01  0.97270824790E+01  0.30994234198E+02  0.51100000000E-03 0.  1.
        -11    1    3    3    0    0  0.95402027080E+01 -0.13491467064E+02 -0.44244701472E+01  0.17105878744E+02  0.51100000000E-03 0. -1.
        -12    1    3    3    0    0 -0.20225853343E+01 -0.21388406820E+00 -0.13274809960E+01  0.24287452777E+01  0.00000000000E+00 0.  1.
</event>
<event>
 7    1  0.2973028E-011  0.5052886E+02  0.7816164E-02  0.1300439E+00
        -11   -1    0    0    0    0  0.00000000000E+00  0.00000000000E+00  0.45593999997E+02  0.45594000000E+02  0.51100000000E-03 0.  1.
         11   -1    0    0    0    0 -0.00000000000E+00 -0.00000000000E+00 -0.45593999997E+02  0.45594000000E+02  0.51100000000E-03 0. -1.
    9900012    2    1    2    0    0  0.74013626276E+01  0.11204954538E+02  0.38377528180E+02  0.50528857804E+02  0.29999993780E+02 0.  0.
         12    1    1    2    0    0 -0.74013626276E+01 -0.11204954538E+02 -0.38377528180E+02  0.40659142196E+02  0.00000000000E+00 0. -1.
         11    1    3    3    0    0  0.17711027564E+02  0.64085507849E+01  0.20282949199E+02  0.27679379491E+02  0.51100000000E-03 0. -1.
        -11    1    3    3    0    0  0.12947246217E+01  0.11310839867E+01  0.15766882739E+01  0.23327256601E+01  0.51100000000E-03 0.  1.
         12    1    3    3    0    0 -0.11604389558E+02  0.36653197667E+01  0.16517890707E+02  0.20516752653E+02  0.00000000000E+00 0. -1.
</event>
<event>
 7    1  0.2973028E-011  0.5052886E+02  0.7816164E-02  0.1300439E+00
        -11   -1    0    0    0    0  0.00000000000E+00  0.00000000000E+00  0.45593999997E+02  0.45594000000E+02  0.51100000000E-03 0.  1.
         11   -1    0    0    0    0 -0.00000000000E+00 -0.00000000000E+00 -0.45593999997E+02  0.45594000000E+02  0.51100000000E-03 0. -1.
    9900012    2    1    2    0    0 -0.34219766470E+01  0.14097770856E+02  0.37983009061E+02  0.50528855339E+02  0.29999986288E+02 0.  0.
         12    1    1    2    0    0  0.34219766470E+01 -0.14097770856E+02 -0.37983009061E+02  0.40659144661E+02  0.00000000000E+00 0. -1.
         11    1    3    3    0    0 -0.11798922119E+02  0.17746612027E+02  0.22773634040E+02  0.31189665103E+02  0.51100000000E-03 0. -1.
        -11    1    3    3    0    0  0.87922325258E+01 -0.58329172780E+00  0.10541106181E+02  0.13738941073E+02  0.51100000000E-03 0.  1.
         12    1    3    3    0    0 -0.41528705424E+00 -0.30655494433E+01  0.46682688390E+01  0.56002491623E+01  0.00000000000E+00 0. -1.
</event>
<event>
 7    1  0.2973028E-011  0.5052886E+02  0.7816164E-02  0.1300439E+00
        -11   -1    0    0    0    0  0.00000000000E+00  0.00000000000E+00  0.45593999997E+02  0.45594000000E+02  0.51100000000E-03 0.  1.
         11   -1    0    0    0    0 -0.00000000000E+00 -0.00000000000E+00 -0.45593999997E+02  0.45594000000E+02  0.51100000000E-03 0. -1.
    9900012    2    1    2    0    0 -0.14413804631E+02  0.63059816642E+01  0.37491899250E+02  0.50528859846E+02  0.29999999988E+02 0.  0.
         12    1    1    2    0    0  0.14413804631E+02 -0.63059816642E+01 -0.37491899250E+02  0.40659140154E+02  0.00000000000E+00 0. -1.
         11    1    3    3    0    0 -0.16012759534E+02 -0.45280116508E+01  0.74524433308E+01  0.18233218840E+02  0.51100000000E-03 0. -1.
        -11    1    3    3    0    0  0.21521733225E+00  0.74633865968E+00  0.77711242666E+01  0.78098471511E+01  0.51100000000E-03 0.  1.
         12    1    3    3    0    0  0.13837375708E+01  0.10087654655E+02  0.22268331653E+02  0.24485793855E+02  0.00000000000E+00 0. -1.
</event>
<event>
 7    1  0.2973028E-011  0.5052885E+02  0.7816164E-02  0.1300439E+00
        -11   -1    0    0    0    0  0.00000000000E+00  0.00000000000E+00  0.45593999997E+02  0.45594000000E+02  0.51100000000E-03 0.  1.
         11   -1    0    0    0    0 -0.00000000000E+00 -0.00000000000E+00 -0.45593999997E+02  0.45594000000E+02  0.51100000000E-03 0. -1.
    9900012    2    1    2    0    0 -0.36943823155E+02 -0.14487326182E+01 -0.16918088647E+02  0.50528848275E+02  0.29999964817E+02 0.  0.
         12    1    1    2    0    0  0.36943823155E+02  0.14487326182E+01  0.16918088647E+02  0.40659151725E+02  0.00000000000E+00 0. -1.
         11    1    3    3    0    0 -0.59006746097E+01  0.55472705672E+01  0.19366990907E+01  0.83271228660E+01  0.51100000000E-03 0. -1.
        -11    1    3    3    0    0 -0.16123940895E+02 -0.68409731624E+01 -0.20758720855E+02  0.27160723031E+02  0.51100000000E-03 0.  1.
        -12    1    3    3    0    0 -0.14919207650E+02 -0.15503002305E+00  0.19039331172E+01  0.15041002378E+02  0.00000000000E+00 0.  1.
</event>
<event>
 7    1  0.2973028E-011  0.5052886E+02  0.7816164E-02  0.1300439E+00
        -11   -1    0    0    0    0  0.00000000000E+00  0.00000000000E+00  0.45593999997E+02  0.45594000000E+02  0.51100000000E-03 0.  1.
         11   -1    0    0    0    0 -0.00000000000E+00 -0.00000000000E+00 -0.45593999997E+02  0.45594000000E+02  0.51100000000E-03 0. -1.
    9900012    2    1    2    0    0 -0.10164564045E+02 -0.31395735620E+02  0.23751946375E+02  0.50528861619E+02  0.30000005376E+02 0.  0.
         12    1    1    2    0    0  0.10164564045E+02  0.31395735620E+02 -0.23751946375E+02  0.40659138381E+02  0.00000000000E+00 0. -1.
         11    1    3    3    0    0 -0.15191524386E+02 -0.28371279285E+02  0.76485020197E+01  0.33078867648E+02  0.51100000000E-03 0. -1.
        -11    1    3    3    0    0  0.44567013755E+01 -0.19552109076E+01  0.88851990354E+01  0.10130735363E+02  0.51100000000E-03 0.  1.
         12    1    3    3    0    0  0.57025896568E+00 -0.10692454270E+01  0.72182453196E+01  0.73192586076E+01  0.00000000000E+00 0. -1.
</event>
<event>
 7    1  0.2973028E-011  0.5052885E+02  0.7816164E-02  0.1300439E+00
        -11   -1    0    0    0    0  0.00000000000E+00  0.00000000000E+00  0.45593999997E+02  0.45594000000E+02  0.51100000000E-03 0. -1.
         11   -1    0    0    0    0 -0.00000000000E+00 -0.00000000000E+00 -0.45593999997E+02  0.45594000000E+02  0.51100000000E-03 0.  1.
    9900012    2    1    2    0    0 -0.31521353324E+02 -0.25401523354E+02  0.37859346210E+01  0.50528850906E+02  0.29999972813E+02 0.  0.
         12    1    1    2    0    0  0.31521353324E+02  0.25401523354E+02 -0.37859346210E+01  0.40659149094E+02  0.00000000000E+00 0. -1.
         11    1    3    3    0    0 -0.16125434598E+01 -0.43953977116E+01  0.52676781283E+01  0.70475705444E+01  0.51100000000E-03 0. -1.
        -11    1    3    3    0    0 -0.33743911628E+02 -0.19256392765E+02  0.42642575041E+00  0.38854112697E+02  0.51100000000E-03 0.  1.
        -12    1    3    3    0    0  0.38351017637E+01 -0.17497328778E+01 -0.19081692577E+01  0.46271676647E+01  0.00000000000E+00 0.  1.
</event>
<event>
 7    1  0.2973028E-011  0.5052886E+02  0.7816164E-02  0.1300439E+00
        -11   -1    0    0    0    0  0.00000000000E+00  0.00000000000E+00  0.45593999997E+02  0.45594000000E+02  0.51100000000E-03 0.  1.
         11   -1    0    0    0    0 -0.00000000000E+00 -0.00000000000E+00 -0.45593999997E+02  0.45594000000E+02  0.51100000000E-03 0. -1.
    9900012    2    1    2    0    0 -0.50662517087E+01 -0.39608316581E+01  0.40147355758E+02  0.50528864887E+02  0.30000015311E+02 0.  0.
         12    1    1    2    0    0  0.50662517087E+01  0.39608316581E+01 -0.40147355758E+02  0.40659135113E+02  0.00000000000E+00 0. -1.
         11    1    3    3    0    0  0.39833432816E+01 -0.25654943998E+01  0.10555147672E+02  0.11569785126E+02  0.51100000000E-03 0. -1.
        -11    1    3    3    0    0 -0.80782061111E+01  0.78517822439E+01  0.27076861640E+02  0.29326853478E+02  0.51100000000E-03 0.  1.
        -12    1    3    3    0    0 -0.97138887920E+00 -0.92471195021E+01  0.25153464458E+01  0.96322262838E+01  0.00000000000E+00 0.  1.
</event>
<event>
 7    1  0.2973028E-011  0.5052887E+02  0.7816164E-02  0.1300439E+00
        -11   -1    0    0    0    0  0.00000000000E+00  0.00000000000E+00  0.45593999997E+02  0.45594000000E+02  0.51100000000E-03 0.  1.
         11   -1    0    0    0    0 -0.00000000000E+00 -0.00000000000E+00 -0.45593999997E+02  0.45594000000E+02  0.51100000000E-03 0. -1.
    9900012    2    1    2    0    0 -0.26474141344E+02  0.29332626449E+02  0.95855126047E+01  0.50528865895E+02  0.30000018373E+02 0.  0.
         12    1    1    2    0    0  0.26474141344E+02 -0.29332626449E+02 -0.95855126047E+01  0.40659134105E+02  0.00000000000E+00 0. -1.
         11    1    3    3    0    0 -0.10126554963E+02  0.12158621361E+02  0.18564656376E+02  0.24393147715E+02  0.51100000000E-03 0. -1.
        -11    1    3    3    0    0 -0.12801516100E+02  0.92904138532E+01 -0.68244253335E+01  0.17226821687E+02  0.51100000000E-03 0.  1.
        -12    1    3    3    0    0 -0.35460702809E+01  0.78835912341E+01 -0.21547184373E+01  0.89088964933E+01  0.00000000000E+00 0.  1.
</event>
<event>
 7    1  0.2974163E-011  0.5052885E+02  0.7816164E-02  0.1300439E+00
        -11   -1    0    0    0    0  0.00000000000E+00  0.00000000000E+00  0.45593999997E+02  0.45594000000E+02  0.51100000000E-03 0. -1.
         11   -1    0    0    0    0 -0.00000000000E+00 -0.00000000000E+00 -0.45593999997E+02  0.45594000000E+02  0.51100000000E-03 0.  1.
    9900012    2    1    2    0    0 -0.28763523507E+02 -0.28640480901E+02  0.23555647179E+01  0.50528854461E+02  0.29999983620E+02 0.  0.
         12    1    1    2    0    0  0.28763523507E+02  0.28640480901E+02 -0.23555647179E+01  0.40659145539E+02  0.00000000000E+00 0. -1.
         11    1    3    3    0    0  0.60155126631E+00  0.24675299648E+01 -0.34330416053E+01  0.42704031400E+01  0.51100000000E-03 0. -1.
        -11    1    3    3    0    0 -0.26196750141E+02 -0.20539848110E+02  0.95001160733E+01  0.34618019643E+02  0.51100000000E-03 0.  1.
        -12    1    3    3    0    0 -0.31683246322E+01 -0.10568162757E+02 -0.37115097501E+01  0.11640431678E+02  0.00000000000E+00 0.  1.
</event>
<event>
 7    1  0.2973028E-011  0.5052886E+02  0.7816164E-02  0.1300439E+00
        -11   -1    0    0    0    0  0.00000000000E+00  0.00000000000E+00  0.45593999997E+02  0.45594000000E+02  0.51100000000E-03 0.  1.
         11   -1    0    0    0    0 -0.00000000000E+00 -0.00000000000E+00 -0.45593999997E+02  0.45594000000E+02  0.51100000000E-03 0. -1.
    9900012    2    1    2    0    0 -0.21065456638E+01 -0.11608418407E+02  0.38909804300E+02  0.50528858553E+02  0.29999996059E+02 0.  0.
         12    1    1    2    0    0  0.21065456638E+01  0.11608418407E+02 -0.38909804300E+02  0.40659141447E+02  0.00000000000E+00 0. -1.
         11    1    3    3    0    0  0.56972521937E+01  0.46477194068E+01  0.11328005981E+02  0.13504950870E+02  0.51100000000E-03 0. -1.
        -11    1    3    3    0    0 -0.11556834062E+02 -0.50213385715E+01  0.16849106024E+02  0.21039644214E+02  0.51100000000E-03 0.  1.
        -12    1    3    3    0    0  0.37530362040E+01 -0.11234799242E+02  0.10732692295E+02  0.15984263469E+02  0.00000000000E+00 0.  1.
</event>
<event>
 7    1  0.2973028E-011  0.5052886E+02  0.7816164E-02  0.1300439E+00
        -11   -1    0    0    0    0  0.00000000000E+00  0.00000000000E+00  0.45593999997E+02  0.45594000000E+02  0.51100000000E-03 0.  1.
         11   -1    0    0    0    0 -0.00000000000E+00 -0.00000000000E+00 -0.45593999997E+02  0.45594000000E+02  0.51100000000E-03 0. -1.
    9900012    2    1    2    0    0  0.16069633675E+02 -0.32449854950E+02  0.18491598070E+02  0.50528863119E+02  0.30000009937E+02 0.  0.
         12    1    1    2    0    0 -0.16069633675E+02  0.32449854950E+02 -0.18491598070E+02  0.40659136881E+02  0.00000000000E+00 0. -1.
         11    1    3    3    0    0  0.51094821567E+01 -0.33715357186E+01 -0.75985117886E+01  0.97576350964E+01  0.51100000000E-03 0. -1.
        -11    1    3    3    0    0  0.10925300402E+02 -0.25447004487E+02  0.23313423021E+02  0.36199833141E+02  0.51100000000E-03 0.  1.
         12    1    3    3    0    0  0.34851116402E-01 -0.36313147444E+01  0.27766868374E+01  0.45713948818E+01  0.00000000000E+00 0. -1.
</event>
<event>
 7    1  0.2973028E-011  0.5052886E+02  0.7816164E-02  0.1300439E+00
        -11   -1    0    0    0    0  0.00000000000E+00  0.00000000000E+00  0.45593999997E+02  0.45594000000E+02  0.51100000000E-03 0.  1.
         11   -1    0    0    0    0 -0.00000000000E+00 -0.00000000000E+00 -0.45593999997E+02  0.45594000000E+02  0.51100000000E-03 0. -1.
    9900012    2    1    2    0    0 -0.31532660860E+02 -0.15950536378E+02  0.20110622457E+02  0.50528862684E+02  0.30000008614E+02 0.  0.
         12    1    1    2    0    0  0.31532660860E+02  0.15950536378E+02 -0.20110622457E+02  0.40659137316E+02  0.00000000000E+00 0. -1.
         11    1    3    3    0    0  0.31149634244E+00  0.19356116488E+01  0.21993389216E+01  0.29463052081E+01  0.51100000000E-03 0. -1.
        -11    1    3    3    0    0 -0.23241168115E+02 -0.23540703516E+02  0.98765385755E+01  0.34523363565E+02  0.51100000000E-03 0.  1.
        -12    1    3    3    0    0 -0.86029890876E+01  0.56545554889E+01  0.80347449603E+01  0.13059193911E+02  0.00000000000E+00 0.  1.
</event>
<event>
 7    1  0.2973028E-011  0.5052886E+02  0.7816164E-02  0.1300439E+00
        -11   -1    0    0    0    0  0.00000000000E+00  0.00000000000E+00  0.45593999997E+02  0.45594000000E+02  0.51100000000E-03 0. -1.
         11   -1    0    0    0    0 -0.00000000000E+00 -0.00000000000E+00 -0.45593999997E+02  0.45594000000E+02  0.51100000000E-03 0.  1.
    9900012    2    1    2    0    0 -0.25277564451E+01  0.19326045774E+02 -0.35683053472E+02  0.50528857080E+02  0.29999991580E+02 0.  0.
         12    1    1    2    0    0  0.25277564451E+01 -0.19326045774E+02  0.35683053472E+02  0.40659142920E+02  0.00000000000E+00 0. -1.
         11    1    3    3    0    0  0.68796433789E+00 -0.67302976632E+01 -0.27871187757E+01  0.73169824994E+01  0.51100000000E-03 0. -1.
        -11    1    3    3    0    0 -0.94584614642E+00  0.55927196195E+01 -0.18634327977E+01  0.59703868994E+01  0.51100000000E-03 0.  1.
         12    1    3    3    0    0 -0.22698746366E+01  0.20463623818E+02 -0.31032501898E+02  0.37241487681E+02  0.00000000000E+00 0. -1.
</event>
<event>
 7    1  0.2973028E-011  0.5052886E+02  0.7816164E-02  0.1300439E+00
        -11   -1    0    0    0    0  0.00000000000E+00  0.00000000000E+00  0.45593999997E+02  0.45594000000E+02  0.51100000000E-03 0.  1.
         11   -1    0    0    0    0 -0.00000000000E+00 -0.00000000000E+00 -0.45593999997E+02  0.45594000000E+02  0.51100000000E-03 0. -1.
    9900012    2    1    2    0    0  0.40221580239E+02 -0.46755042973E+01  0.36782959012E+01  0.50528859354E+02  0.29999998492E+02 0.  0.
         12    1    1    2    0    0 -0.40221580239E+02  0.46755042973E+01 -0.36782959012E+01  0.40659140646E+02  0.00000000000E+00 0. -1.
         11    1    3    3    0    0  0.11460543003E+02  0.82034946449E+01  0.10640388612E+02  0.17659536811E+02  0.51100000000E-03 0. -1.
        -11    1    3    3    0    0  0.15703075225E+02 -0.37583408445E+01 -0.44130658855E+01  0.16738782757E+02  0.51100000000E-03 0.  1.
         12    1    3    3    0    0  0.13057962011E+02 -0.91206580977E+01 -0.25490268250E+01  0.16130539785E+02  0.00000000000E+00 0. -1.
</event>
<event>
 7    1  0.2973028E-011  0.5052886E+02  0.7816164E-02  0.1300439E+00
        -11   -1    0    0    0    0  0.00000000000E+00  0.00000000000E+00  0.45593999997E+02  0.45594000000E+02  0.51100000000E-03 0.  1.
         11   -1    0    0    0    0 -0.00000000000E+00 -0.00000000000E+00 -0.45593999997E+02  0.45594000000E+02  0.51100000000E-03 0. -1.
    9900012    2    1    2    0    0  0.33201901066E+02 -0.22966612849E+02 -0.48305292506E+01  0.50528861384E+02  0.30000004662E+02 0.  0.
         12    1    1    2    0    0 -0.33201901066E+02  0.22966612849E+02  0.48305292506E+01  0.40659138616E+02  0.00000000000E+00 0. -1.
         11    1    3    3    0    0  0.23140122742E+02 -0.10160193199E+02 -0.12340179086E+02  0.28124274684E+02  0.51100000000E-03 0. -1.
        -11    1    3    3    0    0 -0.74462206460E+00 -0.90089063510E+01  0.60039088503E+01  0.10851809868E+02  0.51100000000E-03 0.  1.
        -12    1    3    3    0    0  0.10806400389E+02 -0.37975132987E+01  0.15057409853E+01  0.11552776832E+02  0.00000000000E+00 0.  1.
</event>
<event>
 7    1  0.2973028E-011  0.5052887E+02  0.7816164E-02  0.1300439E+00
        -11   -1    0    0    0    0  0.00000000000E+00  0.00000000000E+00  0.45593999997E+02  0.45594000000E+02  0.51100000000E-03 0.  1.
         11   -1    0    0    0    0 -0.00000000000E+00 -0.00000000000E+00 -0.45593999997E+02  0.45594000000E+02  0.51100000000E-03 0. -1.
    9900012    2    1    2    0    0  0.12344855816E+02  0.34731514910E+02 -0.17160746827E+02  0.50528870340E+02  0.30000031885E+02 0.  0.
         12    1    1    2    0    0 -0.12344855816E+02 -0.34731514910E+02  0.17160746827E+02  0.40659129660E+02  0.00000000000E+00 0. -1.
         11    1    3    3    0    0 -0.59514799549E+01  0.28271738062E+01  0.15412317045E+00  0.65906585101E+01  0.51100000000E-03 0. -1.
        -11    1    3    3    0    0  0.64187468032E+01  0.21946572136E+02 -0.34161485674E+01  0.23119740707E+02  0.51100000000E-03 0.  1.
         12    1    3    3    0    0  0.11877588968E+02  0.99577689672E+01 -0.13898721430E+02  0.20818471123E+02  0.00000000000E+00 0. -1.
</event>
<event>
 7    1  0.2973028E-011  0.5052886E+02  0.7816164E-02  0.1300439E+00
        -11   -1    0    0    0    0  0.00000000000E+00  0.00000000000E+00  0.45593999997E+02  0.45594000000E+02  0.51100000000E-03 0.  1.
         11   -1    0    0    0    0 -0.00000000000E+00 -0.00000000000E+00 -0.45593999997E+02  0.45594000000E+02  0.51100000000E-03 0. -1.
    9900012    2    1    2    0    0 -0.24498675017E+02 -0.32434267426E+02 -0.99957237292E+00  0.50528856798E+02  0.29999990722E+02 0.  0.
         12    1    1    2    0    0  0.24498675017E+02  0.32434267426E+02  0.99957237292E+00  0.40659143202E+02  0.00000000000E+00 0. -1.
         11    1    3    3    0    0 -0.89525231324E+01  0.21801202696E+01  0.30965417881E+01  0.97205537976E+01  0.51100000000E-03 0.  1.
        -11    1    3    3    0    0 -0.11099058065E+02 -0.31358771725E+02  0.10307565586E+01  0.33280987266E+02  0.51100000000E-03 0. -1.
        -12    1    3    3    0    0 -0.44470938194E+01 -0.32556159700E+01 -0.51268707197E+01  0.75273157340E+01  0.00000000000E+00 0.  1.
</event>
<event>
 7    1  0.2973028E-011  0.5052885E+02  0.7816164E-02  0.1300439E+00
        -11   -1    0    0    0    0  0.00000000000E+00  0.00000000000E+00  0.45593999997E+02  0.45594000000E+02  0.51100000000E-03 0.  1.
         11   -1    0    0    0    0 -0.00000000000E+00 -0.00000000000E+00 -0.45593999997E+02  0.45594000000E+02  0.51100000000E-03 0. -1.
    9900012    2    1    2    0    0 -0.19513808696E+02 -0.14137586691E+02  0.32749137512E+02  0.50528854718E+02  0.29999984402E+02 0.  0.
         12    1    1    2    0    0  0.19513808696E+02  0.14137586691E+02 -0.32749137512E+02  0.40659145282E+02  0.00000000000E+00 0. -1.
         11    1    3    3    0    0  0.76847677619E+01 -0.23774616437E+01  0.10899960438E+02  0.13546848978E+02  0.51100000000E-03 0. -1.
        -11    1    3    3    0    0 -0.22510708037E+02 -0.84113550635E+01  0.18411637389E+02  0.30273276367E+02  0.51100000000E-03 0.  1.
        -12    1    3    3    0    0 -0.46878684206E+01 -0.33487699834E+01  0.34375396845E+01  0.67087293740E+01  0.00000000000E+00 0.  1.
</event>
<event>
 7    1  0.2973028E-011  0.5052886E+02  0.7816164E-02  0.1300439E+00
        -11   -1    0    0    0    0  0.00000000000E+00  0.00000000000E+00  0.45593999997E+02  0.45594000000E+02  0.51100000000E-03 0.  1.
         11   -1    0    0    0    0 -0.00000000000E+00 -0.00000000000E+00 -0.45593999997E+02  0.45594000000E+02  0.51100000000E-03 0. -1.
    9900012    2    1    2    0    0  0.55529744883E+01  0.60484048207E+01  0.39821437647E+02  0.50528860525E+02  0.30000002052E+02 0.  0.
         12    1    1    2    0    0 -0.55529744883E+01 -0.60484048207E+01 -0.39821437647E+02  0.40659139475E+02  0.00000000000E+00 0. -1.
         11    1    3    3    0    0  0.87075596028E+01  0.15784473677E+02  0.17843753370E+02  0.25364753854E+02  0.51100000000E-03 0.  1.
        -11    1    3    3    0    0 -0.77482189142E+00 -0.92497021503E+01  0.13783708783E+02  0.16617700410E+02  0.51100000000E-03 0. -1.
        -12    1    3    3    0    0 -0.23797632231E+01 -0.48636670649E+00  0.81939754944E+01  0.85464062607E+01  0.00000000000E+00 0.  1.
</event>
<event>
 7    1  0.2973028E-011  0.5052891E+02  0.7816164E-02  0.1300439E+00
        -11   -1    0    0    0    0  0.00000000000E+00  0.00000000000E+00  0.45593999997E+02  0.45594000000E+02  0.51100000000E-03 0.  1.
         11   -1    0    0    0    0 -0.00000000000E+00 -0.00000000000E+00 -0.45593999997E+02  0.45594000000E+02  0.51100000000E-03 0. -1.
    9900012    2    1    2    0    0  0.39265639469E+02  0.47738752327E+01  0.94117706523E+01  0.50528908096E+02  0.30000146648E+02 0.  0.
         12    1    1    2    0    0 -0.39265639469E+02 -0.47738752327E+01 -0.94117706523E+01  0.40659091904E+02  0.00000000000E+00 0. -1.
         11    1    3    3    0    0  0.21444325383E+02  0.27005430866E+01 -0.40937321456E+01  0.21997969616E+02  0.51100000000E-03 0. -1.
        -11    1    3    3    0    0  0.17172096710E+02 -0.38565932906E+01  0.14078766611E+02  0.22538098562E+02  0.51100000000E-03 0.  1.
        -12    1    3    3    0    0  0.64921737641E+00  0.59299254367E+01 -0.57326381310E+00  0.59928399183E+01  0.00000000000E+00 0.  1.
</event>
<event>
 7    1  0.2973028E-011  0.5052886E+02  0.7816164E-02  0.1300439E+00
        -11   -1    0    0    0    0  0.00000000000E+00  0.00000000000E+00  0.45593999997E+02  0.45594000000E+02  0.51100000000E-03 0.  1.
         11   -1    0    0    0    0 -0.00000000000E+00 -0.00000000000E+00 -0.45593999997E+02  0.45594000000E+02  0.51100000000E-03 0. -1.
    9900012    2    1    2    0    0 -0.21378817963E+02 -0.32052667222E+02  0.12989923322E+02  0.50528862756E+02  0.30000008833E+02 0.  0.
         12    1    1    2    0    0  0.21378817963E+02  0.32052667222E+02 -0.12989923322E+02  0.40659137244E+02  0.00000000000E+00 0. -1.
         11    1    3    3    0    0 -0.21230979117E+02 -0.22906283415E+02  0.16603327448E+01  0.31276332893E+02  0.51100000000E-03 0. -1.
        -11    1    3    3    0    0  0.21151416504E+01 -0.10986895107E+02  0.11841162924E+02  0.16291065894E+02  0.51100000000E-03 0.  1.
         12    1    3    3    0    0 -0.22629804961E+01  0.18405113005E+01 -0.51157234673E+00  0.29614639689E+01  0.00000000000E+00 0. -1.
</event>
<event>
 7    1  0.2973028E-011  0.5052887E+02  0.7816164E-02  0.1300439E+00
        -11   -1    0    0    0    0  0.00000000000E+00  0.00000000000E+00  0.45593999997E+02  0.45594000000E+02  0.51100000000E-03 0. -1.
         11   -1    0    0    0    0 -0.00000000000E+00 -0.00000000000E+00 -0.45593999997E+02  0.45594000000E+02  0.51100000000E-03 0.  1.
    9900012    2    1    2    0    0 -0.21138630432E+02  0.11915425665E+02 -0.32624318600E+02  0.50528865363E+02  0.30000016756E+02 0.  0.
         12    1    1    2    0    0  0.21138630432E+02 -0.11915425665E+02  0.32624318600E+02  0.40659134637E+02  0.00000000000E+00 0. -1.
         11    1    3    3    0    0 -0.40586299682E+01  0.14637612548E+02 -0.26911888900E+02  0.30902782120E+02  0.51100000000E-03 0. -1.
        -11    1    3    3    0    0 -0.97113600259E+01 -0.18979765544E+01 -0.69728797398E+01  0.12105117954E+02  0.51100000000E-03 0.  1.
         12    1    3    3    0    0 -0.73686404383E+01 -0.82421032833E+00  0.12604500396E+01  0.75209652889E+01  0.00000000000E+00 0. -1.
</event>
<event>
 7    1  0.2973028E-011  0.5052886E+02  0.7816164E-02  0.1300439E+00
        -11   -1    0    0    0    0  0.00000000000E+00  0.00000000000E+00  0.45593999997E+02  0.45594000000E+02  0.51100000000E-03 0.  1.
         11   -1    0    0    0    0 -0.00000000000E+00 -0.00000000000E+00 -0.45593999997E+02  0.45594000000E+02  0.51100000000E-03 0. -1.
    9900012    2    1    2    0    0 -0.33444837506E+02 -0.22546614267E+02  0.51243345645E+01  0.50528858649E+02  0.29999996349E+02 0.  0.
         12    1    1    2    0    0  0.33444837506E+02  0.22546614267E+02 -0.51243345645E+01  0.40659141351E+02  0.00000000000E+00 0. -1.
         11    1    3    3    0    0 -0.70483044080E+01 -0.16164882394E+02 -0.89191377521E+01  0.19761908722E+02  0.51100000000E-03 0. -1.
        -11    1    3    3    0    0 -0.11340667831E+02 -0.26871456379E+01  0.41256301586E+01  0.12363345947E+02  0.51100000000E-03 0.  1.
         12    1    3    3    0    0 -0.15055865267E+02 -0.36945862350E+01  0.99178421580E+01  0.18403603980E+02  0.00000000000E+00 0. -1.
</event>
<event>
 7    1  0.2973028E-011  0.5052887E+02  0.7816164E-02  0.1300439E+00
        -11   -1    0    0    0    0  0.00000000000E+00  0.00000000000E+00  0.45593999997E+02  0.45594000000E+02  0.51100000000E-03 0. -1.
         11   -1    0    0    0    0 -0.00000000000E+00 -0.00000000000E+00 -0.45593999997E+02  0.45594000000E+02  0.51100000000E-03 0.  1.
    9900012    2    1    2    0    0 -0.28635909710E+02  0.17861206273E+02 -0.22674365319E+02  0.50528869942E+02  0.30000030675E+02 0.  0.
         12    1    1    2    0    0  0.28635909710E+02 -0.17861206273E+02  0.22674365319E+02  0.40659130058E+02  0.00000000000E+00 0. -1.
         11    1    3    3    0    0 -0.57537000663E+01  0.10126507382E+02 -0.80684492806E+01  0.14168665790E+02  0.51100000000E-03 0. -1.
        -11    1    3    3    0    0 -0.60842067675E+01 -0.93665367369E-01  0.60695761278E+01  0.85945389534E+01  0.51100000000E-03 0.  1.
        -12    1    3    3    0    0 -0.16798002876E+02  0.78283642586E+01 -0.20675492166E+02  0.27765665198E+02  0.00000000000E+00 0.  1.
</event>
<event>
 7    1  0.2973028E-011  0.5052886E+02  0.7816164E-02  0.1300439E+00
        -11   -1    0    0    0    0  0.00000000000E+00  0.00000000000E+00  0.45593999997E+02  0.45594000000E+02  0.51100000000E-03 0.  1.
         11   -1    0    0    0    0 -0.00000000000E+00 -0.00000000000E+00 -0.45593999997E+02  0.45594000000E+02  0.51100000000E-03 0. -1.
    9900012    2    1    2    0    0 -0.35156311004E+02 -0.19575234228E+02  0.58317772392E+01  0.50528860508E+02  0.30000001999E+02 0.  0.
         12    1    1    2    0    0  0.35156311004E+02  0.19575234228E+02 -0.58317772392E+01  0.40659139492E+02  0.00000000000E+00 0. -1.
         11    1    3    3    0    0 -0.36712189256E+02 -0.15873253774E+02  0.32131531220E+01  0.40125669821E+02  0.51100000000E-03 0. -1.
        -11    1    3    3    0    0  0.40013483767E+00 -0.20690360155E+01  0.60636518779E+01  0.64194152599E+01  0.51100000000E-03 0.  1.
         12    1    3    3    0    0  0.11557434143E+01 -0.16329444384E+01 -0.34450277607E+01  0.39837754268E+01  0.00000000000E+00 0. -1.
</event>
<event>
 7    1  0.2973028E-011  0.5052887E+02  0.7816164E-02  0.1300439E+00
        -11   -1    0    0    0    0  0.00000000000E+00  0.00000000000E+00  0.45593999997E+02  0.45594000000E+02  0.51100000000E-03 0.  1.
         11   -1    0    0    0    0 -0.00000000000E+00 -0.00000000000E+00 -0.45593999997E+02  0.45594000000E+02  0.51100000000E-03 0. -1.
    9900012    2    1    2    0    0  0.26566831854E+02 -0.38834398094E+01  0.30533378428E+02  0.50528869934E+02  0.30000030650E+02 0.  0.
         12    1    1    2    0    0 -0.26566831854E+02  0.38834398094E+01 -0.30533378428E+02  0.40659130066E+02  0.00000000000E+00 0. -1.
         11    1    3    3    0    0  0.27643375149E+00 -0.16544922784E+01 -0.52071932960E+01  0.54707058595E+01  0.51100000000E-03 0. -1.
        -11    1    3    3    0    0  0.14663342378E+02 -0.39014761592E+01  0.24382341407E+02  0.28718177147E+02  0.51100000000E-03 0.  1.
         12    1    3    3    0    0  0.11627055725E+02  0.16725286281E+01  0.11358230317E+02  0.16339986927E+02  0.00000000000E+00 0. -1.
</event>
<event>
 7    1  0.2973028E-011  0.5052885E+02  0.7816164E-02  0.1300439E+00
        -11   -1    0    0    0    0  0.00000000000E+00  0.00000000000E+00  0.45593999997E+02  0.45594000000E+02  0.51100000000E-03 0.  1.
         11   -1    0    0    0    0 -0.00000000000E+00 -0.00000000000E+00 -0.45593999997E+02  0.45594000000E+02  0.51100000000E-03 0. -1.
    9900012    2    1    2    0    0 -0.45537838581E+00  0.37873999720E+02  0.14782392224E+02  0.50528851655E+02  0.29999975090E+02 0.  0.
         12    1    1    2    0    0  0.45537838581E+00 -0.37873999720E+02 -0.14782392224E+02  0.40659148345E+02  0.00000000000E+00 0. -1.
         11    1    3    3    0    0  0.97060092206E+01  0.66005584091E+01  0.28505489982E+00  0.11741177235E+02  0.51100000000E-03 0. -1.
        -11    1    3    3    0    0 -0.54989902383E+01  0.28911920469E+02  0.80954126411E+01  0.30523331158E+02  0.51100000000E-03 0.  1.
        -12    1    3    3    0    0 -0.46623973682E+01  0.23615208417E+01  0.64019246834E+01  0.82643432622E+01  0.00000000000E+00 0.  1.
</event>
<event>
 7    1  0.2973028E-011  0.5052889E+02  0.7816164E-02  0.1300439E+00
        -11   -1    0    0    0    0  0.00000000000E+00  0.00000000000E+00  0.45593999997E+02  0.45594000000E+02  0.51100000000E-03 0. -1.
         11   -1    0    0    0    0 -0.00000000000E+00 -0.00000000000E+00 -0.45593999997E+02  0.45594000000E+02  0.51100000000E-03 0.  1.
    9900012    2    1    2    0    0 -0.34940855262E+02 -0.20709681464E+02  0.18463873240E+01  0.50528887627E+02  0.30000084432E+02 0.  0.
         12    1    1    2    0    0  0.34940855262E+02  0.20709681464E+02 -0.18463873240E+01  0.40659112373E+02  0.00000000000E+00 0. -1.
         11    1    3    3    0    0 -0.32800918067E+02 -0.66778113849E+01  0.49759618905E+01  0.33841595529E+02  0.51100000000E-03 0. -1.
        -11    1    3    3    0    0 -0.37417640475E+01 -0.13410669746E+02 -0.10108724325E+01  0.13959538838E+02  0.51100000000E-03 0.  1.
         12    1    3    3    0    0  0.16018268525E+01 -0.62120033242E+00 -0.21187021340E+01  0.27277532606E+01  0.00000000000E+00 0. -1.
</event>
<event>
 7    1  0.2973028E-011  0.5052887E+02  0.7816164E-02  0.1300439E+00
        -11   -1    0    0    0    0  0.00000000000E+00  0.00000000000E+00  0.45593999997E+02  0.45594000000E+02  0.51100000000E-03 0.  1.
         11   -1    0    0    0    0 -0.00000000000E+00 -0.00000000000E+00 -0.45593999997E+02  0.45594000000E+02  0.51100000000E-03 0. -1.
    9900012    2    1    2    0    0 -0.23395328394E+02 -0.32900006078E+02  0.48386782988E+01  0.50528873125E+02  0.30000040351E+02 0.  0.
         12    1    1    2    0    0  0.23395328394E+02  0.32900006078E+02 -0.48386782988E+01  0.40659126875E+02  0.00000000000E+00 0. -1.
         11    1    3    3    0    0 -0.87378204402E+00  0.10791574144E+01 -0.49591736549E+01  0.51499009103E+01  0.51100000000E-03 0. -1.
        -11    1    3    3    0    0 -0.16841369858E+02 -0.34665564656E+02  0.78209509118E+01  0.39325569100E+02  0.51100000000E-03 0.  1.
        -12    1    3    3    0    0 -0.56801764922E+01  0.68640116408E+00  0.19769010418E+01  0.60534031148E+01  0.00000000000E+00 0.  1.
</event>
<event>
 7    1  0.2973028E-011  0.5052887E+02  0.7816164E-02  0.1300439E+00
        -11   -1    0    0    0    0  0.00000000000E+00  0.00000000000E+00  0.45593999997E+02  0.45594000000E+02  0.51100000000E-03 0.  1.
         11   -1    0    0    0    0 -0.00000000000E+00 -0.00000000000E+00 -0.45593999997E+02  0.45594000000E+02  0.51100000000E-03 0. -1.
    9900012    2    1    2    0    0 -0.36253007083E+02 -0.86683221857E+01  0.16240223357E+02  0.50528865888E+02  0.30000018352E+02 0.  0.
         12    1    1    2    0    0  0.36253007083E+02  0.86683221857E+01 -0.16240223357E+02  0.40659134112E+02  0.00000000000E+00 0. -1.
         11    1    3    3    0    0 -0.11535082192E+02 -0.15547406188E+01 -0.67158811531E+01  0.13437946253E+02  0.51100000000E-03 0.  1.
        -11    1    3    3    0    0 -0.15049233218E+02 -0.44019362456E+01  0.21983170454E+02  0.27002152629E+02  0.51100000000E-03 0. -1.
         12    1    3    3    0    0 -0.96686916725E+01 -0.27116453214E+01  0.97293405705E+00  0.10088767005E+02  0.00000000000E+00 0. -1.
</event>
<event>
 7    1  0.2973028E-011  0.5052884E+02  0.7816164E-02  0.1300439E+00
        -11   -1    0    0    0    0  0.00000000000E+00  0.00000000000E+00  0.45593999997E+02  0.45594000000E+02  0.51100000000E-03 0. -1.
         11   -1    0    0    0    0 -0.00000000000E+00 -0.00000000000E+00 -0.45593999997E+02  0.45594000000E+02  0.51100000000E-03 0.  1.
    9900012    2    1    2    0    0 -0.36587719224E+02  0.26650757623E+01 -0.17532915672E+02  0.50528844096E+02  0.29999952115E+02 0.  0.
         12    1    1    2    0    0  0.36587719224E+02 -0.26650757623E+01  0.17532915672E+02  0.40659155904E+02  0.00000000000E+00 0. -1.
         11    1    3    3    0    0 -0.75662508135E+01  0.37008556283E+01 -0.25536623296E+00  0.84267251011E+01  0.51100000000E-03 0. -1.
        -11    1    3    3    0    0  0.27427346355E+01  0.20929989487E+01 -0.82342145580E+01  0.89277952221E+01  0.51100000000E-03 0.  1.
        -12    1    3    3    0    0 -0.31764203046E+02 -0.31287788148E+01 -0.90433348811E+01  0.33174323773E+02  0.00000000000E+00 0.  1.
</event>
<event>
 7    1  0.2973028E-011  0.5052886E+02  0.7816164E-02  0.1300439E+00
        -11   -1    0    0    0    0  0.00000000000E+00  0.00000000000E+00  0.45593999997E+02  0.45594000000E+02  0.51100000000E-03 0. -1.
         11   -1    0    0    0    0 -0.00000000000E+00 -0.00000000000E+00 -0.45593999997E+02  0.45594000000E+02  0.51100000000E-03 0.  1.
    9900012    2    1    2    0    0 -0.28865229383E+02  0.28515978083E+02  0.26082901399E+01  0.50528860181E+02  0.30000001006E+02 0.  0.
         12    1    1    2    0    0  0.28865229383E+02 -0.28515978083E+02 -0.26082901399E+01  0.40659139819E+02  0.00000000000E+00 0. -1.
         11    1    3    3    0    0 -0.10286126566E+02  0.16219520323E+02 -0.60610222662E+01  0.20139841867E+02  0.51100000000E-03 0. -1.
        -11    1    3    3    0    0 -0.22380178213E+02  0.10058827651E+02  0.85261169356E+01  0.25975893841E+02  0.51100000000E-03 0.  1.
         12    1    3    3    0    0  0.38010753962E+01  0.22376301093E+01  0.14319547046E+00  0.44131244732E+01  0.00000000000E+00 0. -1.
</event>
<event>
 7    1  0.2973028E-011  0.5052885E+02  0.7816164E-02  0.1300439E+00
        -11   -1    0    0    0    0  0.00000000000E+00  0.00000000000E+00  0.45593999997E+02  0.45594000000E+02  0.51100000000E-03 0.  1.
         11   -1    0    0    0    0 -0.00000000000E+00 -0.00000000000E+00 -0.45593999997E+02  0.45594000000E+02  0.51100000000E-03 0. -1.
    9900012    2    1    2    0    0 -0.74093613304E+01  0.37394637885E+02  0.14138920193E+02  0.50528847991E+02  0.29999963953E+02 0.  0.
         12    1    1    2    0    0  0.74093613304E+01 -0.37394637885E+02 -0.14138920193E+02  0.40659152009E+02  0.00000000000E+00 0. -1.
         11    1    3    3    0    0  0.30045427845E+01  0.13099019635E+02 -0.40051453515E+01  0.14023294274E+02  0.51100000000E-03 0. -1.
        -11    1    3    3    0    0  0.75173260437E+00  0.17462893360E+02  0.15023735558E+02  0.23048435452E+02  0.51100000000E-03 0.  1.
        -12    1    3    3    0    0 -0.11165636719E+02  0.68327248905E+01  0.31203299864E+01  0.13457118265E+02  0.00000000000E+00 0.  1.
</event>
<event>
 7    1  0.2973028E-011  0.5052886E+02  0.7816164E-02  0.1300439E+00
        -11   -1    0    0    0    0  0.00000000000E+00  0.00000000000E+00  0.45593999997E+02  0.45594000000E+02  0.51100000000E-03 0.  1.
         11   -1    0    0    0    0 -0.00000000000E+00 -0.00000000000E+00 -0.45593999997E+02  0.45594000000E+02  0.51100000000E-03 0. -1.
    9900012    2    1    2    0    0 -0.23685246288E+02 -0.65515413202E+01  0.32392162337E+02  0.50528858761E+02  0.29999996690E+02 0.  0.
         12    1    1    2    0    0  0.23685246288E+02  0.65515413202E+01 -0.32392162337E+02  0.40659141239E+02  0.00000000000E+00 0. -1.
         11    1    3    3    0    0 -0.13272462975E+02 -0.96625276699E+01  0.29427261354E+01  0.16678799470E+02  0.51100000000E-03 0. -1.
        -11    1    3    3    0    0 -0.10967370705E+02 -0.10915988827E+01  0.26457924767E+02  0.28661761836E+02  0.51100000000E-03 0.  1.
         12    1    3    3    0    0  0.55458739292E+00  0.42025852324E+01  0.29915114349E+01  0.51882974546E+01  0.00000000000E+00 0. -1.
</event>
<event>
 7    1  0.2973028E-011  0.5052882E+02  0.7816164E-02  0.1300439E+00
        -11   -1    0    0    0    0  0.00000000000E+00  0.00000000000E+00  0.45593999997E+02  0.45594000000E+02  0.51100000000E-03 0.  1.
         11   -1    0    0    0    0 -0.00000000000E+00 -0.00000000000E+00 -0.45593999997E+02  0.45594000000E+02  0.51100000000E-03 0. -1.
    9900012    2    1    2    0    0 -0.29392327003E+02 -0.28046207720E+02  0.16340076431E+01  0.50528823482E+02  0.29999889457E+02 0.  0.
         12    1    1    2    0    0  0.29392327003E+02  0.28046207720E+02 -0.16340076431E+01  0.40659176518E+02  0.00000000000E+00 0. -1.
         11    1    3    3    0    0 -0.77575440423E+01  0.34183883552E+01  0.22091059021E+01  0.87604233724E+01  0.51100000000E-03 0. -1.
        -11    1    3    3    0    0 -0.23573205104E+02 -0.27966356754E+02 -0.36014785183E+01  0.36753010173E+02  0.51100000000E-03 0.  1.
         12    1    3    3    0    0  0.19384221432E+01 -0.34982393207E+01  0.30263802593E+01  0.50153899374E+01  0.00000000000E+00 0. -1.
</event>
<event>
 7    1  0.3019969E-011  0.5052895E+02  0.7816164E-02  0.1300438E+00
        -11   -1    0    0    0    0  0.00000000000E+00  0.00000000000E+00  0.45593999997E+02  0.45594000000E+02  0.51100000000E-03 0.  1.
         11   -1    0    0    0    0 -0.00000000000E+00 -0.00000000000E+00 -0.45593999997E+02  0.45594000000E+02  0.51100000000E-03 0. -1.
    9900012    2    1    2    0    0 -0.81778339414E+01  0.36830660901E+02 -0.15158613571E+02  0.50528952842E+02  0.30000282657E+02 0.  0.
         12    1    1    2    0    0  0.81778339414E+01 -0.36830660901E+02  0.15158613571E+02  0.40659047158E+02  0.00000000000E+00 0. -1.
         11    1    3    3    0    0 -0.14532157792E+01 -0.30007004033E+01  0.29203118607E+01  0.44321846347E+01  0.51100000000E-03 0. -1.
        -11    1    3    3    0    0 -0.85183664293E+01  0.31067382444E+02 -0.92214825137E+01  0.33507917849E+02  0.51100000000E-03 0.  1.
        -12    1    3    3    0    0  0.17937482671E+01  0.87639788609E+01 -0.88574429176E+01  0.12588850359E+02  0.00000000000E+00 0.  1.
</event>
<event>
 7    1  0.2973028E-011  0.5052886E+02  0.7816164E-02  0.1300439E+00
        -11   -1    0    0    0    0  0.00000000000E+00  0.00000000000E+00  0.45593999997E+02  0.45594000000E+02  0.51100000000E-03 0.  1.
         11   -1    0    0    0    0 -0.00000000000E+00 -0.00000000000E+00 -0.45593999997E+02  0.45594000000E+02  0.51100000000E-03 0. -1.
    9900012    2    1    2    0    0  0.22110269213E+02  0.28746759246E+01  0.34000563191E+02  0.50528855104E+02  0.29999985574E+02 0.  0.
         12    1    1    2    0    0 -0.22110269213E+02 -0.28746759246E+01 -0.34000563191E+02  0.40659144896E+02  0.00000000000E+00 0. -1.
         11    1    3    3    0    0  0.81929900992E+00 -0.16927162396E+01  0.12207478452E+02  0.12351480460E+02  0.51100000000E-03 0. -1.
        -11    1    3    3    0    0  0.24311972033E+02  0.89775121069E+01  0.16975461160E+02  0.30981187673E+02  0.51100000000E-03 0.  1.
        -12    1    3    3    0    0 -0.30210018301E+01 -0.44101199428E+01  0.48176235799E+01  0.71961869712E+01  0.00000000000E+00 0.  1.
</event>
<event>
 7    1  0.2973028E-011  0.5052886E+02  0.7816164E-02  0.1300439E+00
        -11   -1    0    0    0    0  0.00000000000E+00  0.00000000000E+00  0.45593999997E+02  0.45594000000E+02  0.51100000000E-03 0.  1.
         11   -1    0    0    0    0 -0.00000000000E+00 -0.00000000000E+00 -0.45593999997E+02  0.45594000000E+02  0.51100000000E-03 0. -1.
    9900012    2    1    2    0    0 -0.15873315312E+02  0.12059670758E+02  0.35436811521E+02  0.50528863160E+02  0.30000010062E+02 0.  0.
         12    1    1    2    0    0  0.15873315312E+02 -0.12059670758E+02 -0.35436811521E+02  0.40659136840E+02  0.00000000000E+00 0. -1.
         11    1    3    3    0    0  0.21954334147E+01  0.12307248818E+01  0.20270721499E+02  0.20426374176E+02  0.51100000000E-03 0.  1.
        -11    1    3    3    0    0 -0.16196381701E+02  0.54485235193E+01  0.17013376698E+02  0.24113568290E+02  0.51100000000E-03 0. -1.
         12    1    3    3    0    0 -0.18723670263E+01  0.53804223571E+01 -0.18472866767E+01  0.59889206947E+01  0.00000000000E+00 0. -1.
</event>
<event>
 7    1  0.2973028E-011  0.5052885E+02  0.7816164E-02  0.1300439E+00
        -11   -1    0    0    0    0  0.00000000000E+00  0.00000000000E+00  0.45593999997E+02  0.45594000000E+02  0.51100000000E-03 0.  1.
         11   -1    0    0    0    0 -0.00000000000E+00 -0.00000000000E+00 -0.45593999997E+02  0.45594000000E+02  0.51100000000E-03 0. -1.
    9900012    2    1    2    0    0 -0.16670432948E+02 -0.16711636370E+02  0.33105650032E+02  0.50528853564E+02  0.29999980894E+02 0.  0.
         12    1    1    2    0    0  0.16670432948E+02  0.16711636370E+02 -0.33105650032E+02  0.40659146436E+02  0.00000000000E+00 0. -1.
         11    1    3    3    0    0 -0.15917482294E+02 -0.14612397624E+01  0.18501270985E+02  0.24449918048E+02  0.51100000000E-03 0. -1.
        -11    1    3    3    0    0 -0.41642234790E+01 -0.11887177533E+01  0.99951989197E+01  0.10893016515E+02  0.51100000000E-03 0.  1.
         12    1    3    3    0    0  0.34112728247E+01 -0.14061678854E+02  0.46091801272E+01  0.15185919002E+02  0.00000000000E+00 0. -1.
</event>
<event>
 7    1  0.2973028E-011  0.5052885E+02  0.7816164E-02  0.1300439E+00
        -11   -1    0    0    0    0  0.00000000000E+00  0.00000000000E+00  0.45593999997E+02  0.45594000000E+02  0.51100000000E-03 0.  1.
         11   -1    0    0    0    0 -0.00000000000E+00 -0.00000000000E+00 -0.45593999997E+02  0.45594000000E+02  0.51100000000E-03 0. -1.
    9900012    2    1    2    0    0 -0.17363228586E+02 -0.62501721787E+01  0.36230095801E+02  0.50528853416E+02  0.29999980443E+02 0.  0.
         12    1    1    2    0    0  0.17363228586E+02  0.62501721787E+01 -0.36230095801E+02  0.40659146584E+02  0.00000000000E+00 0. -1.
         11    1    3    3    0    0  0.37894398643E+01  0.15416920929E+01  0.54237473577E+01  0.67936517909E+01  0.51100000000E-03 0. -1.
        -11    1    3    3    0    0 -0.14465707283E+02 -0.15010178476E+02  0.23898669543E+02  0.31712908275E+02  0.51100000000E-03 0.  1.
        -12    1    3    3    0    0 -0.66869611681E+01  0.72183142042E+01  0.69076789002E+01  0.12022293350E+02  0.00000000000E+00 0.  1.
</event>
<event>
 7    1  0.2973028E-011  0.5052885E+02  0.7816164E-02  0.1300439E+00
        -11   -1    0    0    0    0  0.00000000000E+00  0.00000000000E+00  0.45593999997E+02  0.45594000000E+02  0.51100000000E-03 0. -1.
         11   -1    0    0    0    0 -0.00000000000E+00 -0.00000000000E+00 -0.45593999997E+02  0.45594000000E+02  0.51100000000E-03 0.  1.
    9900012    2    1    2    0    0  0.30783827964E+02 -0.19102576171E+02 -0.18455732370E+02  0.50528849273E+02  0.29999967851E+02 0.  0.
         12    1    1    2    0    0 -0.30783827964E+02  0.19102576171E+02  0.18455732370E+02  0.40659150727E+02  0.00000000000E+00 0. -1.
         11    1    3    3    0    0  0.42544625954E+01 -0.15852470759E+02 -0.85737660713E+01  0.18517849390E+02  0.51100000000E-03 0. -1.
        -11    1    3    3    0    0  0.11126194343E+02  0.46039828743E+01  0.10959634926E+00  0.12041630724E+02  0.51100000000E-03 0.  1.
         12    1    3    3    0    0  0.15403171026E+02 -0.78540882865E+01 -0.99915626483E+01  0.19969369159E+02  0.00000000000E+00 0. -1.
</event>
<event>
 7    1  0.2973028E-011  0.5052887E+02  0.7816164E-02  0.1300439E+00
        -11   -1    0    0    0    0  0.00000000000E+00  0.00000000000E+00  0.45593999997E+02  0.45594000000E+02  0.51100000000E-03 0.  1.
         11   -1    0    0    0    0 -0.00000000000E+00 -0.00000000000E+00 -0.45593999997E+02  0.45594000000E+02  0.51100000000E-03 0. -1.
    9900012    2    1    2    0    0  0.31801355805E+02  0.14757620341E+02  0.20592514862E+02  0.50528865017E+02  0.30000015707E+02 0.  0.
         12    1    1    2    0    0 -0.31801355805E+02 -0.14757620341E+02 -0.20592514862E+02  0.40659134983E+02  0.00000000000E+00 0. -1.
         11    1    3    3    0    0  0.60212563916E+01  0.28789608639E+01 -0.24819076837E+01  0.71206607981E+01  0.51100000000E-03 0. -1.
        -11    1    3    3    0    0  0.24865284767E+02  0.17191768882E+02  0.23053051315E+02  0.38016870978E+02  0.51100000000E-03 0.  1.
        -12    1    3    3    0    0  0.91481464693E+00 -0.53131094046E+01  0.21371231220E-01  0.53913332408E+01  0.00000000000E+00 0.  1.
</event>
<event>
 7    1  0.2973028E-011  0.5052886E+02  0.7816164E-02  0.1300439E+00
        -11   -1    0    0    0    0  0.00000000000E+00  0.00000000000E+00  0.45593999997E+02  0.45594000000E+02  0.51100000000E-03 0.  1.
         11   -1    0    0    0    0 -0.00000000000E+00 -0.00000000000E+00 -0.45593999997E+02  0.45594000000E+02  0.51100000000E-03 0. -1.
    9900012    2    1    2    0    0 -0.36227893573E+01 -0.12771777196E+01  0.40477276748E+02  0.50528859348E+02  0.29999998474E+02 0.  0.
         12    1    1    2    0    0  0.36227893573E+01  0.12771777196E+01 -0.40477276748E+02  0.40659140652E+02  0.00000000000E+00 0. -1.
         11    1    3    3    0    0  0.11992238058E+02 -0.25491179234E+01  0.17980115304E+02  0.21762268320E+02  0.51100000000E-03 0. -1.
        -11    1    3    3    0    0 -0.13061125391E+02 -0.53763012992E+00  0.11763405701E+02  0.17585782797E+02  0.51100000000E-03 0.  1.
         12    1    3    3    0    0 -0.25539020240E+01  0.18095703337E+01  0.10733755743E+02  0.11180808231E+02  0.00000000000E+00 0. -1.
</event>
<event>
 7    1  0.2973028E-011  0.5052887E+02  0.7816164E-02  0.1300439E+00
        -11   -1    0    0    0    0  0.00000000000E+00  0.00000000000E+00  0.45593999997E+02  0.45594000000E+02  0.51100000000E-03 0.  1.
         11   -1    0    0    0    0 -0.00000000000E+00 -0.00000000000E+00 -0.45593999997E+02  0.45594000000E+02  0.51100000000E-03 0. -1.
    9900012    2    1    2    0    0 -0.35561617271E+02 -0.10780582467E+02  0.16501978239E+02  0.50528869819E+02  0.30000030303E+02 0.  0.
         12    1    1    2    0    0  0.35561617271E+02  0.10780582467E+02 -0.16501978239E+02  0.40659130181E+02  0.00000000000E+00 0. -1.
         11    1    3    3    0    0 -0.12890290066E+02 -0.56722920243E+01  0.17499036424E+02  0.22462207167E+02  0.51100000000E-03 0. -1.
        -11    1    3    3    0    0  0.15034325282E+01  0.83368324631E+00 -0.26043040458E+01  0.31205347212E+01  0.51100000000E-03 0.  1.
        -12    1    3    3    0    0 -0.24174759733E+02 -0.59419736886E+01  0.16072458604E+01  0.24946127931E+02  0.00000000000E+00 0.  1.
</event>
<event>
 7    1  0.2973028E-011  0.5052886E+02  0.7816164E-02  0.1300439E+00
        -11   -1    0    0    0    0  0.00000000000E+00  0.00000000000E+00  0.45593999997E+02  0.45594000000E+02  0.51100000000E-03 0.  1.
         11   -1    0    0    0    0 -0.00000000000E+00 -0.00000000000E+00 -0.45593999997E+02  0.45594000000E+02  0.51100000000E-03 0. -1.
    9900012    2    1    2    0    0 -0.35356079748E+02  0.19036799874E+02  0.63807062116E+01  0.50528861588E+02  0.30000005283E+02 0.  0.
         12    1    1    2    0    0  0.35356079748E+02 -0.19036799874E+02 -0.63807062116E+01  0.40659138412E+02  0.00000000000E+00 0. -1.
         11    1    3    3    0    0 -0.18283165825E+02  0.15753535122E+02  0.13304296363E+02  0.27558162555E+02  0.51100000000E-03 0.  1.
        -11    1    3    3    0    0 -0.12902424510E+02 -0.31641088265E+01 -0.75260580788E+01  0.15268454191E+02  0.51100000000E-03 0. -1.
         12    1    3    3    0    0 -0.41704894134E+01  0.64473735789E+01  0.60246792785E+00  0.77022448427E+01  0.00000000000E+00 0. -1.
</event>
<event>
 7    1  0.2973028E-011  0.5052886E+02  0.7816164E-02  0.1300439E+00
        -11   -1    0    0    0    0  0.00000000000E+00  0.00000000000E+00  0.45593999997E+02  0.45594000000E+02  0.51100000000E-03 0.  1.
         11   -1    0    0    0    0 -0.00000000000E+00 -0.00000000000E+00 -0.45593999997E+02  0.45594000000E+02  0.51100000000E-03 0. -1.
    9900012    2    1    2    0    0 -0.11445242384E+02 -0.97258970606E+01  0.37783318110E+02  0.50528858663E+02  0.29999996391E+02 0.  0.
         12    1    1    2    0    0  0.11445242384E+02  0.97258970606E+01 -0.37783318110E+02  0.40659141337E+02  0.00000000000E+00 0. -1.
         11    1    3    3    0    0 -0.59890479150E+01 -0.34903017333E+01 -0.25656467895E+01  0.73914440285E+01  0.51100000000E-03 0. -1.
        -11    1    3    3    0    0 -0.80143888665E+01  0.39036496534E+00  0.24198984742E+02  0.25494581317E+02  0.51100000000E-03 0.  1.
         12    1    3    3    0    0  0.25581943972E+01 -0.66259602927E+01  0.16149980157E+02  0.17642833317E+02  0.00000000000E+00 0. -1.
</event>
<event>
 7    1  0.2973028E-011  0.5052886E+02  0.7816164E-02  0.1300439E+00
        -11   -1    0    0    0    0  0.00000000000E+00  0.00000000000E+00  0.45593999997E+02  0.45594000000E+02  0.51100000000E-03 0. -1.
         11   -1    0    0    0    0 -0.00000000000E+00 -0.00000000000E+00 -0.45593999997E+02  0.45594000000E+02  0.51100000000E-03 0.  1.
    9900012    2    1    2    0    0  0.28967159696E+02  0.54590422916E+01 -0.28004792124E+02  0.50528857541E+02  0.29999992981E+02 0.  0.
         12    1    1    2    0    0 -0.28967159696E+02 -0.54590422916E+01  0.28004792124E+02  0.40659142459E+02  0.00000000000E+00 0. -1.
         11    1    3    3    0    0 -0.46496099608E+01  0.13286170599E+00 -0.33950847976E+01  0.57587434450E+01  0.51100000000E-03 0. -1.
        -11    1    3    3    0    0  0.32669848600E+02  0.14749947515E+01 -0.24392746552E+02  0.40798292877E+02  0.51100000000E-03 0.  1.
        -12    1    3    3    0    0  0.94692105687E+00  0.38511858341E+01 -0.21696077427E+00  0.39718212188E+01  0.00000000000E+00 0.  1.
</event>
<event>
 7    1  0.2973028E-011  0.5052886E+02  0.7816164E-02  0.1300439E+00
        -11   -1    0    0    0    0  0.00000000000E+00  0.00000000000E+00  0.45593999997E+02  0.45594000000E+02  0.51100000000E-03 0.  1.
         11   -1    0    0    0    0 -0.00000000000E+00 -0.00000000000E+00 -0.45593999997E+02  0.45594000000E+02  0.51100000000E-03 0. -1.
    9900012    2    1    2    0    0  0.27719172193E+02  0.39380474480E+01  0.29483978892E+02  0.50528859132E+02  0.29999997818E+02 0.  0.
         12    1    1    2    0    0 -0.27719172193E+02 -0.39380474480E+01 -0.29483978892E+02  0.40659140868E+02  0.00000000000E+00 0. -1.
         11    1    3    3    0    0 -0.21196369443E+01 -0.42047777255E+01  0.36433689657E+01  0.59537512694E+01  0.51100000000E-03 0.  1.
        -11    1    3    3    0    0  0.23443628651E+02  0.64300446133E+01  0.28483294733E+02  0.37446592331E+02  0.51100000000E-03 0. -1.
         12    1    3    3    0    0  0.63951804865E+01  0.17127805603E+01 -0.26426848068E+01  0.71285155320E+01  0.00000000000E+00 0. -1.
</event>
<event>
 7    1  0.2973028E-011  0.5052885E+02  0.7816164E-02  0.1300439E+00
        -11   -1    0    0    0    0  0.00000000000E+00  0.00000000000E+00  0.45593999997E+02  0.45594000000E+02  0.51100000000E-03 0. -1.
         11   -1    0    0    0    0 -0.00000000000E+00 -0.00000000000E+00 -0.45593999997E+02  0.45594000000E+02  0.51100000000E-03 0.  1.
    9900012    2    1    2    0    0  0.44341187664E+01  0.14561140257E+02 -0.37702492783E+02  0.50528853712E+02  0.29999981342E+02 0.  0.
         12    1    1    2    0    0 -0.44341187664E+01 -0.14561140257E+02  0.37702492783E+02  0.40659146288E+02  0.00000000000E+00 0. -1.
         11    1    3    3    0    0 -0.11449466405E+01  0.10617872242E+02 -0.10772266904E+01  0.10733616881E+02  0.51100000000E-03 0. -1.
        -11    1    3    3    0    0  0.28436650915E+01  0.66727549885E+01 -0.34751941210E+02  0.35500838137E+02  0.51100000000E-03 0.  1.
        -12    1    3    3    0    0  0.27354003154E+01 -0.27294869731E+01 -0.18733248831E+01  0.42943986936E+01  0.00000000000E+00 0.  1.
</event>
<event>
 7    1  0.2973028E-011  0.5052883E+02  0.7816164E-02  0.1300439E+00
        -11   -1    0    0    0    0  0.00000000000E+00  0.00000000000E+00  0.45593999997E+02  0.45594000000E+02  0.51100000000E-03 0.  1.
         11   -1    0    0    0    0 -0.00000000000E+00 -0.00000000000E+00 -0.45593999997E+02  0.45594000000E+02  0.51100000000E-03 0. -1.
    9900012    2    1    2    0    0 -0.20822002968E+02  0.48297321863E+01  0.34587369277E+02  0.50528828413E+02  0.29999904445E+02 0.  0.
         12    1    1    2    0    0  0.20822002968E+02 -0.48297321863E+01 -0.34587369277E+02  0.40659171587E+02  0.00000000000E+00 0. -1.
         11    1    3    3    0    0 -0.84123665101E+01  0.67074513090E+01  0.24221458099E+02  0.26503525163E+02  0.51100000000E-03 0.  1.
        -11    1    3    3    0    0  0.25094327808E+01 -0.57068255763E+01  0.36318059818E+01  0.72149238381E+01  0.51100000000E-03 0. -1.
        -12    1    3    3    0    0 -0.14919069238E+02  0.38291064536E+01  0.67341051963E+01  0.16810379412E+02  0.00000000000E+00 0.  1.
</event>
<event>
 7    1  0.2973028E-011  0.5052887E+02  0.7816164E-02  0.1300439E+00
        -11   -1    0    0    0    0  0.00000000000E+00  0.00000000000E+00  0.45593999997E+02  0.45594000000E+02  0.51100000000E-03 0. -1.
         11   -1    0    0    0    0 -0.00000000000E+00 -0.00000000000E+00 -0.45593999997E+02  0.45594000000E+02  0.51100000000E-03 0.  1.
    9900012    2    1    2    0    0 -0.28853649712E+02 -0.28570863372E+02  0.20826329688E+01  0.50528871928E+02  0.30000036712E+02 0.  0.
         12    1    1    2    0    0  0.28853649712E+02  0.28570863372E+02 -0.20826329688E+01  0.40659128072E+02  0.00000000000E+00 0. -1.
         11    1    3    3    0    0  0.22332733145E+01  0.35612421278E+01 -0.12264652744E+01  0.43788323239E+01  0.51100000000E-03 0. -1.
        -11    1    3    3    0    0 -0.27208734478E+02 -0.28956087655E+02 -0.68656969306E+00  0.39739673154E+02  0.51100000000E-03 0.  1.
        -12    1    3    3    0    0 -0.38781885484E+01 -0.31760178447E+01  0.39956679362E+01  0.64103664500E+01  0.00000000000E+00 0.  1.
</event>
<event>
 7    1  0.2973028E-011  0.5052886E+02  0.7816164E-02  0.1300439E+00
        -11   -1    0    0    0    0  0.00000000000E+00  0.00000000000E+00  0.45593999997E+02  0.45594000000E+02  0.51100000000E-03 0.  1.
         11   -1    0    0    0    0 -0.00000000000E+00 -0.00000000000E+00 -0.45593999997E+02  0.45594000000E+02  0.51100000000E-03 0. -1.
    9900012    2    1    2    0    0 -0.36668226355E+02 -0.10766241933E+02 -0.13881450763E+02  0.50528862471E+02  0.30000007965E+02 0.  0.
         12    1    1    2    0    0  0.36668226355E+02  0.10766241933E+02  0.13881450763E+02  0.40659137529E+02  0.00000000000E+00 0. -1.
         11    1    3    3    0    0 -0.17345669462E+02  0.47326139827E+01 -0.17348844596E+01  0.18063214236E+02  0.51100000000E-03 0.  1.
        -11    1    3    3    0    0 -0.17899779250E+02 -0.15571640185E+02 -0.38351612269E+01  0.24033030129E+02  0.51100000000E-03 0. -1.
         12    1    3    3    0    0 -0.14227776422E+01  0.72784269296E-01 -0.83114050764E+01  0.84326181055E+01  0.00000000000E+00 0. -1.
</event>
<event>
 7    1  0.2973028E-011  0.5052886E+02  0.7816164E-02  0.1300439E+00
        -11   -1    0    0    0    0  0.00000000000E+00  0.00000000000E+00  0.45593999997E+02  0.45594000000E+02  0.51100000000E-03 0.  1.
         11   -1    0    0    0    0 -0.00000000000E+00 -0.00000000000E+00 -0.45593999997E+02  0.45594000000E+02  0.51100000000E-03 0. -1.
    9900012    2    1    2    0    0  0.14644864930E+02  0.29630521291E+02  0.23679643762E+02  0.50528863395E+02  0.30000010774E+02 0.  0.
         12    1    1    2    0    0 -0.14644864930E+02 -0.29630521291E+02 -0.23679643762E+02  0.40659136605E+02  0.00000000000E+00 0. -1.
         11    1    3    3    0    0  0.18740169792E+01 -0.54379195758E+00 -0.24447488406E+01  0.31280099882E+01  0.51100000000E-03 0. -1.
        -11    1    3    3    0    0  0.11772795689E+02  0.29152291875E+02  0.29885629654E+02  0.43377479180E+02  0.51100000000E-03 0.  1.
        -12    1    3    3    0    0  0.99805226195E+00  0.10220213742E+01 -0.37612370520E+01  0.40233742267E+01  0.00000000000E+00 0.  1.
</event>
<event>
 7    1  0.2973028E-011  0.5052887E+02  0.7816164E-02  0.1300439E+00
        -11   -1    0    0    0    0  0.00000000000E+00  0.00000000000E+00  0.45593999997E+02  0.45594000000E+02  0.51100000000E-03 0.  1.
         11   -1    0    0    0    0 -0.00000000000E+00 -0.00000000000E+00 -0.45593999997E+02  0.45594000000E+02  0.51100000000E-03 0. -1.
    9900012    2    1    2    0    0  0.35205978336E+02  0.14899271140E+02  0.13846138115E+02  0.50528871482E+02  0.30000035358E+02 0.  0.
         12    1    1    2    0    0 -0.35205978336E+02 -0.14899271140E+02 -0.13846138115E+02  0.40659128518E+02  0.00000000000E+00 0. -1.
         11    1    3    3    0    0 -0.21665643721E+00 -0.23615511289E+01  0.90035652105E+01  0.93106417882E+01  0.51100000000E-03 0. -1.
        -11    1    3    3    0    0  0.17023509004E+02  0.47914628111E+01 -0.23876294730E+01  0.17845412560E+02  0.51100000000E-03 0.  1.
         12    1    3    3    0    0  0.18399125770E+02  0.12469359457E+02  0.72302023776E+01  0.23372817134E+02  0.00000000000E+00 0. -1.
</event>
<event>
 7    1  0.2973028E-011  0.5052883E+02  0.7816164E-02  0.1300439E+00
        -11   -1    0    0    0    0  0.00000000000E+00  0.00000000000E+00  0.45593999997E+02  0.45594000000E+02  0.51100000000E-03 0.  1.
         11   -1    0    0    0    0 -0.00000000000E+00 -0.00000000000E+00 -0.45593999997E+02  0.45594000000E+02  0.51100000000E-03 0. -1.
    9900012    2    1    2    0    0  0.38276354051E+02  0.54025572675E+01  0.12605590924E+02  0.50528833420E+02  0.29999919663E+02 0.  0.
         12    1    1    2    0    0 -0.38276354051E+02 -0.54025572675E+01 -0.12605590924E+02  0.40659166580E+02  0.00000000000E+00 0. -1.
         11    1    3    3    0    0  0.31991883181E+01  0.50479146640E+01  0.14147642493E+02  0.15358126081E+02  0.51100000000E-03 0. -1.
        -11    1    3    3    0    0  0.80617461740E+01  0.12275435951E+00 -0.12047096146E+01  0.81521865486E+01  0.51100000000E-03 0.  1.
         12    1    3    3    0    0  0.27015419559E+02  0.23188824398E+00 -0.33734195473E+00  0.27018520790E+02  0.00000000000E+00 0. -1.
</event>
<event>
 7    1  0.2973028E-011  0.5052887E+02  0.7816164E-02  0.1300439E+00
        -11   -1    0    0    0    0  0.00000000000E+00  0.00000000000E+00  0.45593999997E+02  0.45594000000E+02  0.51100000000E-03 0.  1.
         11   -1    0    0    0    0 -0.00000000000E+00 -0.00000000000E+00 -0.45593999997E+02  0.45594000000E+02  0.51100000000E-03 0. -1.
    9900012    2    1    2    0    0 -0.39027713743E+01 -0.34384706475E+02  0.21345385116E+02  0.50528866591E+02  0.30000020491E+02 0.  0.
         12    1    1    2    0    0  0.39027713743E+01  0.34384706475E+02 -0.21345385116E+02  0.40659133409E+02  0.00000000000E+00 0. -1.
         11    1    3    3    0    0  0.42386750415E+01 -0.56148252402E+01 -0.47606371469E+01  0.84944861464E+01  0.51100000000E-03 0. -1.
        -11    1    3    3    0    0 -0.71357995745E+01 -0.26359276008E+02  0.27761970484E+02  0.38941726626E+02  0.51100000000E-03 0.  1.
        -12    1    3    3    0    0 -0.10056468413E+01 -0.24106052274E+01 -0.16559482212E+01  0.30926538188E+01  0.00000000000E+00 0.  1.
</event>
<event>
 7    1  0.2973028E-011  0.5052886E+02  0.7816164E-02  0.1300439E+00
        -11   -1    0    0    0    0  0.00000000000E+00  0.00000000000E+00  0.45593999997E+02  0.45594000000E+02  0.51100000000E-03 0. -1.
         11   -1    0    0    0    0 -0.00000000000E+00 -0.00000000000E+00 -0.45593999997E+02  0.45594000000E+02  0.51100000000E-03 0.  1.
    9900012    2    1    2    0    0  0.38175096182E+02  0.10546563661E+02 -0.91977184162E+01  0.50528855916E+02  0.29999988043E+02 0.  0.
         12    1    1    2    0    0 -0.38175096182E+02 -0.10546563661E+02  0.91977184162E+01  0.40659144084E+02  0.00000000000E+00 0. -1.
         11    1    3    3    0    0 -0.25545728449E+01  0.76617131213E+00  0.12061561461E+01  0.29270589009E+01  0.51100000000E-03 0. -1.
        -11    1    3    3    0    0  0.22530794534E+02  0.15096224792E+02 -0.90635879803E+01  0.28595127778E+02  0.51100000000E-03 0.  1.
        -12    1    3    3    0    0  0.18198874493E+02 -0.53158324429E+01 -0.13402865821E+01  0.19006669237E+02  0.00000000000E+00 0.  1.
</event>
<event>
 7    1  0.2973028E-011  0.5052886E+02  0.7816164E-02  0.1300439E+00
        -11   -1    0    0    0    0  0.00000000000E+00  0.00000000000E+00  0.45593999997E+02  0.45594000000E+02  0.51100000000E-03 0. -1.
         11   -1    0    0    0    0 -0.00000000000E+00 -0.00000000000E+00 -0.45593999997E+02  0.45594000000E+02  0.51100000000E-03 0.  1.
    9900012    2    1    2    0    0  0.90211268189E+01  0.20688568071E+02 -0.33819640672E+02  0.50528859907E+02  0.30000000174E+02 0.  0.
         12    1    1    2    0    0 -0.90211268189E+01 -0.20688568071E+02  0.33819640672E+02  0.40659140093E+02  0.00000000000E+00 0. -1.
         11    1    3    3    0    0  0.20356472928E+01 -0.42279731701E+00  0.10564105625E+01  0.23320851206E+01  0.51100000000E-03 0. -1.
        -11    1    3    3    0    0  0.14778354471E+02  0.20733175038E+02 -0.26450664248E+02  0.36713784161E+02  0.51100000000E-03 0.  1.
        -12    1    3    3    0    0 -0.77928749444E+01  0.37819035024E+00 -0.84253869862E+01  0.11482990626E+02  0.00000000000E+00 0.  1.
</event>
<event>
 7    1  0.2973028E-011  0.5052887E+02  0.7816164E-02  0.1300439E+00
        -11   -1    0    0    0    0  0.00000000000E+00  0.00000000000E+00  0.45593999997E+02  0.45594000000E+02  0.51100000000E-03 0.  1.
         11   -1    0    0    0    0 -0.00000000000E+00 -0.00000000000E+00 -0.45593999997E+02  0.45594000000E+02  0.51100000000E-03 0. -1.
    9900012    2    1    2    0    0 -0.35403874017E+02  0.14200276728E+02  0.14074180752E+02  0.50528871647E+02  0.30000035858E+02 0.  0.
         12    1    1    2    0    0  0.35403874017E+02 -0.14200276728E+02 -0.14074180752E+02  0.40659128353E+02  0.00000000000E+00 0. -1.
         11    1    3    3    0    0 -0.47583346375E+01  0.84082266222E+01  0.16623060186E+02  0.19226704181E+02  0.51100000000E-03 0. -1.
        -11    1    3    3    0    0 -0.12564149019E+02  0.21577732999E+01 -0.71317117296E+00  0.12768024106E+02  0.51100000000E-03 0.  1.
         12    1    3    3    0    0 -0.18081390360E+02  0.36342768059E+01 -0.18357082610E+01  0.18534143360E+02  0.00000000000E+00 0. -1.
</event>
<event>
 7    1  0.2973028E-011  0.5052886E+02  0.7816164E-02  0.1300439E+00
        -11   -1    0    0    0    0  0.00000000000E+00  0.00000000000E+00  0.45593999997E+02  0.45594000000E+02  0.51100000000E-03 0. -1.
         11   -1    0    0    0    0 -0.00000000000E+00 -0.00000000000E+00 -0.45593999997E+02  0.45594000000E+02  0.51100000000E-03 0.  1.
    9900012    2    1    2    0    0  0.11007510844E+02  0.10529251038E+01 -0.39126607837E+02  0.50528863425E+02  0.30000010866E+02 0.  0.
         12    1    1    2    0    0 -0.11007510844E+02 -0.10529251038E+01  0.39126607837E+02  0.40659136575E+02  0.00000000000E+00 0. -1.
         11    1    3    3    0    0 -0.80669113311E+01 -0.40259341686E+01 -0.41036018407E+01  0.99056929431E+01  0.51100000000E-03 0. -1.
        -11    1    3    3    0    0  0.32687312371E+01  0.29753955393E+01 -0.10247443066E+02  0.11160092838E+02  0.51100000000E-03 0.  1.
         12    1    3    3    0    0  0.15805690938E+02  0.21034637332E+01 -0.24775562930E+02  0.29463077643E+02  0.00000000000E+00 0. -1.
</event>
<event>
 7    1  0.2973028E-011  0.5052886E+02  0.7816164E-02  0.1300439E+00
        -11   -1    0    0    0    0  0.00000000000E+00  0.00000000000E+00  0.45593999997E+02  0.45594000000E+02  0.51100000000E-03 0.  1.
         11   -1    0    0    0    0 -0.00000000000E+00 -0.00000000000E+00 -0.45593999997E+02  0.45594000000E+02  0.51100000000E-03 0. -1.
    9900012    2    1    2    0    0  0.16777984048E+02  0.88662363851E+01  0.35959075151E+02  0.50528856108E+02  0.29999988625E+02 0.  0.
         12    1    1    2    0    0 -0.16777984048E+02 -0.88662363851E+01 -0.35959075151E+02  0.40659143892E+02  0.00000000000E+00 0. -1.
         11    1    3    3    0    0  0.97159425883E+01  0.26361549459E+01  0.85290569913E+01  0.13194455908E+02  0.51100000000E-03 0. -1.
        -11    1    3    3    0    0 -0.49548578062E+01  0.58159594354E+01  0.23458601643E+02  0.24671481337E+02  0.51100000000E-03 0.  1.
        -12    1    3    3    0    0  0.12016899265E+02  0.41412200383E+00  0.39714165167E+01  0.12662918863E+02  0.00000000000E+00 0.  1.
</event>
<event>
 7    1  0.2973028E-011  0.5052886E+02  0.7816164E-02  0.1300439E+00
        -11   -1    0    0    0    0  0.00000000000E+00  0.00000000000E+00  0.45593999997E+02  0.45594000000E+02  0.51100000000E-03 0. -1.
         11   -1    0    0    0    0 -0.00000000000E+00 -0.00000000000E+00 -0.45593999997E+02  0.45594000000E+02  0.51100000000E-03 0.  1.
    9900012    2    1    2    0    0 -0.13762559868E+02  0.88486217670E+01 -0.37221760645E+02  0.50528860477E+02  0.30000001905E+02 0.  0.
         12    1    1    2    0    0  0.13762559868E+02 -0.88486217670E+01  0.37221760645E+02  0.40659139523E+02  0.00000000000E+00 0. -1.
         11    1    3    3    0    0  0.37666598028E+01 -0.16373428392E+01 -0.22938520495E+02  0.23303311790E+02  0.51100000000E-03 0. -1.
        -11    1    3    3    0    0 -0.12700953453E+02  0.98799088524E+01 -0.15355937809E+02  0.22242563787E+02  0.51100000000E-03 0.  1.
         12    1    3    3    0    0 -0.48282662173E+01  0.60605575374E+00  0.10726976591E+01  0.49829848996E+01  0.00000000000E+00 0. -1.
</event>
<event>
 7    1  0.2973028E-011  0.5052885E+02  0.7816164E-02  0.1300439E+00
        -11   -1    0    0    0    0  0.00000000000E+00  0.00000000000E+00  0.45593999997E+02  0.45594000000E+02  0.51100000000E-03 0.  1.
         11   -1    0    0    0    0 -0.00000000000E+00 -0.00000000000E+00 -0.45593999997E+02  0.45594000000E+02  0.51100000000E-03 0. -1.
    9900012    2    1    2    0    0  0.28049717102E+01  0.38206074027E+02  0.13623312480E+02  0.50528848487E+02  0.29999965462E+02 0.  0.
         12    1    1    2    0    0 -0.28049717102E+01 -0.38206074027E+02 -0.13623312480E+02  0.40659151513E+02  0.00000000000E+00 0. -1.
         11    1    3    3    0    0 -0.44971216907E+01  0.28919142569E+01 -0.65210747233E+01  0.84327745955E+01  0.51100000000E-03 0. -1.
        -11    1    3    3    0    0  0.67717440724E-02  0.11833675748E+02  0.32774312739E+01  0.12279148324E+02  0.51100000000E-03 0.  1.
         12    1    3    3    0    0  0.72953216568E+01  0.23480484022E+02  0.16866955929E+02  0.29816925567E+02  0.00000000000E+00 0. -1.
</event>
<event>
 7    1  0.2973028E-011  0.5052886E+02  0.7816164E-02  0.1300439E+00
        -11   -1    0    0    0    0  0.00000000000E+00  0.00000000000E+00  0.45593999997E+02  0.45594000000E+02  0.51100000000E-03 0. -1.
         11   -1    0    0    0    0 -0.00000000000E+00 -0.00000000000E+00 -0.45593999997E+02  0.45594000000E+02  0.51100000000E-03 0.  1.
    9900012    2    1    2    0    0 -0.49051734327E+01  0.39005102816E+02 -0.10378200685E+02  0.50528858082E+02  0.29999994625E+02 0.  0.
         12    1    1    2    0    0  0.49051734327E+01 -0.39005102816E+02  0.10378200685E+02  0.40659141918E+02  0.00000000000E+00 0. -1.
         11    1    3    3    0    0  0.69469446313E+01  0.50679827918E+01 -0.22635132989E+01  0.88920178814E+01  0.51100000000E-03 0. -1.
        -11    1    3    3    0    0 -0.14314126938E+02  0.14450881886E+02 -0.83675768183E+01  0.21994057364E+02  0.51100000000E-03 0.  1.
        -12    1    3    3    0    0  0.24620088740E+01  0.19486238138E+02  0.25288943269E+00  0.19642782836E+02  0.00000000000E+00 0.  1.
</event>
<event>
 7    1  0.2973028E-011  0.5052883E+02  0.7816164E-02  0.1300439E+00
        -11   -1    0    0    0    0  0.00000000000E+00  0.00000000000E+00  0.45593999997E+02  0.45594000000E+02  0.51100000000E-03 0. -1.
         11   -1    0    0    0    0 -0.00000000000E+00 -0.00000000000E+00 -0.45593999997E+02  0.45594000000E+02  0.51100000000E-03 0.  1.
    9900012    2    1    2    0    0  0.63367277715E+01  0.35521890477E+02 -0.18740572978E+02  0.50528832553E+02  0.29999917027E+02 0.  0.
         12    1    1    2    0    0 -0.63367277715E+01 -0.35521890477E+02  0.18740572978E+02  0.40659167447E+02  0.00000000000E+00 0. -1.
         11    1    3    3    0    0 -0.74933298419E+01  0.32305667108E+01  0.83406616188E+00  0.82025739873E+01  0.51100000000E-03 0. -1.
        -11    1    3    3    0    0  0.45488631751E+01  0.21998023113E+02 -0.67815035184E+01  0.23464738807E+02  0.51100000000E-03 0.  1.
         12    1    3    3    0    0  0.92811944384E+01  0.10293300654E+02 -0.12793135622E+02  0.18861519759E+02  0.00000000000E+00 0. -1.
</event>
<event>
 7    1  0.2973028E-011  0.5052889E+02  0.7816164E-02  0.1300439E+00
        -11   -1    0    0    0    0  0.00000000000E+00  0.00000000000E+00  0.45593999997E+02  0.45594000000E+02  0.51100000000E-03 0.  1.
         11   -1    0    0    0    0 -0.00000000000E+00 -0.00000000000E+00 -0.45593999997E+02  0.45594000000E+02  0.51100000000E-03 0. -1.
    9900012    2    1    2    0    0  0.22839434641E+02  0.26150896573E+01  0.33536314833E+02  0.50528894240E+02  0.30000104532E+02 0.  0.
         12    1    1    2    0    0 -0.22839434641E+02 -0.26150896573E+01 -0.33536314833E+02  0.40659105760E+02  0.00000000000E+00 0. -1.
         11    1    3    3    0    0  0.11602509242E+02 -0.12704235624E+02  0.11527148548E+02  0.20709683180E+02  0.51100000000E-03 0. -1.
        -11    1    3    3    0    0  0.20906821042E+01  0.72406453699E+01  0.11303824073E+02  0.13585813776E+02  0.51100000000E-03 0.  1.
         12    1    3    3    0    0  0.91462432941E+01  0.80786799111E+01  0.10705342213E+02  0.16233397284E+02  0.00000000000E+00 0. -1.
</event>
<event>
 7    1  0.2973028E-011  0.5052886E+02  0.7816164E-02  0.1300439E+00
        -11   -1    0    0    0    0  0.00000000000E+00  0.00000000000E+00  0.45593999997E+02  0.45594000000E+02  0.51100000000E-03 0. -1.
         11   -1    0    0    0    0 -0.00000000000E+00 -0.00000000000E+00 -0.45593999997E+02  0.45594000000E+02  0.51100000000E-03 0.  1.
    9900012    2    1    2    0    0 -0.19853816094E+02  0.35370195375E+02 -0.28179520349E+01  0.50528860953E+02  0.30000003352E+02 0.  0.
         12    1    1    2    0    0  0.19853816094E+02 -0.35370195375E+02  0.28179520349E+01  0.40659139047E+02  0.00000000000E+00 0. -1.
         11    1    3    3    0    0  0.54421720329E+01  0.99363148089E+00  0.35149504488E+01  0.65543433594E+01  0.51100000000E-03 0. -1.
        -11    1    3    3    0    0 -0.11279869335E+02  0.22052483711E+02 -0.49498375798E+01  0.25259619600E+02  0.51100000000E-03 0.  1.
        -12    1    3    3    0    0 -0.14016118792E+02  0.12324080184E+02 -0.13830649039E+01  0.18714897993E+02  0.00000000000E+00 0.  1.
</event>
<event>
 7    1  0.2973028E-011  0.5052886E+02  0.7816164E-02  0.1300439E+00
        -11   -1    0    0    0    0  0.00000000000E+00  0.00000000000E+00  0.45593999997E+02  0.45594000000E+02  0.51100000000E-03 0. -1.
         11   -1    0    0    0    0 -0.00000000000E+00 -0.00000000000E+00 -0.45593999997E+02  0.45594000000E+02  0.51100000000E-03 0.  1.
    9900012    2    1    2    0    0 -0.30658766745E+02 -0.24792548114E+02 -0.99264969219E+01  0.50528858821E+02  0.29999996872E+02 0.  0.
         12    1    1    2    0    0  0.30658766745E+02  0.24792548114E+02  0.99264969219E+01  0.40659141179E+02  0.00000000000E+00 0. -1.
         11    1    3    3    0    0 -0.79155654653E+00 -0.82483403938E+01  0.53884601362E+01  0.98841885817E+01  0.51100000000E-03 0. -1.
        -11    1    3    3    0    0 -0.25452696739E+02 -0.19634370894E+02 -0.14197655736E+02  0.35141453020E+02  0.51100000000E-03 0.  1.
        -12    1    3    3    0    0 -0.44145134589E+01  0.30901631736E+01 -0.11173013217E+01  0.55032172192E+01  0.00000000000E+00 0.  1.
</event>
<event>
 7    1  0.2973028E-011  0.5052891E+02  0.7816164E-02  0.1300439E+00
        -11   -1    0    0    0    0  0.00000000000E+00  0.00000000000E+00  0.45593999997E+02  0.45594000000E+02  0.51100000000E-03 0. -1.
         11   -1    0    0    0    0 -0.00000000000E+00 -0.00000000000E+00 -0.45593999997E+02  0.45594000000E+02  0.51100000000E-03 0.  1.
    9900012    2    1    2    0    0 -0.38850269090E+01 -0.35182584954E+02  0.20006354135E+02  0.50528906012E+02  0.30000140315E+02 0.  0.
         12    1    1    2    0    0  0.38850269090E+01  0.35182584954E+02 -0.20006354135E+02  0.40659093988E+02  0.00000000000E+00 0. -1.
         11    1    3    3    0    0  0.71076999158E+00  0.22604792402E+01 -0.38232042141E+01  0.44979830035E+01  0.51100000000E-03 0. -1.
        -11    1    3    3    0    0 -0.80453781430E+01 -0.23311458659E+02  0.17058237555E+02  0.29985591257E+02  0.51100000000E-03 0.  1.
         12    1    3    3    0    0  0.34495812423E+01 -0.14131605535E+02  0.67713207940E+01  0.16045331752E+02  0.00000000000E+00 0. -1.
</event>
<event>
 7    1  0.2973028E-011  0.5052888E+02  0.7816164E-02  0.1300439E+00
        -11   -1    0    0    0    0  0.00000000000E+00  0.00000000000E+00  0.45593999997E+02  0.45594000000E+02  0.51100000000E-03 0. -1.
         11   -1    0    0    0    0 -0.00000000000E+00 -0.00000000000E+00 -0.45593999997E+02  0.45594000000E+02  0.51100000000E-03 0.  1.
    9900012    2    1    2    0    0 -0.30295657487E+02  0.23655630956E+02 -0.13256994948E+02  0.50528884742E+02  0.30000075661E+02 0.  0.
         12    1    1    2    0    0  0.30295657487E+02 -0.23655630956E+02  0.13256994948E+02  0.40659115258E+02  0.00000000000E+00 0. -1.
         11    1    3    3    0    0  0.34472203056E+01  0.74965381297E+01 -0.40295509470E+01  0.91825210515E+01  0.51100000000E-03 0. -1.
        -11    1    3    3    0    0 -0.29504648811E+02  0.95968375245E+01 -0.11690199629E+02  0.33155457463E+02  0.51100000000E-03 0.  1.
         12    1    3    3    0    0 -0.42382289818E+01  0.65622553018E+01  0.24627556271E+01  0.81909062274E+01  0.00000000000E+00 0. -1.
</event>
<event>
 7    1  0.2973028E-011  0.5052885E+02  0.7816164E-02  0.1300439E+00
        -11   -1    0    0    0    0  0.00000000000E+00  0.00000000000E+00  0.45593999997E+02  0.45594000000E+02  0.51100000000E-03 0.  1.
         11   -1    0    0    0    0 -0.00000000000E+00 -0.00000000000E+00 -0.45593999997E+02  0.45594000000E+02  0.51100000000E-03 0. -1.
    9900012    2    1    2    0    0  0.31257818040E+02 -0.23319099046E+02 -0.11503676898E+02  0.50528854029E+02  0.29999982305E+02 0.  0.
         12    1    1    2    0    0 -0.31257818040E+02  0.23319099046E+02  0.11503676898E+02  0.40659145971E+02  0.00000000000E+00 0. -1.
         11    1    3    3    0    0  0.31037886499E+01 -0.11706485592E+02 -0.14459309964E+02  0.18861255361E+02  0.51100000000E-03 0. -1.
        -11    1    3    3    0    0  0.13681237944E+02 -0.15346105389E+01  0.27026008690E+01  0.14029802312E+02  0.51100000000E-03 0.  1.
        -12    1    3    3    0    0  0.14472791446E+02 -0.10078002915E+02  0.25303219702E+00  0.17637796356E+02  0.00000000000E+00 0.  1.
</event>
<event>
 7    1  0.2973028E-011  0.5052886E+02  0.7816164E-02  0.1300439E+00
        -11   -1    0    0    0    0  0.00000000000E+00  0.00000000000E+00  0.45593999997E+02  0.45594000000E+02  0.51100000000E-03 0.  1.
         11   -1    0    0    0    0 -0.00000000000E+00 -0.00000000000E+00 -0.45593999997E+02  0.45594000000E+02  0.51100000000E-03 0. -1.
    9900012    2    1    2    0    0 -0.10526834989E+02 -0.15279490375E+02  0.36178567812E+02  0.50528857732E+02  0.29999993564E+02 0.  0.
         12    1    1    2    0    0  0.10526834989E+02  0.15279490375E+02 -0.36178567812E+02  0.40659142268E+02  0.00000000000E+00 0. -1.
         11    1    3    3    0    0 -0.63592043714E+01  0.12309027212E+01 -0.62246998855E+00  0.65070785222E+01  0.51100000000E-03 0. -1.
        -11    1    3    3    0    0 -0.42224893223E+01 -0.44797827537E+01  0.29084784031E+02  0.29729152897E+02  0.51100000000E-03 0.  1.
         12    1    3    3    0    0  0.54858704385E-01 -0.12030610343E+02  0.77162537697E+01  0.14292626313E+02  0.00000000000E+00 0. -1.
</event>
<event>
 7    1  0.2973028E-011  0.5052886E+02  0.7816164E-02  0.1300439E+00
        -11   -1    0    0    0    0  0.00000000000E+00  0.00000000000E+00  0.45593999997E+02  0.45594000000E+02  0.51100000000E-03 0.  1.
         11   -1    0    0    0    0 -0.00000000000E+00 -0.00000000000E+00 -0.45593999997E+02  0.45594000000E+02  0.51100000000E-03 0. -1.
    9900012    2    1    2    0    0  0.45559856514E+01 -0.34859789373E+02 -0.20425562107E+02  0.50528861941E+02  0.30000006355E+02 0.  0.
         12    1    1    2    0    0 -0.45559856514E+01  0.34859789373E+02  0.20425562107E+02  0.40659138059E+02  0.00000000000E+00 0. -1.
         11    1    3    3    0    0 -0.62319226858E+01 -0.21162346929E+02 -0.13490091142E+02  0.25858544955E+02  0.51100000000E-03 0.  1.
        -11    1    3    3    0    0  0.13965048399E+02 -0.14526356955E+02 -0.71462937653E+01  0.21380064033E+02  0.51100000000E-03 0. -1.
        -12    1    3    3    0    0 -0.31771400622E+01  0.82891451201E+00  0.21082279995E+00  0.32902529532E+01  0.00000000000E+00 0.  1.
</event>
<event>
 7    1  0.2973028E-011  0.5052888E+02  0.7816164E-02  0.1300439E+00
        -11   -1    0    0    0    0  0.00000000000E+00  0.00000000000E+00  0.45593999997E+02  0.45594000000E+02  0.51100000000E-03 0. -1.
         11   -1    0    0    0    0 -0.00000000000E+00 -0.00000000000E+00 -0.45593999997E+02  0.45594000000E+02  0.51100000000E-03 0.  1.
    9900012    2    1    2    0    0  0.28130431270E+01 -0.14240480453E+02 -0.37979726140E+02  0.50528879340E+02  0.30000059242E+02 0.  0.
         12    1    1    2    0    0 -0.28130431270E+01  0.14240480453E+02  0.37979726140E+02  0.40659120660E+02  0.00000000000E+00 0. -1.
         11    1    3    3    0    0 -0.81595961241E+01 -0.12184652037E+02 -0.10478776872E+02  0.18023582306E+02  0.51100000000E-03 0. -1.
        -11    1    3    3    0    0  0.90388716162E+01 -0.21789850948E+01 -0.63350049353E+01  0.11250842810E+02  0.51100000000E-03 0.  1.
         12    1    3    3    0    0  0.19337676349E+01  0.12315667848E+00 -0.21165944333E+02  0.21254454224E+02  0.00000000000E+00 0. -1.
</event>
<event>
 7    1  0.2973028E-011  0.5052886E+02  0.7816164E-02  0.1300439E+00
        -11   -1    0    0    0    0  0.00000000000E+00  0.00000000000E+00  0.45593999997E+02  0.45594000000E+02  0.51100000000E-03 0.  1.
         11   -1    0    0    0    0 -0.00000000000E+00 -0.00000000000E+00 -0.45593999997E+02  0.45594000000E+02  0.51100000000E-03 0. -1.
    9900012    2    1    2    0    0  0.25974358111E+02  0.10379360652E+02  0.29508767641E+02  0.50528858660E+02  0.29999996383E+02 0.  0.
         12    1    1    2    0    0 -0.25974358111E+02 -0.10379360652E+02 -0.29508767641E+02  0.40659141340E+02  0.00000000000E+00 0. -1.
         11    1    3    3    0    0 -0.29442129678E+01 -0.37080004377E+01  0.54107025369E+01  0.71898094167E+01  0.51100000000E-03 0. -1.
        -11    1    3    3    0    0  0.28527199225E+02  0.85267700378E+01  0.23080729829E+02  0.37672629224E+02  0.51100000000E-03 0.  1.
         12    1    3    3    0    0  0.39137185334E+00  0.55605910524E+01  0.10173352750E+01  0.56664200198E+01  0.00000000000E+00 0. -1.
</event>
<event>
 7    1  0.2973028E-011  0.5052886E+02  0.7816164E-02  0.1300439E+00
        -11   -1    0    0    0    0  0.00000000000E+00  0.00000000000E+00  0.45593999997E+02  0.45594000000E+02  0.51100000000E-03 0.  1.
         11   -1    0    0    0    0 -0.00000000000E+00 -0.00000000000E+00 -0.45593999997E+02  0.45594000000E+02  0.51100000000E-03 0. -1.
    9900012    2    1    2    0    0  0.31890961393E+02  0.14716335520E+02  0.20483208527E+02  0.50528858577E+02  0.29999996132E+02 0.  0.
         12    1    1    2    0    0 -0.31890961393E+02 -0.14716335520E+02 -0.20483208527E+02  0.40659141423E+02  0.00000000000E+00 0. -1.
         11    1    3    3    0    0 -0.45836611193E+01  0.43381628992E+01  0.20270628139E+01  0.66286190500E+01  0.51100000000E-03 0. -1.
        -11    1    3    3    0    0  0.31072480593E+02  0.12886216332E+02  0.17324585733E+02  0.37837744286E+02  0.51100000000E-03 0.  1.
         12    1    3    3    0    0  0.54021419184E+01 -0.25080437113E+01  0.11315599798E+01  0.60624952414E+01  0.00000000000E+00 0. -1.
</event>
<event>
 7    1  0.2973028E-011  0.5052888E+02  0.7816164E-02  0.1300439E+00
        -11   -1    0    0    0    0  0.00000000000E+00  0.00000000000E+00  0.45593999997E+02  0.45594000000E+02  0.51100000000E-03 0.  1.
         11   -1    0    0    0    0 -0.00000000000E+00 -0.00000000000E+00 -0.45593999997E+02  0.45594000000E+02  0.51100000000E-03 0. -1.
    9900012    2    1    2    0    0 -0.30285472100E+02  0.20262791934E+02  0.18038106805E+02  0.50528882272E+02  0.30000068154E+02 0.  0.
         12    1    1    2    0    0  0.30285472100E+02 -0.20262791934E+02 -0.18038106805E+02  0.40659117728E+02  0.00000000000E+00 0. -1.
         11    1    3    3    0    0 -0.79027362511E+00 -0.46785649938E+01  0.61598240091E+01  0.77754057700E+01  0.51100000000E-03 0. -1.
        -11    1    3    3    0    0 -0.27200245671E+02  0.17285658612E+02  0.12864134840E+02  0.34700624255E+02  0.51100000000E-03 0.  1.
        -12    1    3    3    0    0 -0.22949528042E+01  0.76556983153E+01 -0.98585204361E+00  0.80528522475E+01  0.00000000000E+00 0.  1.
</event>
<event>
 7    1  0.2973028E-011  0.5052882E+02  0.7816164E-02  0.1300439E+00
        -11   -1    0    0    0    0  0.00000000000E+00  0.00000000000E+00  0.45593999997E+02  0.45594000000E+02  0.51100000000E-03 0. -1.
         11   -1    0    0    0    0 -0.00000000000E+00 -0.00000000000E+00 -0.45593999997E+02  0.45594000000E+02  0.51100000000E-03 0.  1.
    9900012    2    1    2    0    0 -0.29693693682E+02  0.58249398593E+01  0.27157389287E+02  0.50528817006E+02  0.29999869771E+02 0.  0.
         12    1    1    2    0    0  0.29693693682E+02 -0.58249398593E+01 -0.27157389287E+02  0.40659182994E+02  0.00000000000E+00 0. -1.
         11    1    3    3    0    0 -0.46943002837E+01 -0.89356181898E+01  0.11988090342E+02  0.15671504009E+02  0.51100000000E-03 0. -1.
        -11    1    3    3    0    0 -0.19299880966E+02  0.16428917713E+02  0.13348839902E+02  0.28645877007E+02  0.51100000000E-03 0.  1.
        -12    1    3    3    0    0 -0.56995124324E+01 -0.16683596636E+01  0.18204590435E+01  0.62114359904E+01  0.00000000000E+00 0.  1.
</event>
<event>
 7    1  0.2973028E-011  0.5052892E+02  0.7816164E-02  0.1300439E+00
        -11   -1    0    0    0    0  0.00000000000E+00  0.00000000000E+00  0.45593999997E+02  0.45594000000E+02  0.51100000000E-03 0. -1.
         11   -1    0    0    0    0 -0.00000000000E+00 -0.00000000000E+00 -0.45593999997E+02  0.45594000000E+02  0.51100000000E-03 0.  1.
    9900012    2    1    2    0    0  0.38065396876E+02  0.73811924019E+01 -0.12235368592E+02  0.50528921246E+02  0.30000186618E+02 0.  0.
         12    1    1    2    0    0 -0.38065396876E+02 -0.73811924019E+01  0.12235368592E+02  0.40659078754E+02  0.00000000000E+00 0. -1.
         11    1    3    3    0    0  0.84256302177E+01 -0.44359867280E+01  0.70996898429E+01  0.11877492115E+02  0.51100000000E-03 0. -1.
        -11    1    3    3    0    0  0.96430677299E+01  0.34055113893E+01 -0.11964595063E+02  0.15739688635E+02  0.51100000000E-03 0.  1.
         12    1    3    3    0    0  0.19996698928E+02  0.84116677406E+01 -0.73704633722E+01  0.22911740495E+02  0.00000000000E+00 0. -1.
</event>
<event>
 7    1  0.2973028E-011  0.5052885E+02  0.7816164E-02  0.1300439E+00
        -11   -1    0    0    0    0  0.00000000000E+00  0.00000000000E+00  0.45593999997E+02  0.45594000000E+02  0.51100000000E-03 0.  1.
         11   -1    0    0    0    0 -0.00000000000E+00 -0.00000000000E+00 -0.45593999997E+02  0.45594000000E+02  0.51100000000E-03 0. -1.
    9900012    2    1    2    0    0  0.26952977358E+02  0.29914689601E+02 -0.56404388313E+01  0.50528853518E+02  0.29999980754E+02 0.  0.
         12    1    1    2    0    0 -0.26952977358E+02 -0.29914689601E+02  0.56404388313E+01  0.40659146482E+02  0.00000000000E+00 0. -1.
         11    1    3    3    0    0 -0.11999689793E+01 -0.17170713965E+01  0.41692989531E+01  0.46659740413E+01  0.51100000000E-03 0. -1.
        -11    1    3    3    0    0  0.22638551902E+02  0.30402767158E+02 -0.46105187532E+01  0.38184933764E+02  0.51100000000E-03 0.  1.
         12    1    3    3    0    0  0.55143944349E+01  0.12289938397E+01 -0.51992190312E+01  0.76779457133E+01  0.00000000000E+00 0. -1.
</event>
<event>
 7    1  0.2973028E-011  0.5052885E+02  0.7816164E-02  0.1300439E+00
        -11   -1    0    0    0    0  0.00000000000E+00  0.00000000000E+00  0.45593999997E+02  0.45594000000E+02  0.51100000000E-03 0.  1.
         11   -1    0    0    0    0 -0.00000000000E+00 -0.00000000000E+00 -0.45593999997E+02  0.45594000000E+02  0.51100000000E-03 0. -1.
    9900012    2    1    2    0    0 -0.38802832097E+02  0.10807127360E+02  0.55418993344E+01  0.50528850615E+02  0.29999971928E+02 0.  0.
         12    1    1    2    0    0  0.38802832097E+02 -0.10807127360E+02 -0.55418993344E+01  0.40659149385E+02  0.00000000000E+00 0. -1.
         11    1    3    3    0    0 -0.35064717255E+01  0.60620854804E+01 -0.32940146935E+01  0.77391703299E+01  0.51100000000E-03 0. -1.
        -11    1    3    3    0    0 -0.37282559266E+02  0.71494819679E+01  0.57366356797E+01  0.38392880941E+02  0.51100000000E-03 0.  1.
         12    1    3    3    0    0  0.19861988943E+01 -0.24044400883E+01  0.30992783482E+01  0.43967993433E+01  0.00000000000E+00 0. -1.
</event>
<event>
 7    1  0.2973028E-011  0.5052886E+02  0.7816164E-02  0.1300439E+00
        -11   -1    0    0    0    0  0.00000000000E+00  0.00000000000E+00  0.45593999997E+02  0.45594000000E+02  0.51100000000E-03 0.  1.
         11   -1    0    0    0    0 -0.00000000000E+00 -0.00000000000E+00 -0.45593999997E+02  0.45594000000E+02  0.51100000000E-03 0. -1.
    9900012    2    1    2    0    0  0.71408328285E+01 -0.38617945436E+02  0.10527500871E+02  0.50528862309E+02  0.30000007475E+02 0.  0.
         12    1    1    2    0    0 -0.71408328285E+01  0.38617945436E+02 -0.10527500871E+02  0.40659137691E+02  0.00000000000E+00 0. -1.
         11    1    3    3    0    0  0.52337710763E+01 -0.27458753987E+02 -0.65338721783E+01  0.28706567474E+02  0.51100000000E-03 0. -1.
        -11    1    3    3    0    0  0.34803665025E+01 -0.45226446458E+01  0.36442340142E+01  0.67710935154E+01  0.51100000000E-03 0.  1.
         12    1    3    3    0    0 -0.15733047502E+01 -0.66365468027E+01  0.13417139035E+02  0.15051201320E+02  0.00000000000E+00 0. -1.
</event>
<event>
 7    1  0.2973028E-011  0.5052888E+02  0.7816164E-02  0.1300439E+00
        -11   -1    0    0    0    0  0.00000000000E+00  0.00000000000E+00  0.45593999997E+02  0.45594000000E+02  0.51100000000E-03 0. -1.
         11   -1    0    0    0    0 -0.00000000000E+00 -0.00000000000E+00 -0.45593999997E+02  0.45594000000E+02  0.51100000000E-03 0.  1.
    9900012    2    1    2    0    0 -0.21649218541E+02  0.33054910263E+02 -0.95837490130E+01  0.50528880468E+02  0.30000062672E+02 0.  0.
         12    1    1    2    0    0  0.21649218541E+02 -0.33054910263E+02  0.95837490130E+01  0.40659119532E+02  0.00000000000E+00 0. -1.
         11    1    3    3    0    0  0.22757204643E+01  0.35727149068E+01 -0.24679088559E+01  0.49024248917E+01  0.51100000000E-03 0. -1.
        -11    1    3    3    0    0 -0.10633424454E+02  0.28136707929E+02  0.81550532463E+00  0.30090016582E+02  0.51100000000E-03 0.  1.
        -12    1    3    3    0    0 -0.13291514552E+02  0.13454874275E+01 -0.79313454817E+01  0.15536438995E+02  0.00000000000E+00 0.  1.
</event>
<event>
 7    1  0.2973028E-011  0.5052886E+02  0.7816164E-02  0.1300439E+00
        -11   -1    0    0    0    0  0.00000000000E+00  0.00000000000E+00  0.45593999997E+02  0.45594000000E+02  0.51100000000E-03 0. -1.
         11   -1    0    0    0    0 -0.00000000000E+00 -0.00000000000E+00 -0.45593999997E+02  0.45594000000E+02  0.51100000000E-03 0.  1.
    9900012    2    1    2    0    0  0.40177922207E+02  0.62173536349E+01 -0.49510235943E+00  0.50528855328E+02  0.29999986256E+02 0.  0.
         12    1    1    2    0    0 -0.40177922207E+02 -0.62173536349E+01  0.49510235943E+00  0.40659144672E+02  0.00000000000E+00 0. -1.
         11    1    3    3    0    0  0.89354143154E+01  0.81538707458E+01  0.80808099118E+00  0.12123540418E+02  0.51100000000E-03 0. -1.
        -11    1    3    3    0    0  0.24526242900E+02 -0.94789486033E+00 -0.10730855721E+02  0.26787802452E+02  0.51100000000E-03 0.  1.
        -12    1    3    3    0    0  0.67162649919E+01 -0.98862225055E+00  0.94276723702E+01  0.11617512458E+02  0.00000000000E+00 0.  1.
</event>
<event>
 7    1  0.2973028E-011  0.5052885E+02  0.7816164E-02  0.1300439E+00
        -11   -1    0    0    0    0  0.00000000000E+00  0.00000000000E+00  0.45593999997E+02  0.45594000000E+02  0.51100000000E-03 0.  1.
         11   -1    0    0    0    0 -0.00000000000E+00 -0.00000000000E+00 -0.45593999997E+02  0.45594000000E+02  0.51100000000E-03 0. -1.
    9900012    2    1    2    0    0 -0.24139267880E+02  0.63792278265E+01  0.32089993661E+02  0.50528849805E+02  0.29999969467E+02 0.  0.
         12    1    1    2    0    0  0.24139267880E+02 -0.63792278265E+01 -0.32089993661E+02  0.40659150195E+02  0.00000000000E+00 0. -1.
         11    1    3    3    0    0 -0.17401778823E+02 -0.47196991749E+00  0.28664281507E+02  0.33536333974E+02  0.51100000000E-03 0. -1.
        -11    1    3    3    0    0 -0.31170900001E+01  0.40680352618E-01  0.76056340694E+01  0.82197064922E+01  0.51100000000E-03 0.  1.
         12    1    3    3    0    0 -0.36203990574E+01  0.68105173914E+01 -0.41799219162E+01  0.87728093390E+01  0.00000000000E+00 0. -1.
</event>
<event>
 7    1  0.2973028E-011  0.5052885E+02  0.7816164E-02  0.1300439E+00
        -11   -1    0    0    0    0  0.00000000000E+00  0.00000000000E+00  0.45593999997E+02  0.45594000000E+02  0.51100000000E-03 0.  1.
         11   -1    0    0    0    0 -0.00000000000E+00 -0.00000000000E+00 -0.45593999997E+02  0.45594000000E+02  0.51100000000E-03 0. -1.
    9900012    2    1    2    0    0  0.24084496385E+02  0.32328228275E+02  0.52904758526E+01  0.50528850424E+02  0.29999971349E+02 0.  0.
         12    1    1    2    0    0 -0.24084496385E+02 -0.32328228275E+02 -0.52904758526E+01  0.40659149576E+02  0.00000000000E+00 0. -1.
         11    1    3    3    0    0 -0.29589489484E+01 -0.16308278474E+01 -0.13493445655E+01  0.36380914454E+01  0.51100000000E-03 0. -1.
        -11    1    3    3    0    0  0.15662753231E+02  0.26131184464E+02 -0.21117436272E+01  0.30538829409E+02  0.51100000000E-03 0.  1.
        -12    1    3    3    0    0  0.11380692102E+02  0.78278716583E+01  0.87515640453E+01  0.16351929570E+02  0.00000000000E+00 0.  1.
</event>
<event>
 7    1  0.2973028E-011  0.5052886E+02  0.7816164E-02  0.1300439E+00
        -11   -1    0    0    0    0  0.00000000000E+00  0.00000000000E+00  0.45593999997E+02  0.45594000000E+02  0.51100000000E-03 0. -1.
         11   -1    0    0    0    0 -0.00000000000E+00 -0.00000000000E+00 -0.45593999997E+02  0.45594000000E+02  0.51100000000E-03 0.  1.
    9900012    2    1    2    0    0 -0.49920551545E+01  0.40322100184E+02  0.15405678590E+01  0.50528859241E+02  0.29999998150E+02 0.  0.
         12    1    1    2    0    0  0.49920551545E+01 -0.40322100184E+02 -0.15405678590E+01  0.40659140759E+02  0.00000000000E+00 0. -1.
         11    1    3    3    0    0  0.28775562830E+01  0.14944093847E+02 -0.11822182576E+02  0.19270969674E+02  0.51100000000E-03 0. -1.
        -11    1    3    3    0    0  0.45892150871E+00  0.11022261791E+02  0.21797114898E+01  0.11245088100E+02  0.51100000000E-03 0.  1.
         12    1    3    3    0    0 -0.83285329462E+01  0.14355744546E+02  0.11183038945E+02  0.20012801467E+02  0.00000000000E+00 0. -1.
</event>
<event>
 7    1  0.2973028E-011  0.5052886E+02  0.7816164E-02  0.1300439E+00
        -11   -1    0    0    0    0  0.00000000000E+00  0.00000000000E+00  0.45593999997E+02  0.45594000000E+02  0.51100000000E-03 0.  1.
         11   -1    0    0    0    0 -0.00000000000E+00 -0.00000000000E+00 -0.45593999997E+02  0.45594000000E+02  0.51100000000E-03 0. -1.
    9900012    2    1    2    0    0  0.36678764800E+02 -0.14585767878E+02  0.97513712971E+01  0.50528860142E+02  0.30000000886E+02 0.  0.
         12    1    1    2    0    0 -0.36678764800E+02  0.14585767878E+02 -0.97513712971E+01  0.40659139858E+02  0.00000000000E+00 0. -1.
         11    1    3    3    0    0  0.19205214753E+02  0.20183979364E+01  0.12260505695E+01  0.19349868325E+02  0.51100000000E-03 0. -1.
        -11    1    3    3    0    0  0.20432352997E+02 -0.16343511339E+02  0.51211604235E+01  0.26661164570E+02  0.51100000000E-03 0.  1.
        -12    1    3    3    0    0 -0.29588029499E+01 -0.26065447519E+00  0.34041603041E+01  0.45178272463E+01  0.00000000000E+00 0.  1.
</event>
<event>
 7    1  0.2973028E-011  0.5052888E+02  0.7816164E-02  0.1300439E+00
        -11   -1    0    0    0    0  0.00000000000E+00  0.00000000000E+00  0.45593999997E+02  0.45594000000E+02  0.51100000000E-03 0. -1.
         11   -1    0    0    0    0 -0.00000000000E+00 -0.00000000000E+00 -0.45593999997E+02  0.45594000000E+02  0.51100000000E-03 0.  1.
    9900012    2    1    2    0    0 -0.28353094031E+02 -0.18925612817E+02 -0.22160490481E+02  0.50528879252E+02  0.30000058974E+02 0.  0.
         12    1    1    2    0    0  0.28353094031E+02  0.18925612817E+02  0.22160490481E+02  0.40659120748E+02  0.00000000000E+00 0. -1.
         11    1    3    3    0    0 -0.16867722913E+02 -0.19070536772E+02 -0.23256885523E+02  0.34483157824E+02  0.51100000000E-03 0. -1.
        -11    1    3    3    0    0 -0.16421136823E+01 -0.21684587608E+01 -0.39097455681E+01  0.47628627327E+01  0.51100000000E-03 0.  1.
         12    1    3    3    0    0 -0.98432574357E+01  0.23133827152E+01  0.50061406094E+01  0.11282858695E+02  0.00000000000E+00 0. -1.
</event>
<event>
 7    1  0.2973028E-011  0.5052886E+02  0.7816164E-02  0.1300439E+00
        -11   -1    0    0    0    0  0.00000000000E+00  0.00000000000E+00  0.45593999997E+02  0.45594000000E+02  0.51100000000E-03 0.  1.
         11   -1    0    0    0    0 -0.00000000000E+00 -0.00000000000E+00 -0.45593999997E+02  0.45594000000E+02  0.51100000000E-03 0. -1.
    9900012    2    1    2    0    0 -0.40188832954E+02 -0.49377891337E+01  0.36934702940E+01  0.50528858610E+02  0.29999996231E+02 0.  0.
         12    1    1    2    0    0  0.40188832954E+02  0.49377891337E+01 -0.36934702940E+01  0.40659141390E+02  0.00000000000E+00 0. -1.
         11    1    3    3    0    0 -0.10093181045E+02 -0.75901129443E+01 -0.98246043490E+01  0.16000155280E+02  0.51100000000E-03 0. -1.
        -11    1    3    3    0    0 -0.24386180934E+02  0.46364381966E+01  0.13940372984E+02  0.28469569348E+02  0.51100000000E-03 0.  1.
        -12    1    3    3    0    0 -0.57094709755E+01 -0.19841143860E+01 -0.42229834094E+00  0.60591339814E+01  0.00000000000E+00 0.  1.
</event>
<event>
 7    1  0.2973028E-011  0.5052886E+02  0.7816164E-02  0.1300439E+00
        -11   -1    0    0    0    0  0.00000000000E+00  0.00000000000E+00  0.45593999997E+02  0.45594000000E+02  0.51100000000E-03 0.  1.
         11   -1    0    0    0    0 -0.00000000000E+00 -0.00000000000E+00 -0.45593999997E+02  0.45594000000E+02  0.51100000000E-03 0. -1.
    9900012    2    1    2    0    0  0.26656031299E+02  0.20087890557E+02  0.23218492024E+02  0.50528859287E+02  0.29999998289E+02 0.  0.
         12    1    1    2    0    0 -0.26656031299E+02 -0.20087890557E+02 -0.23218492024E+02  0.40659140713E+02  0.00000000000E+00 0. -1.
         11    1    3    3    0    0  0.14106957301E+02 -0.33376090725E+01  0.18169253673E+01  0.14609828770E+02  0.51100000000E-03 0. -1.
        -11    1    3    3    0    0 -0.76958459695E-01  0.17396689488E+01  0.65111513460E+01  0.67399898195E+01  0.51100000000E-03 0.  1.
         12    1    3    3    0    0  0.12626032457E+02  0.21685830681E+02  0.14890415311E+02  0.29179040698E+02  0.00000000000E+00 0. -1.
</event>
<event>
 7    1  0.2973028E-011  0.5052886E+02  0.7816164E-02  0.1300439E+00
        -11   -1    0    0    0    0  0.00000000000E+00  0.00000000000E+00  0.45593999997E+02  0.45594000000E+02  0.51100000000E-03 0.  1.
         11   -1    0    0    0    0 -0.00000000000E+00 -0.00000000000E+00 -0.45593999997E+02  0.45594000000E+02  0.51100000000E-03 0. -1.
    9900012    2    1    2    0    0 -0.25735087834E+02  0.10759881570E+02  0.29582019028E+02  0.50528860228E+02  0.30000001149E+02 0.  0.
         12    1    1    2    0    0  0.25735087834E+02 -0.10759881570E+02 -0.29582019028E+02  0.40659139772E+02  0.00000000000E+00 0. -1.
         11    1    3    3    0    0 -0.93570819580E+00  0.51560202344E+00 -0.23648656695E+01  0.25949923257E+01  0.51100000000E-03 0. -1.
        -11    1    3    3    0    0 -0.23621408894E+02 -0.17356889909E+01  0.21789630908E+02  0.32183405503E+02  0.51100000000E-03 0.  1.
        -12    1    3    3    0    0 -0.11779707444E+01  0.11979968538E+02  0.10157253790E+02  0.15750462399E+02  0.00000000000E+00 0.  1.
</event>
<event>
 7    1  0.2973028E-011  0.5052887E+02  0.7816164E-02  0.1300439E+00
        -11   -1    0    0    0    0  0.00000000000E+00  0.00000000000E+00  0.45593999997E+02  0.45594000000E+02  0.51100000000E-03 0.  1.
         11   -1    0    0    0    0 -0.00000000000E+00 -0.00000000000E+00 -0.45593999997E+02  0.45594000000E+02  0.51100000000E-03 0. -1.
    9900012    2    1    2    0    0  0.21419780144E+02  0.13491791157E+02  0.31817131186E+02  0.50528865148E+02  0.30000016103E+02 0.  0.
         12    1    1    2    0    0 -0.21419780144E+02 -0.13491791157E+02 -0.31817131186E+02  0.40659134852E+02  0.00000000000E+00 0. -1.
         11    1    3    3    0    0  0.61804614641E+01 -0.49887574150E+01  0.69162081398E+00  0.79727124660E+01  0.51100000000E-03 0. -1.
        -11    1    3    3    0    0  0.12574143683E+02  0.14374511734E+02  0.11420632339E+02  0.22252337411E+02  0.51100000000E-03 0.  1.
        -12    1    3    3    0    0  0.26651749975E+01  0.41060368373E+01  0.19704878033E+02  0.20303815271E+02  0.00000000000E+00 0.  1.
</event>
<event>
 7    1  0.2973028E-011  0.5052886E+02  0.7816164E-02  0.1300439E+00
        -11   -1    0    0    0    0  0.00000000000E+00  0.00000000000E+00  0.45593999997E+02  0.45594000000E+02  0.51100000000E-03 0.  1.
         11   -1    0    0    0    0 -0.00000000000E+00 -0.00000000000E+00 -0.45593999997E+02  0.45594000000E+02  0.51100000000E-03 0. -1.
    9900012    2    1    2    0    0  0.33026280275E+02  0.22419901494E+02  0.77316434645E+01  0.50528862251E+02  0.30000007298E+02 0.  0.
         12    1    1    2    0    0 -0.33026280275E+02 -0.22419901494E+02 -0.77316434645E+01  0.40659137749E+02  0.00000000000E+00 0. -1.
         11    1    3    3    0    0  0.13706039064E+02 -0.42431735447E+00  0.13821575169E+02  0.19469758408E+02  0.51100000000E-03 0. -1.
        -11    1    3    3    0    0  0.15266749762E+02  0.14383419474E+02 -0.53594929354E+01  0.21649031591E+02  0.51100000000E-03 0.  1.
         12    1    3    3    0    0  0.40534914491E+01  0.84607993744E+01 -0.73043876957E+00  0.94100722514E+01  0.00000000000E+00 0. -1.
</event>
<event>
 7    1  0.2973028E-011  0.5052886E+02  0.7816164E-02  0.1300439E+00
        -11   -1    0    0    0    0  0.00000000000E+00  0.00000000000E+00  0.45593999997E+02  0.45594000000E+02  0.51100000000E-03 0.  1.
         11   -1    0    0    0    0 -0.00000000000E+00 -0.00000000000E+00 -0.45593999997E+02  0.45594000000E+02  0.51100000000E-03 0. -1.
    9900012    2    1    2    0    0  0.46806008920E+01  0.34833550250E+02  0.20442153800E+02  0.50528857120E+02  0.29999991702E+02 0.  0.
         12    1    1    2    0    0 -0.46806008920E+01 -0.34833550250E+02 -0.20442153800E+02  0.40659142880E+02  0.00000000000E+00 0. -1.
         11    1    3    3    0    0  0.90226558871E+01  0.72319749083E+01 -0.43036505677E+01  0.12338200387E+02  0.51100000000E-03 0. -1.
        -11    1    3    3    0    0 -0.12676896749E+01  0.22327819968E+02  0.15887393197E+02  0.27432605500E+02  0.51100000000E-03 0.  1.
         12    1    3    3    0    0 -0.30743653202E+01  0.52737553736E+01  0.88584111701E+01  0.10758051232E+02  0.00000000000E+00 0. -1.
</event>
<event>
 7    1  0.2973028E-011  0.5052886E+02  0.7816164E-02  0.1300439E+00
        -11   -1    0    0    0    0  0.00000000000E+00  0.00000000000E+00  0.45593999997E+02  0.45594000000E+02  0.51100000000E-03 0. -1.
         11   -1    0    0    0    0 -0.00000000000E+00 -0.00000000000E+00 -0.45593999997E+02  0.45594000000E+02  0.51100000000E-03 0.  1.
    9900012    2    1    2    0    0 -0.18588136656E+02 -0.33989077977E+02 -0.12344604314E+02  0.50528862014E+02  0.30000006579E+02 0.  0.
         12    1    1    2    0    0  0.18588136656E+02  0.33989077977E+02  0.12344604314E+02  0.40659137986E+02  0.00000000000E+00 0. -1.
         11    1    3    3    0    0  0.13471889175E+01 -0.36665845925E+00  0.54525243830E+01  0.56284437293E+01  0.51100000000E-03 0. -1.
        -11    1    3    3    0    0 -0.28915297087E+01 -0.14822887692E+02 -0.10835712509E+02  0.18587404591E+02  0.51100000000E-03 0.  1.
         12    1    3    3    0    0 -0.17043795864E+02 -0.18799531826E+02 -0.69614161878E+01  0.26313013694E+02  0.00000000000E+00 0. -1.
</event>
<event>
 7    1  0.2973028E-011  0.5052883E+02  0.7816164E-02  0.1300439E+00
        -11   -1    0    0    0    0  0.00000000000E+00  0.00000000000E+00  0.45593999997E+02  0.45594000000E+02  0.51100000000E-03 0.  1.
         11   -1    0    0    0    0 -0.00000000000E+00 -0.00000000000E+00 -0.45593999997E+02  0.45594000000E+02  0.51100000000E-03 0. -1.
    9900012    2    1    2    0    0  0.33988883334E+02 -0.56310264584E+01  0.21592014198E+02  0.50528834657E+02  0.29999923422E+02 0.  0.
         12    1    1    2    0    0 -0.33988883334E+02  0.56310264584E+01 -0.21592014198E+02  0.40659165343E+02  0.00000000000E+00 0. -1.
         11    1    3    3    0    0  0.69499157140E+00  0.14872113236E+01  0.49857192114E+01  0.52490196343E+01  0.51100000000E-03 0.  1.
        -11    1    3    3    0    0  0.21782743116E+02  0.56899920969E+01  0.18289474226E+01  0.22587805485E+02  0.51100000000E-03 0. -1.
        -12    1    3    3    0    0  0.11511148647E+02 -0.12808229879E+02  0.14777347564E+02  0.22692009537E+02  0.00000000000E+00 0.  1.
</event>
<event>
 7    1  0.2973028E-011  0.5052884E+02  0.7816164E-02  0.1300439E+00
        -11   -1    0    0    0    0  0.00000000000E+00  0.00000000000E+00  0.45593999997E+02  0.45594000000E+02  0.51100000000E-03 0.  1.
         11   -1    0    0    0    0 -0.00000000000E+00 -0.00000000000E+00 -0.45593999997E+02  0.45594000000E+02  0.51100000000E-03 0. -1.
    9900012    2    1    2    0    0 -0.32119098216E+02  0.21487041967E+02  0.12642704965E+02  0.50528838283E+02  0.29999934445E+02 0.  0.
         12    1    1    2    0    0  0.32119098216E+02 -0.21487041967E+02 -0.12642704965E+02  0.40659161717E+02  0.00000000000E+00 0. -1.
         11    1    3    3    0    0 -0.12959942424E+02  0.11855111062E+02 -0.36544847618E+01  0.17940429902E+02  0.51100000000E-03 0. -1.
        -11    1    3    3    0    0 -0.77247687400E+01 -0.52890296152E+01  0.44262144335E+01  0.10355542517E+02  0.51100000000E-03 0.  1.
        -12    1    3    3    0    0 -0.11434387052E+02  0.14920960520E+02  0.11870975293E+02  0.22232865863E+02  0.00000000000E+00 0.  1.
</event>
<event>
 7    1  0.2973028E-011  0.5052886E+02  0.7816164E-02  0.1300439E+00
        -11   -1    0    0    0    0  0.00000000000E+00  0.00000000000E+00  0.45593999997E+02  0.45594000000E+02  0.51100000000E-03 0.  1.
         11   -1    0    0    0    0 -0.00000000000E+00 -0.00000000000E+00 -0.45593999997E+02  0.45594000000E+02  0.51100000000E-03 0. -1.
    9900012    2    1    2    0    0 -0.17760679098E+02  0.31230372828E+02  0.19036484195E+02  0.50528860320E+02  0.30000001429E+02 0.  0.
         12    1    1    2    0    0  0.17760679098E+02 -0.31230372828E+02 -0.19036484195E+02  0.40659139680E+02  0.00000000000E+00 0. -1.
         11    1    3    3    0    0 -0.13134324252E+01  0.10327476537E+02  0.20480364293E+02  0.22974490162E+02  0.51100000000E-03 0. -1.
        -11    1    3    3    0    0 -0.12081349451E+02  0.16497009203E+02  0.18501870387E+01  0.20531281244E+02  0.51100000000E-03 0.  1.
         12    1    3    3    0    0 -0.43658972223E+01  0.44058870888E+01 -0.32940671369E+01  0.70230889142E+01  0.00000000000E+00 0. -1.
</event>
<event>
 7    1  0.2973028E-011  0.5052886E+02  0.7816164E-02  0.1300439E+00
        -11   -1    0    0    0    0  0.00000000000E+00  0.00000000000E+00  0.45593999997E+02  0.45594000000E+02  0.51100000000E-03 0. -1.
         11   -1    0    0    0    0 -0.00000000000E+00 -0.00000000000E+00 -0.45593999997E+02  0.45594000000E+02  0.51100000000E-03 0.  1.
    9900012    2    1    2    0    0  0.28033946951E+02 -0.20043715907E+02 -0.21575748763E+02  0.50528860023E+02  0.30000000526E+02 0.  0.
         12    1    1    2    0    0 -0.28033946951E+02  0.20043715907E+02  0.21575748763E+02  0.40659139977E+02  0.00000000000E+00 0. -1.
         11    1    3    3    0    0 -0.69173134476E+00  0.47493137175E+01 -0.46916190912E+01  0.67116140382E+01  0.51100000000E-03 0. -1.
        -11    1    3    3    0    0  0.26215602618E+02 -0.14747019779E+02 -0.12556509718E+02  0.32594452742E+02  0.51100000000E-03 0.  1.
        -12    1    3    3    0    0  0.25100756778E+01 -0.10046009845E+02 -0.43276199533E+01  0.11222793243E+02  0.00000000000E+00 0.  1.
</event>
<event>
 7    1  0.2973028E-011  0.5052886E+02  0.7816164E-02  0.1300439E+00
        -11   -1    0    0    0    0  0.00000000000E+00  0.00000000000E+00  0.45593999997E+02  0.45594000000E+02  0.51100000000E-03 0.  1.
         11   -1    0    0    0    0 -0.00000000000E+00 -0.00000000000E+00 -0.45593999997E+02  0.45594000000E+02  0.51100000000E-03 0. -1.
    9900012    2    1    2    0    0 -0.24369285145E+02 -0.28253338255E+02  0.16157127059E+02  0.50528856677E+02  0.29999990354E+02 0.  0.
         12    1    1    2    0    0  0.24369285145E+02  0.28253338255E+02 -0.16157127059E+02  0.40659143323E+02  0.00000000000E+00 0. -1.
         11    1    3    3    0    0 -0.19852085594E+02 -0.16484591614E+02  0.10078424148E+02  0.27702377094E+02  0.51100000000E-03 0. -1.
        -11    1    3    3    0    0  0.28892428889E+01  0.33324318212E+01 -0.10893933846E+01  0.45430831515E+01  0.51100000000E-03 0.  1.
        -12    1    3    3    0    0 -0.74064424398E+01 -0.15101178462E+02  0.71680962953E+01  0.18283396431E+02  0.00000000000E+00 0.  1.
</event>
<event>
 7    1  0.2973028E-011  0.5052886E+02  0.7816164E-02  0.1300439E+00
        -11   -1    0    0    0    0  0.00000000000E+00  0.00000000000E+00  0.45593999997E+02  0.45594000000E+02  0.51100000000E-03 0. -1.
         11   -1    0    0    0    0 -0.00000000000E+00 -0.00000000000E+00 -0.45593999997E+02  0.45594000000E+02  0.51100000000E-03 0.  1.
    9900012    2    1    2    0    0  0.20080517472E+02  0.14619542628E+02 -0.32190179050E+02  0.50528857906E+02  0.29999994090E+02 0.  0.
         12    1    1    2    0    0 -0.20080517472E+02 -0.14619542628E+02  0.32190179050E+02  0.40659142094E+02  0.00000000000E+00 0. -1.
         11    1    3    3    0    0 -0.55094215622E+01  0.74120104178E+01 -0.43718740548E+01  0.10217871960E+02  0.51100000000E-03 0. -1.
        -11    1    3    3    0    0  0.26742903710E+02  0.73726330775E+01 -0.27588706001E+02  0.39123845879E+02  0.51100000000E-03 0.  1.
        -12    1    3    3    0    0 -0.11529646752E+01 -0.16510086719E+00 -0.22959899344E+00  0.11871400660E+01  0.00000000000E+00 0.  1.
</event>
<event>
 7    1  0.2973028E-011  0.5052886E+02  0.7816164E-02  0.1300439E+00
        -11   -1    0    0    0    0  0.00000000000E+00  0.00000000000E+00  0.45593999997E+02  0.45594000000E+02  0.51100000000E-03 0.  1.
         11   -1    0    0    0    0 -0.00000000000E+00 -0.00000000000E+00 -0.45593999997E+02  0.45594000000E+02  0.51100000000E-03 0. -1.
    9900012    2    1    2    0    0 -0.75396454114E+01  0.15596789145E+01  0.39923506957E+02  0.50528864999E+02  0.30000015652E+02 0.  0.
         12    1    1    2    0    0  0.75396454114E+01 -0.15596789145E+01 -0.39923506957E+02  0.40659135001E+02  0.00000000000E+00 0. -1.
         11    1    3    3    0    0  0.75387598329E+01 -0.43161607297E+01  0.30712714701E+01  0.92138402399E+01  0.51100000000E-03 0. -1.
        -11    1    3    3    0    0 -0.15710655530E+02  0.70846308044E+01  0.35017406131E+02  0.39028648749E+02  0.51100000000E-03 0.  1.
        -12    1    3    3    0    0  0.63225028522E+00 -0.12087911602E+01  0.18348293562E+01  0.22863760098E+01  0.00000000000E+00 0.  1.
</event>
<event>
 7    1  0.2973028E-011  0.5052886E+02  0.7816164E-02  0.1300439E+00
        -11   -1    0    0    0    0  0.00000000000E+00  0.00000000000E+00  0.45593999997E+02  0.45594000000E+02  0.51100000000E-03 0.  1.
         11   -1    0    0    0    0 -0.00000000000E+00 -0.00000000000E+00 -0.45593999997E+02  0.45594000000E+02  0.51100000000E-03 0. -1.
    9900012    2    1    2    0    0 -0.33584335723E+01 -0.37450005088E+02  0.15472028590E+02  0.50528860489E+02  0.30000001942E+02 0.  0.
         12    1    1    2    0    0  0.33584335723E+01  0.37450005088E+02 -0.15472028590E+02  0.40659139511E+02  0.00000000000E+00 0. -1.
         11    1    3    3    0    0 -0.12202644579E+01 -0.37927010019E+01 -0.35974992737E+01  0.53680189570E+01  0.51100000000E-03 0. -1.
        -11    1    3    3    0    0  0.10274768657E+02 -0.18729188646E+02  0.11979451754E+02  0.24492052647E+02  0.51100000000E-03 0.  1.
        -12    1    3    3    0    0 -0.12412937772E+02 -0.14928115440E+02  0.70900761089E+01  0.20668788884E+02  0.00000000000E+00 0.  1.
</event>
<event>
 7    1  0.2973028E-011  0.5052884E+02  0.7816164E-02  0.1300439E+00
        -11   -1    0    0    0    0  0.00000000000E+00  0.00000000000E+00  0.45593999997E+02  0.45594000000E+02  0.51100000000E-03 0. -1.
         11   -1    0    0    0    0 -0.00000000000E+00 -0.00000000000E+00 -0.45593999997E+02  0.45594000000E+02  0.51100000000E-03 0.  1.
    9900012    2    1    2    0    0  0.33876938429E+02  0.15867978993E+02 -0.15928833957E+02  0.50528837860E+02  0.29999933160E+02 0.  0.
         12    1    1    2    0    0 -0.33876938429E+02 -0.15867978993E+02  0.15928833957E+02  0.40659162140E+02  0.00000000000E+00 0. -1.
         11    1    3    3    0    0  0.11610283847E+02  0.17881171186E+02 -0.17601337104E+02  0.27646736554E+02  0.51100000000E-03 0. -1.
        -11    1    3    3    0    0  0.21309626294E+02 -0.27438111458E+01  0.10133178429E+01  0.21509427833E+02  0.51100000000E-03 0.  1.
        -12    1    3    3    0    0  0.95702828763E+00  0.73061895296E+00  0.65918530379E+00  0.13726734726E+01  0.00000000000E+00 0.  1.
</event>
<event>
 7    1  0.2973028E-011  0.5052886E+02  0.7816164E-02  0.1300439E+00
        -11   -1    0    0    0    0  0.00000000000E+00  0.00000000000E+00  0.45593999997E+02  0.45594000000E+02  0.51100000000E-03 0.  1.
         11   -1    0    0    0    0 -0.00000000000E+00 -0.00000000000E+00 -0.45593999997E+02  0.45594000000E+02  0.51100000000E-03 0. -1.
    9900012    2    1    2    0    0  0.73169449041E+01 -0.29729584299E+02  0.26754063501E+02  0.50528858603E+02  0.29999996209E+02 0.  0.
         12    1    1    2    0    0 -0.73169449041E+01  0.29729584299E+02 -0.26754063501E+02  0.40659141397E+02  0.00000000000E+00 0. -1.
         11    1    3    3    0    0  0.10434413061E+02 -0.13237288712E+02  0.29253272945E+01  0.17107317978E+02  0.51100000000E-03 0. -1.
        -11    1    3    3    0    0 -0.17187531219E+01 -0.17087001718E+02  0.25762669774E+02  0.30961829631E+02  0.51100000000E-03 0.  1.
        -12    1    3    3    0    0 -0.13987150346E+01  0.59470612999E+00 -0.19339335673E+01  0.24597109936E+01  0.00000000000E+00 0.  1.
</event>
<event>
 7    1  0.2973028E-011  0.5052885E+02  0.7816164E-02  0.1300439E+00
        -11   -1    0    0    0    0  0.00000000000E+00  0.00000000000E+00  0.45593999997E+02  0.45594000000E+02  0.51100000000E-03 0.  1.
         11   -1    0    0    0    0 -0.00000000000E+00 -0.00000000000E+00 -0.45593999997E+02  0.45594000000E+02  0.51100000000E-03 0. -1.
    9900012    2    1    2    0    0  0.32058200832E+02 -0.25008720898E+02 -0.46142491652E-01  0.50528849853E+02  0.29999969614E+02 0.  0.
         12    1    1    2    0    0 -0.32058200832E+02  0.25008720898E+02  0.46142491652E-01  0.40659150147E+02  0.00000000000E+00 0. -1.
         11    1    3    3    0    0  0.17168537792E+02  0.16250333596E+01  0.59638614410E+01  0.18247385206E+02  0.51100000000E-03 0. -1.
        -11    1    3    3    0    0  0.20058576303E+00 -0.74300268683E+01 -0.29974403693E+00  0.74387754813E+01  0.51100000000E-03 0.  1.
         12    1    3    3    0    0  0.14689077277E+02 -0.19203727389E+02 -0.57102598957E+01  0.24842689166E+02  0.00000000000E+00 0. -1.
</event>
<event>
 7    1  0.2973028E-011  0.5052885E+02  0.7816164E-02  0.1300439E+00
        -11   -1    0    0    0    0  0.00000000000E+00  0.00000000000E+00  0.45593999997E+02  0.45594000000E+02  0.51100000000E-03 0.  1.
         11   -1    0    0    0    0 -0.00000000000E+00 -0.00000000000E+00 -0.45593999997E+02  0.45594000000E+02  0.51100000000E-03 0. -1.
    9900012    2    1    2    0    0  0.25873667336E+02 -0.24993118346E+02  0.18948987236E+02  0.50528846746E+02  0.29999960169E+02 0.  0.
         12    1    1    2    0    0 -0.25873667336E+02  0.24993118346E+02 -0.18948987236E+02  0.40659153254E+02  0.00000000000E+00 0. -1.
         11    1    3    3    0    0  0.80199424267E+01 -0.61471129668E+01 -0.47706937257E+01  0.11174345316E+02  0.51100000000E-03 0. -1.
        -11    1    3    3    0    0  0.56777457726E+01 -0.66680038907E+01  0.19861631647E+02  0.21706761271E+02  0.51100000000E-03 0.  1.
        -12    1    3    3    0    0  0.12175979137E+02 -0.12178001489E+02  0.38580493145E+01  0.17647740159E+02  0.00000000000E+00 0.  1.
</event>
<event>
 7    1  0.2973028E-011  0.5052885E+02  0.7816164E-02  0.1300439E+00
        -11   -1    0    0    0    0  0.00000000000E+00  0.00000000000E+00  0.45593999997E+02  0.45594000000E+02  0.51100000000E-03 0.  1.
         11   -1    0    0    0    0 -0.00000000000E+00 -0.00000000000E+00 -0.45593999997E+02  0.45594000000E+02  0.51100000000E-03 0. -1.
    9900012    2    1    2    0    0  0.28653261797E+02  0.26661697174E+02 -0.11014110121E+02  0.50528854294E+02  0.29999983112E+02 0.  0.
         12    1    1    2    0    0 -0.28653261797E+02 -0.26661697174E+02  0.11014110121E+02  0.40659145706E+02  0.00000000000E+00 0. -1.
         11    1    3    3    0    0  0.28951374876E+01  0.52519874863E+01 -0.13411979225E+02  0.14691711290E+02  0.51100000000E-03 0. -1.
        -11    1    3    3    0    0  0.62746742232E+01  0.13139457224E+02  0.16985959683E+01  0.14659539600E+02  0.51100000000E-03 0.  1.
         12    1    3    3    0    0  0.19483450086E+02  0.82702524635E+01  0.69927313541E+00  0.21177603405E+02  0.00000000000E+00 0. -1.
</event>
<event>
 7    1  0.2973028E-011  0.5052887E+02  0.7816164E-02  0.1300439E+00
        -11   -1    0    0    0    0  0.00000000000E+00  0.00000000000E+00  0.45593999997E+02  0.45594000000E+02  0.51100000000E-03 0.  1.
         11   -1    0    0    0    0 -0.00000000000E+00 -0.00000000000E+00 -0.45593999997E+02  0.45594000000E+02  0.51100000000E-03 0. -1.
    9900012    2    1    2    0    0  0.16529240212E+01  0.18642964751E+02  0.36095325772E+02  0.50528870212E+02  0.30000031496E+02 0.  0.
         12    1    1    2    0    0 -0.16529240212E+01 -0.18642964751E+02 -0.36095325772E+02  0.40659129788E+02  0.00000000000E+00 0. -1.
         11    1    3    3    0    0  0.12976791668E+02  0.52014995421E+01  0.97682927509E+01  0.17054977661E+02  0.51100000000E-03 0. -1.
        -11    1    3    3    0    0 -0.87733595594E+01  0.15204527461E+02  0.21850394415E+02  0.28028364733E+02  0.51100000000E-03 0.  1.
         12    1    3    3    0    0 -0.25505080872E+01 -0.17630622518E+01  0.44766386065E+01  0.54455278183E+01  0.00000000000E+00 0. -1.
</event>
<event>
 7    1  0.2973028E-011  0.5052888E+02  0.7816164E-02  0.1300439E+00
        -11   -1    0    0    0    0  0.00000000000E+00  0.00000000000E+00  0.45593999997E+02  0.45594000000E+02  0.51100000000E-03 0. -1.
         11   -1    0    0    0    0 -0.00000000000E+00 -0.00000000000E+00 -0.45593999997E+02  0.45594000000E+02  0.51100000000E-03 0.  1.
    9900012    2    1    2    0    0  0.35086746272E+02 -0.15725777969E+02 -0.13220595524E+02  0.50528880449E+02  0.30000062612E+02 0.  0.
         12    1    1    2    0    0 -0.35086746272E+02  0.15725777969E+02  0.13220595524E+02  0.40659119551E+02  0.00000000000E+00 0. -1.
         11    1    3    3    0    0  0.34100276645E+01  0.39151502443E+01  0.47382880377E+01  0.70290869889E+01  0.51100000000E-03 0. -1.
        -11    1    3    3    0    0 -0.54301457097E-01  0.14702623145E+01 -0.32950702895E+00  0.15077118640E+01  0.51100000000E-03 0.  1.
         12    1    3    3    0    0  0.31731020064E+02 -0.21111190527E+02 -0.17629376533E+02  0.41992081596E+02  0.00000000000E+00 0. -1.
</event>
<event>
 7    1  0.2973028E-011  0.5052887E+02  0.7816164E-02  0.1300439E+00
        -11   -1    0    0    0    0  0.00000000000E+00  0.00000000000E+00  0.45593999997E+02  0.45594000000E+02  0.51100000000E-03 0. -1.
         11   -1    0    0    0    0 -0.00000000000E+00 -0.00000000000E+00 -0.45593999997E+02  0.45594000000E+02  0.51100000000E-03 0.  1.
    9900012    2    1    2    0    0 -0.76277279800E+01 -0.39919513055E+02  0.11895602830E+01  0.50528870516E+02  0.30000032421E+02 0.  0.
         12    1    1    2    0    0  0.76277279800E+01  0.39919513055E+02 -0.11895602830E+01  0.40659129484E+02  0.00000000000E+00 0. -1.
         11    1    3    3    0    0 -0.52202776365E+01 -0.11679606259E+01  0.11441202148E+01  0.54703237521E+01  0.51100000000E-03 0. -1.
        -11    1    3    3    0    0  0.60537541521E+01 -0.30372756582E+02 -0.62416669740E+01  0.31592889842E+02  0.51100000000E-03 0.  1.
        -12    1    3    3    0    0 -0.84612044955E+01 -0.83787958480E+01  0.62871070422E+01  0.13465656922E+02  0.00000000000E+00 0.  1.
</event>
<event>
 7    1  0.2973028E-011  0.5052886E+02  0.7816164E-02  0.1300439E+00
        -11   -1    0    0    0    0  0.00000000000E+00  0.00000000000E+00  0.45593999997E+02  0.45594000000E+02  0.51100000000E-03 0. -1.
         11   -1    0    0    0    0 -0.00000000000E+00 -0.00000000000E+00 -0.45593999997E+02  0.45594000000E+02  0.51100000000E-03 0.  1.
    9900012    2    1    2    0    0 -0.40009317262E+02  0.68642302556E+01 -0.23027917521E+01  0.50528856199E+02  0.29999988902E+02 0.  0.
         12    1    1    2    0    0  0.40009317262E+02 -0.68642302556E+01  0.23027917521E+01  0.40659143801E+02  0.00000000000E+00 0. -1.
         11    1    3    3    0    0 -0.13929965165E+02  0.45470106481E+01  0.78065127105E+01  0.16603038165E+02  0.51100000000E-03 0. -1.
        -11    1    3    3    0    0 -0.25074021207E+02 -0.44401221677E+01 -0.89814742243E+01  0.27001631504E+02  0.51100000000E-03 0.  1.
        -12    1    3    3    0    0 -0.10053308904E+01  0.67573417751E+01 -0.11278302383E+01  0.69241865306E+01  0.00000000000E+00 0.  1.
</event>
<event>
 7    1  0.2973028E-011  0.5052886E+02  0.7816164E-02  0.1300439E+00
        -11   -1    0    0    0    0  0.00000000000E+00  0.00000000000E+00  0.45593999997E+02  0.45594000000E+02  0.51100000000E-03 0. -1.
         11   -1    0    0    0    0 -0.00000000000E+00 -0.00000000000E+00 -0.45593999997E+02  0.45594000000E+02  0.51100000000E-03 0.  1.
    9900012    2    1    2    0    0  0.28390825698E+02  0.55576361453E+01 -0.28569908604E+02  0.50528856121E+02  0.29999988664E+02 0.  0.
         12    1    1    2    0    0 -0.28390825698E+02 -0.55576361453E+01  0.28569908604E+02  0.40659143879E+02  0.00000000000E+00 0. -1.
         11    1    3    3    0    0  0.25846422267E+00 -0.35677788696E+01 -0.11969231308E+02  0.12492331575E+02  0.51100000000E-03 0. -1.
        -11    1    3    3    0    0  0.25168993138E+02  0.63977731642E+01 -0.19990393241E+02  0.32772328865E+02  0.51100000000E-03 0.  1.
         12    1    3    3    0    0  0.29633683372E+01  0.27276418507E+01  0.33897159452E+01  0.52641956799E+01  0.00000000000E+00 0. -1.
</event>
<event>
 7    1  0.2973028E-011  0.5052887E+02  0.7816164E-02  0.1300439E+00
        -11   -1    0    0    0    0  0.00000000000E+00  0.00000000000E+00  0.45593999997E+02  0.45594000000E+02  0.51100000000E-03 0.  1.
         11   -1    0    0    0    0 -0.00000000000E+00 -0.00000000000E+00 -0.45593999997E+02  0.45594000000E+02  0.51100000000E-03 0. -1.
    9900012    2    1    2    0    0  0.24337973173E+01  0.31667324947E+02  0.25385463032E+02  0.50528873447E+02  0.30000041330E+02 0.  0.
         12    1    1    2    0    0 -0.24337973173E+01 -0.31667324947E+02 -0.25385463032E+02  0.40659126553E+02  0.00000000000E+00 0. -1.
         11    1    3    3    0    0  0.86224763554E+01 -0.75849814789E+00  0.10215413560E+02  0.13389439585E+02  0.51100000000E-03 0. -1.
        -11    1    3    3    0    0 -0.37739905812E+01  0.27067318942E+02  0.15179889953E+02  0.31261986803E+02  0.51100000000E-03 0.  1.
         12    1    3    3    0    0 -0.24146884569E+01  0.53585041529E+01 -0.98404812169E-02  0.58774470594E+01  0.00000000000E+00 0. -1.
</event>
<event>
 7    1  0.2973028E-011  0.5052887E+02  0.7816164E-02  0.1300439E+00
        -11   -1    0    0    0    0  0.00000000000E+00  0.00000000000E+00  0.45593999997E+02  0.45594000000E+02  0.51100000000E-03 0.  1.
         11   -1    0    0    0    0 -0.00000000000E+00 -0.00000000000E+00 -0.45593999997E+02  0.45594000000E+02  0.51100000000E-03 0. -1.
    9900012    2    1    2    0    0  0.26756325069E+02 -0.99664160030E+01  0.28947104826E+02  0.50528865025E+02  0.30000015730E+02 0.  0.
         12    1    1    2    0    0 -0.26756325069E+02  0.99664160030E+01 -0.28947104826E+02  0.40659134975E+02  0.00000000000E+00 0. -1.
         11    1    3    3    0    0  0.37570446388E+01  0.51024939896E+01  0.25522125331E+01  0.68311505917E+01  0.51100000000E-03 0. -1.
        -11    1    3    3    0    0  0.85786234731E+01 -0.17913879024E+02  0.17798042840E+02  0.26669648883E+02  0.51100000000E-03 0.  1.
        -12    1    3    3    0    0  0.14420656957E+02  0.28449690313E+01  0.85968494528E+01  0.17028065550E+02  0.00000000000E+00 0.  1.
</event>
<event>
 7    1  0.2973028E-011  0.5052885E+02  0.7816164E-02  0.1300439E+00
        -11   -1    0    0    0    0  0.00000000000E+00  0.00000000000E+00  0.45593999997E+02  0.45594000000E+02  0.51100000000E-03 0.  1.
         11   -1    0    0    0    0 -0.00000000000E+00 -0.00000000000E+00 -0.45593999997E+02  0.45594000000E+02  0.51100000000E-03 0. -1.
    9900012    2    1    2    0    0 -0.37975552806E+02  0.13303270265E+02 -0.58349442875E+01  0.50528853606E+02  0.29999981022E+02 0.  0.
         12    1    1    2    0    0  0.37975552806E+02 -0.13303270265E+02  0.58349442875E+01  0.40659146394E+02  0.00000000000E+00 0. -1.
         11    1    3    3    0    0 -0.12796096316E+02 -0.42016585271E+01  0.63518194661E+01  0.14890924286E+02  0.51100000000E-03 0. -1.
        -11    1    3    3    0    0 -0.41778473763E+01  0.66282530603E+01 -0.87388413697E+01  0.11736928733E+02  0.51100000000E-03 0.  1.
        -12    1    3    3    0    0 -0.21001609113E+02  0.10876675731E+02 -0.34479223840E+01  0.23901000587E+02  0.00000000000E+00 0.  1.
</event>
<event>
 7    1  0.2973028E-011  0.5052887E+02  0.7816164E-02  0.1300439E+00
        -11   -1    0    0    0    0  0.00000000000E+00  0.00000000000E+00  0.45593999997E+02  0.45594000000E+02  0.51100000000E-03 0. -1.
         11   -1    0    0    0    0 -0.00000000000E+00 -0.00000000000E+00 -0.45593999997E+02  0.45594000000E+02  0.51100000000E-03 0.  1.
    9900012    2    1    2    0    0 -0.92070511289E+01 -0.13559950282E+02 -0.37209174721E+02  0.50528871559E+02  0.30000035592E+02 0.  0.
         12    1    1    2    0    0  0.92070511289E+01  0.13559950282E+02  0.37209174721E+02  0.40659128441E+02  0.00000000000E+00 0. -1.
         11    1    3    3    0    0 -0.14300772654E+02 -0.12426574537E-02 -0.71362315863E+01  0.15982424771E+02  0.51100000000E-03 0. -1.
        -11    1    3    3    0    0 -0.99495334351E+00 -0.72271085414E+01 -0.19382888390E+02  0.20710320920E+02  0.51100000000E-03 0.  1.
         12    1    3    3    0    0  0.60886748683E+01 -0.63315990827E+01 -0.10690054745E+02  0.13836125868E+02  0.00000000000E+00 0. -1.
</event>
<event>
 7    1  0.2973028E-011  0.5052886E+02  0.7816164E-02  0.1300439E+00
        -11   -1    0    0    0    0  0.00000000000E+00  0.00000000000E+00  0.45593999997E+02  0.45594000000E+02  0.51100000000E-03 0.  1.
         11   -1    0    0    0    0 -0.00000000000E+00 -0.00000000000E+00 -0.45593999997E+02  0.45594000000E+02  0.51100000000E-03 0. -1.
    9900012    2    1    2    0    0 -0.77263079665E+01  0.32554874271E+01  0.39785319660E+02  0.50528859655E+02  0.29999999407E+02 0.  0.
         12    1    1    2    0    0  0.77263079665E+01 -0.32554874271E+01 -0.39785319660E+02  0.40659140345E+02  0.00000000000E+00 0. -1.
         11    1    3    3    0    0 -0.10051344565E+02 -0.36220053296E+00  0.62744849164E+01  0.11854529852E+02  0.51100000000E-03 0. -1.
        -11    1    3    3    0    0  0.11617809565E+01 -0.57161281538E+01  0.25974936088E+02  0.26621817389E+02  0.51100000000E-03 0.  1.
        -12    1    3    3    0    0  0.11632556419E+01  0.93338161138E+01  0.75358986555E+01  0.12052512414E+02  0.00000000000E+00 0.  1.
</event>
<event>
 7    1  0.2973028E-011  0.5052886E+02  0.7816164E-02  0.1300439E+00
        -11   -1    0    0    0    0  0.00000000000E+00  0.00000000000E+00  0.45593999997E+02  0.45594000000E+02  0.51100000000E-03 0.  1.
         11   -1    0    0    0    0 -0.00000000000E+00 -0.00000000000E+00 -0.45593999997E+02  0.45594000000E+02  0.51100000000E-03 0. -1.
    9900012    2    1    2    0    0  0.11952149862E+02  0.33714118297E+02  0.19330551654E+02  0.50528857288E+02  0.29999992212E+02 0.  0.
         12    1    1    2    0    0 -0.11952149862E+02 -0.33714118297E+02 -0.19330551654E+02  0.40659142712E+02  0.00000000000E+00 0. -1.
         11    1    3    3    0    0 -0.70582322369E+01  0.64477788056E+01  0.78126816839E+00  0.95918128656E+01  0.51100000000E-03 0. -1.
        -11    1    3    3    0    0  0.88395957881E+01  0.60934441702E+01  0.12890453955E+02  0.16775944652E+02  0.51100000000E-03 0.  1.
         12    1    3    3    0    0  0.10170786311E+02  0.21172895321E+02  0.56588295305E+01  0.24161099770E+02  0.00000000000E+00 0. -1.
</event>
<event>
 7    1  0.2973028E-011  0.5052887E+02  0.7816164E-02  0.1300439E+00
        -11   -1    0    0    0    0  0.00000000000E+00  0.00000000000E+00  0.45593999997E+02  0.45594000000E+02  0.51100000000E-03 0. -1.
         11   -1    0    0    0    0 -0.00000000000E+00 -0.00000000000E+00 -0.45593999997E+02  0.45594000000E+02  0.51100000000E-03 0.  1.
    9900012    2    1    2    0    0  0.35653929468E+02 -0.17543536841E+02 -0.86131583042E+01  0.50528869815E+02  0.30000030290E+02 0.  0.
         12    1    1    2    0    0 -0.35653929468E+02  0.17543536841E+02  0.86131583042E+01  0.40659130185E+02  0.00000000000E+00 0. -1.
         11    1    3    3    0    0  0.86966917062E+01 -0.60560580138E+01  0.68270443267E+01  0.12606221472E+02  0.51100000000E-03 0. -1.
        -11    1    3    3    0    0  0.29788952062E+02 -0.10581573580E+02 -0.13512755946E+02  0.34379440628E+02  0.51100000000E-03 0.  1.
        -12    1    3    3    0    0 -0.28317142997E+01 -0.90590524685E+00 -0.19274466850E+01  0.35432077155E+01  0.00000000000E+00 0.  1.
</event>
<event>
 7    1  0.2973028E-011  0.5052888E+02  0.7816164E-02  0.1300439E+00
        -11   -1    0    0    0    0  0.00000000000E+00  0.00000000000E+00  0.45593999997E+02  0.45594000000E+02  0.51100000000E-03 0.  1.
         11   -1    0    0    0    0 -0.00000000000E+00 -0.00000000000E+00 -0.45593999997E+02  0.45594000000E+02  0.51100000000E-03 0. -1.
    9900012    2    1    2    0    0 -0.39066147531E+01 -0.55408467254E+01  0.40089920155E+02  0.50528876555E+02  0.30000050777E+02 0.  0.
         12    1    1    2    0    0  0.39066147531E+01  0.55408467254E+01 -0.40089920155E+02  0.40659123445E+02  0.00000000000E+00 0. -1.
         11    1    3    3    0    0  0.74160246821E+01  0.29357741028E+01  0.10040290600E+02  0.12822777673E+02  0.51100000000E-03 0. -1.
        -11    1    3    3    0    0 -0.33599838755E+01 -0.12879633057E+02  0.21070611891E+02  0.24922783253E+02  0.51100000000E-03 0.  1.
        -12    1    3    3    0    0 -0.79626555598E+01  0.44030122293E+01  0.89790176639E+01  0.12783315629E+02  0.00000000000E+00 0.  1.
</event>
<event>
 7    1  0.2973028E-011  0.5052886E+02  0.7816164E-02  0.1300439E+00
        -11   -1    0    0    0    0  0.00000000000E+00  0.00000000000E+00  0.45593999997E+02  0.45594000000E+02  0.51100000000E-03 0.  1.
         11   -1    0    0    0    0 -0.00000000000E+00 -0.00000000000E+00 -0.45593999997E+02  0.45594000000E+02  0.51100000000E-03 0. -1.
    9900012    2    1    2    0    0 -0.29918038582E+02 -0.55633225424E+01  0.26965273795E+02  0.50528861037E+02  0.30000003609E+02 0.  0.
         12    1    1    2    0    0  0.29918038582E+02  0.55633225424E+01 -0.26965273795E+02  0.40659138963E+02  0.00000000000E+00 0. -1.
         11    1    3    3    0    0  0.32103877897E+01  0.28127041190E+01 -0.21748905161E+01  0.47904115940E+01  0.51100000000E-03 0. -1.
        -11    1    3    3    0    0 -0.34498208910E+01 -0.38805186471E+01  0.51412123164E+01  0.73069660937E+01  0.51100000000E-03 0.  1.
         12    1    3    3    0    0 -0.29678605481E+02 -0.44955080143E+01  0.23998951995E+02  0.38431483350E+02  0.00000000000E+00 0. -1.
</event>
<event>
 7    1  0.2973028E-011  0.5052886E+02  0.7816164E-02  0.1300439E+00
        -11   -1    0    0    0    0  0.00000000000E+00  0.00000000000E+00  0.45593999997E+02  0.45594000000E+02  0.51100000000E-03 0. -1.
         11   -1    0    0    0    0 -0.00000000000E+00 -0.00000000000E+00 -0.45593999997E+02  0.45594000000E+02  0.51100000000E-03 0.  1.
    9900012    2    1    2    0    0 -0.16292521676E+02  0.17097804785E+02 -0.33096589196E+02  0.50528863174E+02  0.30000010105E+02 0.  0.
         12    1    1    2    0    0  0.16292521676E+02 -0.17097804785E+02  0.33096589196E+02  0.40659136826E+02  0.00000000000E+00 0. -1.
         11    1    3    3    0    0  0.51467418209E+01 -0.27740647286E+01 -0.71382231083E+01  0.92270588973E+01  0.51100000000E-03 0. -1.
        -11    1    3    3    0    0 -0.10562041280E+02  0.15963787833E+02 -0.99962526689E+01  0.21594543423E+02  0.51100000000E-03 0.  1.
        -12    1    3    3    0    0 -0.10877222217E+02  0.39080816804E+01 -0.15962113418E+02  0.19707260854E+02  0.00000000000E+00 0.  1.
</event>
<event>
 7    1  0.2973028E-011  0.5052886E+02  0.7816164E-02  0.1300439E+00
        -11   -1    0    0    0    0  0.00000000000E+00  0.00000000000E+00  0.45593999997E+02  0.45594000000E+02  0.51100000000E-03 0.  1.
         11   -1    0    0    0    0 -0.00000000000E+00 -0.00000000000E+00 -0.45593999997E+02  0.45594000000E+02  0.51100000000E-03 0. -1.
    9900012    2    1    2    0    0  0.27082878861E+01  0.28345117662E+02  0.29023872809E+02  0.50528859437E+02  0.29999998744E+02 0.  0.
         12    1    1    2    0    0 -0.27082878861E+01 -0.28345117662E+02 -0.29023872809E+02  0.40659140563E+02  0.00000000000E+00 0. -1.
         11    1    3    3    0    0 -0.69924865958E+01  0.12806391336E+02 -0.35004860226E+00  0.14595241078E+02  0.51100000000E-03 0. -1.
        -11    1    3    3    0    0  0.41686961647E+01  0.12192685586E+02  0.25007165224E+02  0.28131795576E+02  0.51100000000E-03 0.  1.
        -12    1    3    3    0    0  0.55320783171E+01  0.33460407395E+01  0.43667561867E+01  0.78018227826E+01  0.00000000000E+00 0.  1.
</event>
<event>
 7    1  0.2973028E-011  0.5052885E+02  0.7816164E-02  0.1300439E+00
        -11   -1    0    0    0    0  0.00000000000E+00  0.00000000000E+00  0.45593999997E+02  0.45594000000E+02  0.51100000000E-03 0.  1.
         11   -1    0    0    0    0 -0.00000000000E+00 -0.00000000000E+00 -0.45593999997E+02  0.45594000000E+02  0.51100000000E-03 0. -1.
    9900012    2    1    2    0    0  0.70038998365E+01 -0.11442279718E+02  0.38382109245E+02  0.50528847425E+02  0.29999962233E+02 0.  0.
         12    1    1    2    0    0 -0.70038998365E+01  0.11442279718E+02 -0.38382109245E+02  0.40659152575E+02  0.00000000000E+00 0. -1.
         11    1    3    3    0    0 -0.53134740960E+01 -0.15535829195E+02  0.18384551093E+02  0.24649274125E+02  0.51100000000E-03 0. -1.
        -11    1    3    3    0    0  0.10595157322E+02  0.67883284397E+00  0.19248702926E+02  0.21982509804E+02  0.51100000000E-03 0.  1.
         12    1    3    3    0    0  0.17222166108E+01  0.34147166332E+01  0.74885522545E+00  0.38970634955E+01  0.00000000000E+00 0. -1.
</event>
<event>
 7    1  0.2973028E-011  0.5052886E+02  0.7816164E-02  0.1300439E+00
        -11   -1    0    0    0    0  0.00000000000E+00  0.00000000000E+00  0.45593999997E+02  0.45594000000E+02  0.51100000000E-03 0.  1.
         11   -1    0    0    0    0 -0.00000000000E+00 -0.00000000000E+00 -0.45593999997E+02  0.45594000000E+02  0.51100000000E-03 0. -1.
    9900012    2    1    2    0    0 -0.37540642450E+02  0.11064458516E+02 -0.11020144223E+02  0.50528860111E+02  0.30000000792E+02 0.  0.
         12    1    1    2    0    0  0.37540642450E+02 -0.11064458516E+02  0.11020144223E+02  0.40659139889E+02  0.00000000000E+00 0. -1.
         11    1    3    3    0    0 -0.61324508330E-01  0.75743229715E+01 -0.42911584309E+01  0.87056401323E+01  0.51100000000E-03 0. -1.
        -11    1    3    3    0    0 -0.13923202213E+02 -0.40381428823E+01  0.37354154687E+01  0.14970487192E+02  0.51100000000E-03 0.  1.
        -12    1    3    3    0    0 -0.23556115730E+02  0.75282784264E+01 -0.10464401261E+02  0.26852732786E+02  0.00000000000E+00 0.  1.
</event>
<event>
 7    1  0.2973028E-011  0.5052886E+02  0.7816164E-02  0.1300439E+00
        -11   -1    0    0    0    0  0.00000000000E+00  0.00000000000E+00  0.45593999997E+02  0.45594000000E+02  0.51100000000E-03 0.  1.
         11   -1    0    0    0    0 -0.00000000000E+00 -0.00000000000E+00 -0.45593999997E+02  0.45594000000E+02  0.51100000000E-03 0. -1.
    9900012    2    1    2    0    0 -0.25011656557E+02  0.15556337039E+02  0.28028251409E+02  0.50528862493E+02  0.30000008033E+02 0.  0.
         12    1    1    2    0    0  0.25011656557E+02 -0.15556337039E+02 -0.28028251409E+02  0.40659137507E+02  0.00000000000E+00 0. -1.
         11    1    3    3    0    0 -0.40291549745E+01  0.88472709977E+00 -0.37672279987E+01  0.55864871704E+01  0.51100000000E-03 0. -1.
        -11    1    3    3    0    0 -0.14605281364E+02  0.18833789371E+02  0.21224626139E+02  0.31914113192E+02  0.51100000000E-03 0.  1.
        -12    1    3    3    0    0 -0.63772202180E+01 -0.41621794312E+01  0.10570853268E+02  0.13028262131E+02  0.00000000000E+00 0.  1.
</event>
<event>
 7    1  0.2973028E-011  0.5052886E+02  0.7816164E-02  0.1300439E+00
        -11   -1    0    0    0    0  0.00000000000E+00  0.00000000000E+00  0.45593999997E+02  0.45594000000E+02  0.51100000000E-03 0.  1.
         11   -1    0    0    0    0 -0.00000000000E+00 -0.00000000000E+00 -0.45593999997E+02  0.45594000000E+02  0.51100000000E-03 0. -1.
    9900012    2    1    2    0    0 -0.15172329692E+02  0.20289572111E+02  0.31800928567E+02  0.50528863481E+02  0.30000011036E+02 0.  0.
         12    1    1    2    0    0  0.15172329692E+02 -0.20289572111E+02 -0.31800928567E+02  0.40659136519E+02  0.00000000000E+00 0. -1.
         11    1    3    3    0    0 -0.75400014131E+01  0.41357882647E+01 -0.26654131760E+01  0.90033767854E+01  0.51100000000E-03 0. -1.
        -11    1    3    3    0    0 -0.83378941062E+01  0.18712272170E+02  0.31056768414E+02  0.37204737232E+02  0.51100000000E-03 0.  1.
        -12    1    3    3    0    0  0.70556582731E+00 -0.25584883239E+01  0.34095733296E+01  0.43207494639E+01  0.00000000000E+00 0.  1.
</event>
<event>
 7    1  0.2973028E-011  0.5052886E+02  0.7816164E-02  0.1300439E+00
        -11   -1    0    0    0    0  0.00000000000E+00  0.00000000000E+00  0.45593999997E+02  0.45594000000E+02  0.51100000000E-03 0. -1.
         11   -1    0    0    0    0 -0.00000000000E+00 -0.00000000000E+00 -0.45593999997E+02  0.45594000000E+02  0.51100000000E-03 0.  1.
    9900012    2    1    2    0    0  0.19938395876E+02 -0.16149816806E+02 -0.31540601192E+02  0.50528859128E+02  0.29999997805E+02 0.  0.
         12    1    1    2    0    0 -0.19938395876E+02  0.16149816806E+02  0.31540601192E+02  0.40659140872E+02  0.00000000000E+00 0. -1.
         11    1    3    3    0    0  0.17305138649E+02 -0.66890816598E+01 -0.12349322361E+02  0.22287157740E+02  0.51100000000E-03 0. -1.
        -11    1    3    3    0    0 -0.47025802229E+01 -0.25778903144E+01 -0.17161272605E+02  0.17979684561E+02  0.51100000000E-03 0.  1.
        -12    1    3    3    0    0  0.73358374500E+01 -0.68828448314E+01 -0.20300062248E+01  0.10262016826E+02  0.00000000000E+00 0.  1.
</event>
<event>
 7    1  0.2973028E-011  0.5052887E+02  0.7816164E-02  0.1300439E+00
        -11   -1    0    0    0    0  0.00000000000E+00  0.00000000000E+00  0.45593999997E+02  0.45594000000E+02  0.51100000000E-03 0.  1.
         11   -1    0    0    0    0 -0.00000000000E+00 -0.00000000000E+00 -0.45593999997E+02  0.45594000000E+02  0.51100000000E-03 0. -1.
    9900012    2    1    2    0    0  0.18557919875E+02  0.31585336825E+02  0.17639009826E+02  0.50528873594E+02  0.30000041777E+02 0.  0.
         12    1    1    2    0    0 -0.18557919875E+02 -0.31585336825E+02 -0.17639009826E+02  0.40659126406E+02  0.00000000000E+00 0. -1.
         11    1    3    3    0    0  0.11823352101E+00 -0.42575140743E+01  0.23918401215E+00  0.42658662087E+01  0.51100000000E-03 0. -1.
        -11    1    3    3    0    0  0.20001238282E+02  0.25581455206E+02  0.13692868040E+02  0.35241382191E+02  0.51100000000E-03 0.  1.
         12    1    3    3    0    0 -0.15615519286E+01  0.10261395693E+02  0.37069577743E+01  0.11021625195E+02  0.00000000000E+00 0. -1.
</event>
<event>
 7    1  0.2973028E-011  0.5052892E+02  0.7816164E-02  0.1300439E+00
        -11   -1    0    0    0    0  0.00000000000E+00  0.00000000000E+00  0.45593999997E+02  0.45594000000E+02  0.51100000000E-03 0.  1.
         11   -1    0    0    0    0 -0.00000000000E+00 -0.00000000000E+00 -0.45593999997E+02  0.45594000000E+02  0.51100000000E-03 0. -1.
    9900012    2    1    2    0    0 -0.28960920801E+02 -0.24477584695E+02  0.14672210078E+02  0.50528919406E+02  0.30000181027E+02 0.  0.
         12    1    1    2    0    0  0.28960920801E+02  0.24477584695E+02 -0.14672210078E+02  0.40659080594E+02  0.00000000000E+00 0. -1.
         11    1    3    3    0    0  0.45403762504E+01  0.12069448529E+00  0.77429847478E+00  0.46075071398E+01  0.51100000000E-03 0. -1.
        -11    1    3    3    0    0 -0.11246147259E+02 -0.16719047572E+02  0.59211309235E+01  0.21001480223E+02  0.51100000000E-03 0.  1.
         12    1    3    3    0    0 -0.22255149793E+02 -0.78792316082E+01  0.79767806801E+01  0.24919932043E+02  0.00000000000E+00 0. -1.
</event>
<event>
 7    1  0.2973028E-011  0.5052886E+02  0.7816164E-02  0.1300439E+00
        -11   -1    0    0    0    0  0.00000000000E+00  0.00000000000E+00  0.45593999997E+02  0.45594000000E+02  0.51100000000E-03 0.  1.
         11   -1    0    0    0    0 -0.00000000000E+00 -0.00000000000E+00 -0.45593999997E+02  0.45594000000E+02  0.51100000000E-03 0. -1.
    9900012    2    1    2    0    0 -0.38313786075E+02 -0.10376748835E+02 -0.88058073163E+01  0.50528863729E+02  0.30000011792E+02 0.  0.
         12    1    1    2    0    0  0.38313786075E+02  0.10376748835E+02  0.88058073163E+01  0.40659136271E+02  0.00000000000E+00 0. -1.
         11    1    3    3    0    0 -0.17212538925E+02 -0.64829013640E+01 -0.47365845624E+01  0.18993018189E+02  0.51100000000E-03 0. -1.
        -11    1    3    3    0    0 -0.76488995066E+01  0.53051819777E+01  0.71609199890E+01  0.11744334584E+02  0.51100000000E-03 0.  1.
        -12    1    3    3    0    0 -0.13452347644E+02 -0.91990294483E+01 -0.11230142743E+02  0.19791510957E+02  0.00000000000E+00 0.  1.
</event>
<event>
 7    1  0.2973028E-011  0.5052886E+02  0.7816164E-02  0.1300439E+00
        -11   -1    0    0    0    0  0.00000000000E+00  0.00000000000E+00  0.45593999997E+02  0.45594000000E+02  0.51100000000E-03 0. -1.
         11   -1    0    0    0    0 -0.00000000000E+00 -0.00000000000E+00 -0.45593999997E+02  0.45594000000E+02  0.51100000000E-03 0.  1.
    9900012    2    1    2    0    0 -0.39903377858E+02 -0.16423592386E+01 -0.76281291360E+01  0.50528864957E+02  0.30000015522E+02 0.  0.
         12    1    1    2    0    0  0.39903377858E+02  0.16423592386E+01  0.76281291360E+01  0.40659135043E+02  0.00000000000E+00 0. -1.
         11    1    3    3    0    0 -0.97190229446E+01  0.90945243512E+01 -0.35722713368E+01  0.13781542110E+02  0.51100000000E-03 0. -1.
        -11    1    3    3    0    0 -0.25963716283E+02 -0.13380956508E+02 -0.81227171817E+01  0.30317372825E+02  0.51100000000E-03 0.  1.
        -12    1    3    3    0    0 -0.42206386301E+01  0.26440729185E+01  0.40668593824E+01  0.64299500216E+01  0.00000000000E+00 0.  1.
</event>
<event>
 7    1  0.2973028E-011  0.5052887E+02  0.7816164E-02  0.1300439E+00
        -11   -1    0    0    0    0  0.00000000000E+00  0.00000000000E+00  0.45593999997E+02  0.45594000000E+02  0.51100000000E-03 0.  1.
         11   -1    0    0    0    0 -0.00000000000E+00 -0.00000000000E+00 -0.45593999997E+02  0.45594000000E+02  0.51100000000E-03 0. -1.
    9900012    2    1    2    0    0 -0.14620657139E+02 -0.31976194316E+02  0.20418712914E+02  0.50528874884E+02  0.30000045698E+02 0.  0.
         12    1    1    2    0    0  0.14620657139E+02  0.31976194316E+02 -0.20418712914E+02  0.40659125116E+02  0.00000000000E+00 0. -1.
         11    1    3    3    0    0  0.70698702141E+01  0.37862268570E+00  0.18083307136E+01  0.73072895258E+01  0.51100000000E-03 0. -1.
        -11    1    3    3    0    0 -0.13214652812E+02 -0.19881743088E+02  0.12532650184E+02  0.26962531002E+02  0.51100000000E-03 0.  1.
         12    1    3    3    0    0 -0.84758745412E+01 -0.12473073913E+02  0.60777320166E+01  0.16259054356E+02  0.00000000000E+00 0. -1.
</event>
<event>
 7    1  0.2973028E-011  0.5052886E+02  0.7816164E-02  0.1300439E+00
        -11   -1    0    0    0    0  0.00000000000E+00  0.00000000000E+00  0.45593999997E+02  0.45594000000E+02  0.51100000000E-03 0. -1.
         11   -1    0    0    0    0 -0.00000000000E+00 -0.00000000000E+00 -0.45593999997E+02  0.45594000000E+02  0.51100000000E-03 0.  1.
    9900012    2    1    2    0    0 -0.17723303555E+02 -0.33835037248E+02 -0.13937020381E+02  0.50528858696E+02  0.29999996492E+02 0.  0.
         12    1    1    2    0    0  0.17723303555E+02  0.33835037248E+02  0.13937020381E+02  0.40659141304E+02  0.00000000000E+00 0. -1.
         11    1    3    3    0    0  0.11889952655E+01 -0.23313973461E+02 -0.13424300991E+02  0.26928923589E+02  0.51100000000E-03 0. -1.
        -11    1    3    3    0    0 -0.13816897587E+02 -0.56015789755E+01  0.36968586770E+01  0.15360700189E+02  0.51100000000E-03 0.  1.
        -12    1    3    3    0    0 -0.50954012335E+01 -0.49194848115E+01 -0.42095780671E+01  0.82392349186E+01  0.00000000000E+00 0.  1.
</event>
<event>
 7    1  0.2973028E-011  0.5052884E+02  0.7816164E-02  0.1300439E+00
        -11   -1    0    0    0    0  0.00000000000E+00  0.00000000000E+00  0.45593999997E+02  0.45594000000E+02  0.51100000000E-03 0.  1.
         11   -1    0    0    0    0 -0.00000000000E+00 -0.00000000000E+00 -0.45593999997E+02  0.45594000000E+02  0.51100000000E-03 0. -1.
    9900012    2    1    2    0    0  0.12683356149E+02 -0.38437958035E+02  0.38500607223E+01  0.50528842253E+02  0.29999946512E+02 0.  0.
         12    1    1    2    0    0 -0.12683356149E+02  0.38437958035E+02 -0.38500607223E+01  0.40659157747E+02  0.00000000000E+00 0. -1.
         11    1    3    3    0    0  0.12137871928E+02 -0.36365248434E+01  0.71259371117E+01  0.14537235908E+02  0.51100000000E-03 0. -1.
        -11    1    3    3    0    0  0.19476621633E+01 -0.12850128644E+02  0.25330946032E+01  0.13241441107E+02  0.51100000000E-03 0.  1.
         12    1    3    3    0    0 -0.14021779420E+01 -0.21951304548E+02 -0.58089709925E+01  0.22750165237E+02  0.00000000000E+00 0. -1.
</event>
<event>
 7    1  0.2973028E-011  0.5052887E+02  0.7816164E-02  0.1300439E+00
        -11   -1    0    0    0    0  0.00000000000E+00  0.00000000000E+00  0.45593999997E+02  0.45594000000E+02  0.51100000000E-03 0.  1.
         11   -1    0    0    0    0 -0.00000000000E+00 -0.00000000000E+00 -0.45593999997E+02  0.45594000000E+02  0.51100000000E-03 0. -1.
    9900012    2    1    2    0    0  0.28680114456E+02 -0.28127478681E+02  0.62817765009E+01  0.50528871404E+02  0.30000035119E+02 0.  0.
         12    1    1    2    0    0 -0.28680114456E+02  0.28127478681E+02 -0.62817765009E+01  0.40659128596E+02  0.00000000000E+00 0. -1.
         11    1    3    3    0    0  0.25068946698E+01  0.20711063974E+01  0.77784963255E+01  0.84308367285E+01  0.51100000000E-03 0. -1.
        -11    1    3    3    0    0  0.77752892584E+01 -0.14753017002E+02 -0.58736634327E+01  0.17680683135E+02  0.51100000000E-03 0.  1.
        -12    1    3    3    0    0  0.18397930528E+02 -0.15445568076E+02  0.43769436081E+01  0.24417351541E+02  0.00000000000E+00 0.  1.
</event>
<event>
 7    1  0.2973028E-011  0.5052884E+02  0.7816164E-02  0.1300439E+00
        -11   -1    0    0    0    0  0.00000000000E+00  0.00000000000E+00  0.45593999997E+02  0.45594000000E+02  0.51100000000E-03 0.  1.
         11   -1    0    0    0    0 -0.00000000000E+00 -0.00000000000E+00 -0.45593999997E+02  0.45594000000E+02  0.51100000000E-03 0. -1.
    9900012    2    1    2    0    0 -0.16840208834E+02 -0.37007444416E+02 -0.15472001699E+00  0.50528837268E+02  0.29999931360E+02 0.  0.
         12    1    1    2    0    0  0.16840208834E+02  0.37007444416E+02  0.15472001699E+00  0.40659162732E+02  0.00000000000E+00 0. -1.
         11    1    3    3    0    0 -0.12456742560E+02 -0.85239368126E+01 -0.97065240554E+01  0.17945599558E+02  0.51100000000E-03 0. -1.
        -11    1    3    3    0    0 -0.75749157751E+01 -0.11095212862E+02  0.49290454650E+01  0.14310086894E+02  0.51100000000E-03 0.  1.
         12    1    3    3    0    0  0.31914495011E+01 -0.17388294741E+02  0.46227585734E+01  0.18273150816E+02  0.00000000000E+00 0. -1.
</event>
<event>
 7    1  0.2973028E-011  0.5052886E+02  0.7816164E-02  0.1300439E+00
        -11   -1    0    0    0    0  0.00000000000E+00  0.00000000000E+00  0.45593999997E+02  0.45594000000E+02  0.51100000000E-03 0.  1.
         11   -1    0    0    0    0 -0.00000000000E+00 -0.00000000000E+00 -0.45593999997E+02  0.45594000000E+02  0.51100000000E-03 0. -1.
    9900012    2    1    2    0    0  0.24466739538E+02 -0.79980534900E+01  0.31473402465E+02  0.50528864914E+02  0.30000015392E+02 0.  0.
         12    1    1    2    0    0 -0.24466739538E+02  0.79980534900E+01 -0.31473402465E+02  0.40659135086E+02  0.00000000000E+00 0. -1.
         11    1    3    3    0    0 -0.44360723377E+01 -0.53451877200E+01  0.73897238798E+01  0.10141882903E+02  0.51100000000E-03 0. -1.
        -11    1    3    3    0    0  0.30067384950E+02 -0.68534211416E+00  0.21717956364E+02  0.37096993954E+02  0.51100000000E-03 0.  1.
        -12    1    3    3    0    0 -0.11645730747E+01 -0.19675236558E+01  0.23657222208E+01  0.32899880560E+01  0.00000000000E+00 0.  1.
</event>
<event>
 7    1  0.2973028E-011  0.5052886E+02  0.7816164E-02  0.1300439E+00
        -11   -1    0    0    0    0  0.00000000000E+00  0.00000000000E+00  0.45593999997E+02  0.45594000000E+02  0.51100000000E-03 0.  1.
         11   -1    0    0    0    0 -0.00000000000E+00 -0.00000000000E+00 -0.45593999997E+02  0.45594000000E+02  0.51100000000E-03 0. -1.
    9900012    2    1    2    0    0  0.40866199431E+01  0.33703640591E+02  0.22372515798E+02  0.50528864314E+02  0.30000013567E+02 0.  0.
         12    1    1    2    0    0 -0.40866199431E+01 -0.33703640591E+02 -0.22372515798E+02  0.40659135686E+02  0.00000000000E+00 0. -1.
         11    1    3    3    0    0 -0.61558702324E+01  0.32590375801E+01 -0.10780970294E+01  0.70482875745E+01  0.51100000000E-03 0. -1.
        -11    1    3    3    0    0  0.22955106660E+01  0.26933651202E+02  0.13320472512E+02  0.30135127749E+02  0.51100000000E-03 0.  1.
        -12    1    3    3    0    0  0.79469795095E+01  0.35109518093E+01  0.10130140315E+02  0.13345448990E+02  0.00000000000E+00 0.  1.
</event>
<event>
 7    1  0.2973028E-011  0.5052886E+02  0.7816164E-02  0.1300439E+00
        -11   -1    0    0    0    0  0.00000000000E+00  0.00000000000E+00  0.45593999997E+02  0.45594000000E+02  0.51100000000E-03 0. -1.
         11   -1    0    0    0    0 -0.00000000000E+00 -0.00000000000E+00 -0.45593999997E+02  0.45594000000E+02  0.51100000000E-03 0.  1.
    9900012    2    1    2    0    0 -0.23673163418E+02 -0.47489948433E+01 -0.32713816227E+02  0.50528863384E+02  0.30000010741E+02 0.  0.
         12    1    1    2    0    0  0.23673163418E+02  0.47489948433E+01  0.32713816227E+02  0.40659136616E+02  0.00000000000E+00 0. -1.
         11    1    3    3    0    0 -0.65863692651E+01  0.21395461470E+00 -0.11990162070E+02  0.13681740510E+02  0.51100000000E-03 0.  1.
        -11    1    3    3    0    0  0.11918146531E+01 -0.11070429644E+02 -0.87196568785E+01  0.14142391983E+02  0.51100000000E-03 0. -1.
        -12    1    3    3    0    0 -0.18278608806E+02  0.61074801862E+01 -0.12003997279E+02  0.22704730890E+02  0.00000000000E+00 0.  1.
</event>
<event>
 7    1  0.2973028E-011  0.5052887E+02  0.7816164E-02  0.1300439E+00
        -11   -1    0    0    0    0  0.00000000000E+00  0.00000000000E+00  0.45593999997E+02  0.45594000000E+02  0.51100000000E-03 0.  1.
         11   -1    0    0    0    0 -0.00000000000E+00 -0.00000000000E+00 -0.45593999997E+02  0.45594000000E+02  0.51100000000E-03 0. -1.
    9900012    2    1    2    0    0  0.35006836773E+02  0.13364784220E+02  0.15781900839E+02  0.50528874675E+02  0.30000045063E+02 0.  0.
         12    1    1    2    0    0 -0.35006836773E+02 -0.13364784220E+02 -0.15781900839E+02  0.40659125325E+02  0.00000000000E+00 0. -1.
         11    1    3    3    0    0  0.16426007626E+02  0.17790546578E+02 -0.66900724845E+00  0.24223229451E+02  0.51100000000E-03 0. -1.
        -11    1    3    3    0    0  0.87144986626E+01 -0.40668252985E+01  0.40000043019E+01  0.10415449564E+02  0.51100000000E-03 0.  1.
         12    1    3    3    0    0  0.98663304839E+01 -0.35893706012E+00  0.12450903785E+02  0.15890195660E+02  0.00000000000E+00 0. -1.
</event>
<event>
 7    1  0.2973028E-011  0.5052886E+02  0.7816164E-02  0.1300439E+00
        -11   -1    0    0    0    0  0.00000000000E+00  0.00000000000E+00  0.45593999997E+02  0.45594000000E+02  0.51100000000E-03 0.  1.
         11   -1    0    0    0    0 -0.00000000000E+00 -0.00000000000E+00 -0.45593999997E+02  0.45594000000E+02  0.51100000000E-03 0. -1.
    9900012    2    1    2    0    0  0.21709707446E+02  0.32796003610E+02 -0.10309064750E+02  0.50528855073E+02  0.29999985478E+02 0.  0.
         12    1    1    2    0    0 -0.21709707446E+02 -0.32796003610E+02  0.10309064750E+02  0.40659144927E+02  0.00000000000E+00 0. -1.
         11    1    3    3    0    0  0.26016232050E+02  0.21958591321E+02 -0.60527337248E+01  0.34578311825E+02  0.51100000000E-03 0. -1.
        -11    1    3    3    0    0  0.22171089892E+01  0.14260531676E+01  0.16050864860E+01  0.30863413284E+01  0.51100000000E-03 0.  1.
         12    1    3    3    0    0 -0.65236335927E+01  0.94113591222E+01 -0.58614175114E+01  0.12864201919E+02  0.00000000000E+00 0. -1.
</event>
<event>
 7    1  0.2973028E-011  0.5052886E+02  0.7816164E-02  0.1300439E+00
        -11   -1    0    0    0    0  0.00000000000E+00  0.00000000000E+00  0.45593999997E+02  0.45594000000E+02  0.51100000000E-03 0.  1.
         11   -1    0    0    0    0 -0.00000000000E+00 -0.00000000000E+00 -0.45593999997E+02  0.45594000000E+02  0.51100000000E-03 0. -1.
    9900012    2    1    2    0    0  0.32263494479E+02 -0.14726838713E+02  0.19883472810E+02  0.50528863936E+02  0.30000012420E+02 0.  0.
         12    1    1    2    0    0 -0.32263494479E+02  0.14726838713E+02 -0.19883472810E+02  0.40659136064E+02  0.00000000000E+00 0. -1.
         11    1    3    3    0    0  0.20967032851E+02 -0.17594258731E+01  0.13696142870E+02  0.25105704048E+02  0.51100000000E-03 0. -1.
        -11    1    3    3    0    0  0.12634762070E+02 -0.39220699161E+01 -0.17119164158E+01  0.13339808959E+02  0.51100000000E-03 0.  1.
         12    1    3    3    0    0 -0.13383004418E+01 -0.90453429241E+01  0.78992463556E+01  0.12083350929E+02  0.00000000000E+00 0. -1.
</event>
<event>
 7    1  0.2973028E-011  0.5052888E+02  0.7816164E-02  0.1300439E+00
        -11   -1    0    0    0    0  0.00000000000E+00  0.00000000000E+00  0.45593999997E+02  0.45594000000E+02  0.51100000000E-03 0. -1.
         11   -1    0    0    0    0 -0.00000000000E+00 -0.00000000000E+00 -0.45593999997E+02  0.45594000000E+02  0.51100000000E-03 0.  1.
    9900012    2    1    2    0    0 -0.18342264301E+02  0.25957487938E+02 -0.25356144764E+02  0.50528881502E+02  0.30000065814E+02 0.  0.
         12    1    1    2    0    0  0.18342264301E+02 -0.25957487938E+02  0.25356144764E+02  0.40659118498E+02  0.00000000000E+00 0. -1.
         11    1    3    3    0    0  0.21295004675E+01  0.83811189171E+01 -0.79314515959E+01  0.11733961446E+02  0.51100000000E-03 0.  1.
        -11    1    3    3    0    0 -0.11366063257E+02  0.75614875074E+01  0.32971553968E+01  0.14044027957E+02  0.51100000000E-03 0. -1.
        -12    1    3    3    0    0 -0.91057015111E+01  0.10014881514E+02 -0.20721848565E+02  0.24750892099E+02  0.00000000000E+00 0.  1.
</event>
<event>
 7    1  0.2973028E-011  0.5052886E+02  0.7816164E-02  0.1300439E+00
        -11   -1    0    0    0    0  0.00000000000E+00  0.00000000000E+00  0.45593999997E+02  0.45594000000E+02  0.51100000000E-03 0.  1.
         11   -1    0    0    0    0 -0.00000000000E+00 -0.00000000000E+00 -0.45593999997E+02  0.45594000000E+02  0.51100000000E-03 0. -1.
    9900012    2    1    2    0    0  0.15544172223E+01 -0.23622678979E+02  0.33056287607E+02  0.50528864183E+02  0.30000013170E+02 0.  0.
         12    1    1    2    0    0 -0.15544172223E+01  0.23622678979E+02 -0.33056287607E+02  0.40659135817E+02  0.00000000000E+00 0. -1.
         11    1    3    3    0    0  0.29968006606E+01 -0.21698450377E+02  0.11702925342E+02  0.24834693974E+02  0.51100000000E-03 0. -1.
        -11    1    3    3    0    0  0.14509264088E+01 -0.45994963229E+01  0.21209507995E+02  0.21750949026E+02  0.51100000000E-03 0.  1.
         12    1    3    3    0    0 -0.28933098471E+01  0.26752677204E+01  0.14385426935E+00  0.39432211829E+01  0.00000000000E+00 0. -1.
</event>
<event>
 7    1  0.2973028E-011  0.5052886E+02  0.7816164E-02  0.1300439E+00
        -11   -1    0    0    0    0  0.00000000000E+00  0.00000000000E+00  0.45593999997E+02  0.45594000000E+02  0.51100000000E-03 0.  1.
         11   -1    0    0    0    0 -0.00000000000E+00 -0.00000000000E+00 -0.45593999997E+02  0.45594000000E+02  0.51100000000E-03 0. -1.
    9900012    2    1    2    0    0  0.18972574795E+02 -0.22604844013E+02  0.27968337710E+02  0.50528862264E+02  0.30000007337E+02 0.  0.
         12    1    1    2    0    0 -0.18972574795E+02  0.22604844013E+02 -0.27968337710E+02  0.40659137736E+02  0.00000000000E+00 0. -1.
         11    1    3    3    0    0  0.56305258213E+01 -0.10086413593E+02  0.97553157990E+01  0.15119680777E+02  0.51100000000E-03 0. -1.
        -11    1    3    3    0    0  0.18960346041E+02 -0.29150097165E+01  0.10474839993E+02  0.21856675795E+02  0.51100000000E-03 0.  1.
        -12    1    3    3    0    0 -0.56182970678E+01 -0.96034207037E+01  0.77381819178E+01  0.13552505693E+02  0.00000000000E+00 0.  1.
</event>
<event>
 7    1  0.2973028E-011  0.5052886E+02  0.7816164E-02  0.1300439E+00
        -11   -1    0    0    0    0  0.00000000000E+00  0.00000000000E+00  0.45593999997E+02  0.45594000000E+02  0.51100000000E-03 0.  1.
         11   -1    0    0    0    0 -0.00000000000E+00 -0.00000000000E+00 -0.45593999997E+02  0.45594000000E+02  0.51100000000E-03 0. -1.
    9900012    2    1    2    0    0 -0.80658001821E+01  0.10111187001E+02  0.38547014026E+02  0.50528861723E+02  0.30000005692E+02 0.  0.
         12    1    1    2    0    0  0.80658001821E+01 -0.10111187001E+02 -0.38547014026E+02  0.40659138277E+02  0.00000000000E+00 0. -1.
         11    1    3    3    0    0  0.92265311724E+01  0.54334000537E+01  0.10385232168E+02  0.14916559961E+02  0.51100000000E-03 0. -1.
        -11    1    3    3    0    0 -0.43816148654E+01  0.68585073144E+01  0.14887939142E+02  0.16967274489E+02  0.51100000000E-03 0.  1.
         12    1    3    3    0    0 -0.12910716489E+02 -0.21807203674E+01  0.13273842715E+02  0.18645027273E+02  0.00000000000E+00 0. -1.
</event>
<event>
 7    1  0.2973028E-011  0.5052885E+02  0.7816164E-02  0.1300439E+00
        -11   -1    0    0    0    0  0.00000000000E+00  0.00000000000E+00  0.45593999997E+02  0.45594000000E+02  0.51100000000E-03 0. -1.
         11   -1    0    0    0    0 -0.00000000000E+00 -0.00000000000E+00 -0.45593999997E+02  0.45594000000E+02  0.51100000000E-03 0.  1.
    9900012    2    1    2    0    0 -0.25214743922E+02  0.12276919367E+02 -0.29439093808E+02  0.50528852143E+02  0.29999976574E+02 0.  0.
         12    1    1    2    0    0  0.25214743922E+02 -0.12276919367E+02  0.29439093808E+02  0.40659147857E+02  0.00000000000E+00 0. -1.
         11    1    3    3    0    0 -0.17428920211E+02  0.48847463018E+01 -0.25246448715E+02  0.31064629068E+02  0.51100000000E-03 0.  1.
        -11    1    3    3    0    0  0.45593305140E+01  0.61916634678E+00  0.48468931201E+00  0.46266387034E+01  0.51100000000E-03 0. -1.
         12    1    3    3    0    0 -0.12345154225E+02  0.67730067182E+01 -0.46773344054E+01  0.14837584372E+02  0.00000000000E+00 0. -1.
</event>
<event>
 7    1  0.2973028E-011  0.5052885E+02  0.7816164E-02  0.1300439E+00
        -11   -1    0    0    0    0  0.00000000000E+00  0.00000000000E+00  0.45593999997E+02  0.45594000000E+02  0.51100000000E-03 0.  1.
         11   -1    0    0    0    0 -0.00000000000E+00 -0.00000000000E+00 -0.45593999997E+02  0.45594000000E+02  0.51100000000E-03 0. -1.
    9900012    2    1    2    0    0  0.19437415932E+02  0.33615593204E+02  0.12055906559E+02  0.50528854319E+02  0.29999983187E+02 0.  0.
         12    1    1    2    0    0 -0.19437415932E+02 -0.33615593204E+02 -0.12055906559E+02  0.40659145681E+02  0.00000000000E+00 0. -1.
         11    1    3    3    0    0  0.13070242672E+02  0.20001597117E+01  0.42278552527E+01  0.13881881813E+02  0.51100000000E-03 0. -1.
        -11    1    3    3    0    0 -0.65578274678E-01  0.21511612543E+02  0.11132654891E+02  0.24221679956E+02  0.51100000000E-03 0.  1.
         12    1    3    3    0    0  0.64327515342E+01  0.10103820949E+02 -0.33046035849E+01  0.12425292549E+02  0.00000000000E+00 0. -1.
</event>
<event>
 7    1  0.2973028E-011  0.5052886E+02  0.7816164E-02  0.1300439E+00
        -11   -1    0    0    0    0  0.00000000000E+00  0.00000000000E+00  0.45593999997E+02  0.45594000000E+02  0.51100000000E-03 0.  1.
         11   -1    0    0    0    0 -0.00000000000E+00 -0.00000000000E+00 -0.45593999997E+02  0.45594000000E+02  0.51100000000E-03 0. -1.
    9900012    2    1    2    0    0  0.10022795499E+02 -0.19243094620E+02  0.34386221280E+02  0.50528864076E+02  0.30000012845E+02 0.  0.
         12    1    1    2    0    0 -0.10022795499E+02  0.19243094620E+02 -0.34386221280E+02  0.40659135924E+02  0.00000000000E+00 0. -1.
         11    1    3    3    0    0  0.75135440528E+01 -0.63985939355E+01  0.64518253945E+01  0.11790733640E+02  0.51100000000E-03 0. -1.
        -11    1    3    3    0    0 -0.16380290722E+01  0.66785216834E+01  0.68867367051E+01  0.97320570191E+01  0.51100000000E-03 0.  1.
        -12    1    3    3    0    0  0.41472805180E+01 -0.19523022368E+02  0.21047659180E+02  0.29006073417E+02  0.00000000000E+00 0.  1.
</event>
<event>
 7    1  0.2973028E-011  0.5052886E+02  0.7816164E-02  0.1300439E+00
        -11   -1    0    0    0    0  0.00000000000E+00  0.00000000000E+00  0.45593999997E+02  0.45594000000E+02  0.51100000000E-03 0.  1.
         11   -1    0    0    0    0 -0.00000000000E+00 -0.00000000000E+00 -0.45593999997E+02  0.45594000000E+02  0.51100000000E-03 0. -1.
    9900012    2    1    2    0    0  0.20084766937E+02 -0.30819629715E+02  0.17318155660E+02  0.50528856451E+02  0.29999989668E+02 0.  0.
         12    1    1    2    0    0 -0.20084766937E+02  0.30819629715E+02 -0.17318155660E+02  0.40659143549E+02  0.00000000000E+00 0. -1.
         11    1    3    3    0    0 -0.67368189247E+01 -0.14402000076E+02  0.47512872038E+01  0.16594489018E+02  0.51100000000E-03 0. -1.
        -11    1    3    3    0    0  0.18268289184E+02 -0.12113921165E+02  0.80978031787E+01  0.23367753257E+02  0.51100000000E-03 0.  1.
         12    1    3    3    0    0  0.85532966771E+01 -0.43037084743E+01  0.44690652776E+01  0.10566614176E+02  0.00000000000E+00 0. -1.
</event>
<event>
 7    1  0.2973028E-011  0.5052887E+02  0.7816164E-02  0.1300439E+00
        -11   -1    0    0    0    0  0.00000000000E+00  0.00000000000E+00  0.45593999997E+02  0.45594000000E+02  0.51100000000E-03 0.  1.
         11   -1    0    0    0    0 -0.00000000000E+00 -0.00000000000E+00 -0.45593999997E+02  0.45594000000E+02  0.51100000000E-03 0. -1.
    9900012    2    1    2    0    0 -0.24280813090E+02  0.19228983943E+02 -0.26341096266E+02  0.50528867443E+02  0.30000023079E+02 0.  0.
         12    1    1    2    0    0  0.24280813090E+02 -0.19228983943E+02  0.26341096266E+02  0.40659132557E+02  0.00000000000E+00 0. -1.
         11    1    3    3    0    0 -0.27453956157E+01  0.11561304049E+02 -0.32121847975E+01  0.12309308666E+02  0.51100000000E-03 0. -1.
        -11    1    3    3    0    0 -0.23213227165E+02  0.44552489487E+01 -0.11986262589E+02  0.26502332911E+02  0.51100000000E-03 0.  1.
        -12    1    3    3    0    0  0.16778096908E+01  0.32124309457E+01 -0.11142648880E+02  0.11717225866E+02  0.00000000000E+00 0.  1.
</event>
<event>
 7    1  0.2973028E-011  0.5052887E+02  0.7816164E-02  0.1300439E+00
        -11   -1    0    0    0    0  0.00000000000E+00  0.00000000000E+00  0.45593999997E+02  0.45594000000E+02  0.51100000000E-03 0.  1.
         11   -1    0    0    0    0 -0.00000000000E+00 -0.00000000000E+00 -0.45593999997E+02  0.45594000000E+02  0.51100000000E-03 0. -1.
    9900012    2    1    2    0    0 -0.39839865706E+02 -0.16301908445E+01 -0.79556703335E+01  0.50528866806E+02  0.30000021143E+02 0.  0.
         12    1    1    2    0    0  0.39839865706E+02  0.16301908445E+01  0.79556703335E+01  0.40659133194E+02  0.00000000000E+00 0. -1.
         11    1    3    3    0    0 -0.34425094299E+01 -0.30933820417E+01 -0.88734632234E+01  0.10007908546E+02  0.51100000000E-03 0. -1.
        -11    1    3    3    0    0 -0.26034301052E+02 -0.63021337744E+01  0.43188051777E+01  0.27132154352E+02  0.51100000000E-03 0.  1.
        -12    1    3    3    0    0 -0.10363055224E+02  0.77653249715E+01 -0.34010122878E+01  0.13388803908E+02  0.00000000000E+00 0.  1.
</event>
<event>
 7    1  0.2973028E-011  0.5052887E+02  0.7816164E-02  0.1300439E+00
        -11   -1    0    0    0    0  0.00000000000E+00  0.00000000000E+00  0.45593999997E+02  0.45594000000E+02  0.51100000000E-03 0.  1.
         11   -1    0    0    0    0 -0.00000000000E+00 -0.00000000000E+00 -0.45593999997E+02  0.45594000000E+02  0.51100000000E-03 0. -1.
    9900012    2    1    2    0    0  0.39726116414E+02  0.52937148651E+01  0.68540068957E+01  0.50528866304E+02  0.30000019617E+02 0.  0.
         12    1    1    2    0    0 -0.39726116414E+02 -0.52937148651E+01 -0.68540068957E+01  0.40659133696E+02  0.00000000000E+00 0. -1.
         11    1    3    3    0    0  0.26775802282E+02  0.34559254854E+01 -0.19174310551E+01  0.27065911234E+02  0.51100000000E-03 0. -1.
        -11    1    3    3    0    0  0.34943575580E+01  0.26123552389E+01  0.12522466685E+02  0.13260735529E+02  0.51100000000E-03 0.  1.
        -12    1    3    3    0    0  0.94559565741E+01 -0.77456585914E+00 -0.37510287342E+01  0.10202219541E+02  0.00000000000E+00 0.  1.
</event>
<event>
 7    1  0.2973028E-011  0.5052886E+02  0.7816164E-02  0.1300439E+00
        -11   -1    0    0    0    0  0.00000000000E+00  0.00000000000E+00  0.45593999997E+02  0.45594000000E+02  0.51100000000E-03 0.  1.
         11   -1    0    0    0    0 -0.00000000000E+00 -0.00000000000E+00 -0.45593999997E+02  0.45594000000E+02  0.51100000000E-03 0. -1.
    9900012    2    1    2    0    0  0.40564693775E+02  0.11440877640E+01 -0.25223857002E+01  0.50528858992E+02  0.29999997392E+02 0.  0.
         12    1    1    2    0    0 -0.40564693775E+02 -0.11440877640E+01  0.25223857002E+01  0.40659141008E+02  0.00000000000E+00 0. -1.
         11    1    3    3    0    0  0.14344211464E+02 -0.65349220243E+01 -0.24216820238E+00  0.15764525178E+02  0.51100000000E-03 0. -1.
        -11    1    3    3    0    0  0.14865391153E+02  0.94396919561E+01 -0.10622028559E+02  0.20564900421E+02  0.51100000000E-03 0.  1.
        -12    1    3    3    0    0  0.11355091158E+02 -0.17606821677E+01  0.83418110611E+01  0.14199433393E+02  0.00000000000E+00 0.  1.
</event>
<event>
 7    1  0.2973028E-011  0.5052886E+02  0.7816164E-02  0.1300439E+00
        -11   -1    0    0    0    0  0.00000000000E+00  0.00000000000E+00  0.45593999997E+02  0.45594000000E+02  0.51100000000E-03 0. -1.
         11   -1    0    0    0    0 -0.00000000000E+00 -0.00000000000E+00 -0.45593999997E+02  0.45594000000E+02  0.51100000000E-03 0.  1.
    9900012    2    1    2    0    0  0.10123806887E+02 -0.32692411427E+02 -0.21951781493E+02  0.50528856606E+02  0.29999990141E+02 0.  0.
         12    1    1    2    0    0 -0.10123806887E+02  0.32692411427E+02  0.21951781493E+02  0.40659143394E+02  0.00000000000E+00 0. -1.
         11    1    3    3    0    0  0.76306747091E+01 -0.13591834859E+01 -0.96907024137E+01  0.12409040648E+02  0.51100000000E-03 0.  1.
        -11    1    3    3    0    0 -0.62901858572E+01 -0.19720913696E+02 -0.11164416051E+02  0.23518610952E+02  0.51100000000E-03 0. -1.
         12    1    3    3    0    0  0.87833180347E+01 -0.11612314246E+02 -0.10966630277E+01  0.14601205006E+02  0.00000000000E+00 0. -1.
</event>
<event>
 7    1  0.2973028E-011  0.5052889E+02  0.7816164E-02  0.1300439E+00
        -11   -1    0    0    0    0  0.00000000000E+00  0.00000000000E+00  0.45593999997E+02  0.45594000000E+02  0.51100000000E-03 0.  1.
         11   -1    0    0    0    0 -0.00000000000E+00 -0.00000000000E+00 -0.45593999997E+02  0.45594000000E+02  0.51100000000E-03 0. -1.
    9900012    2    1    2    0    0  0.14455481614E+02 -0.52398351560E+01  0.37639695989E+02  0.50528886196E+02  0.30000080083E+02 0.  0.
         12    1    1    2    0    0 -0.14455481614E+02  0.52398351560E+01 -0.37639695989E+02  0.40659113804E+02  0.00000000000E+00 0. -1.
         11    1    3    3    0    0 -0.65354663480E+00  0.11579826721E+01 -0.37587959434E+01  0.39870533327E+01  0.51100000000E-03 0. -1.
        -11    1    3    3    0    0  0.10963983138E+02 -0.10674156393E+02  0.30436374917E+02  0.34066397804E+02  0.51100000000E-03 0.  1.
         12    1    3    3    0    0  0.41450451107E+01  0.42763385645E+01  0.10962117015E+02  0.12475435060E+02  0.00000000000E+00 0. -1.
</event>
<event>
 7    1  0.2973028E-011  0.5052886E+02  0.7816164E-02  0.1300439E+00
        -11   -1    0    0    0    0  0.00000000000E+00  0.00000000000E+00  0.45593999997E+02  0.45594000000E+02  0.51100000000E-03 0. -1.
         11   -1    0    0    0    0 -0.00000000000E+00 -0.00000000000E+00 -0.45593999997E+02  0.45594000000E+02  0.51100000000E-03 0.  1.
    9900012    2    1    2    0    0  0.14329598143E+02  0.37856423971E+02 -0.38366067150E+01  0.50528858717E+02  0.29999996556E+02 0.  0.
         12    1    1    2    0    0 -0.14329598143E+02 -0.37856423971E+02  0.38366067150E+01  0.40659141283E+02  0.00000000000E+00 0. -1.
         11    1    3    3    0    0  0.95481643730E+01  0.28947006087E+02  0.89511440015E+01  0.31768216561E+02  0.51100000000E-03 0. -1.
        -11    1    3    3    0    0  0.33601099881E+01  0.10178558793E+02 -0.12993451723E+02  0.16844084605E+02  0.51100000000E-03 0.  1.
         12    1    3    3    0    0  0.14213237820E+01 -0.12691409093E+01  0.20570100626E+00  0.19165575507E+01  0.00000000000E+00 0. -1.
</event>
<event>
 7    1  0.2973028E-011  0.5052894E+02  0.7816164E-02  0.1300439E+00
        -11   -1    0    0    0    0  0.00000000000E+00  0.00000000000E+00  0.45593999997E+02  0.45594000000E+02  0.51100000000E-03 0.  1.
         11   -1    0    0    0    0 -0.00000000000E+00 -0.00000000000E+00 -0.45593999997E+02  0.45594000000E+02  0.51100000000E-03 0. -1.
    9900012    2    1    2    0    0 -0.54094660360E+00 -0.25540139147E+02  0.31631757724E+02  0.50528936711E+02  0.30000233625E+02 0.  0.
         12    1    1    2    0    0  0.54094660360E+00  0.25540139147E+02 -0.31631757724E+02  0.40659063289E+02  0.00000000000E+00 0. -1.
         11    1    3    3    0    0  0.31763733333E+01 -0.72924067060E+00 -0.11100588756E+01  0.34428724165E+01  0.51100000000E-03 0. -1.
        -11    1    3    3    0    0 -0.29789827685E+01 -0.28989983227E+02  0.25657217967E+02  0.38827648653E+02  0.51100000000E-03 0.  1.
        -12    1    3    3    0    0 -0.73833716832E+00  0.41790847510E+01  0.70845986319E+01  0.82584156413E+01  0.00000000000E+00 0.  1.
</event>
<event>
 7    1  0.2973028E-011  0.5052886E+02  0.7816164E-02  0.1300439E+00
        -11   -1    0    0    0    0  0.00000000000E+00  0.00000000000E+00  0.45593999997E+02  0.45594000000E+02  0.51100000000E-03 0.  1.
         11   -1    0    0    0    0 -0.00000000000E+00 -0.00000000000E+00 -0.45593999997E+02  0.45594000000E+02  0.51100000000E-03 0. -1.
    9900012    2    1    2    0    0 -0.32642128525E+02 -0.41330493767E+00  0.24238110805E+02  0.50528863376E+02  0.30000010718E+02 0.  0.
         12    1    1    2    0    0  0.32642128525E+02  0.41330493767E+00 -0.24238110805E+02  0.40659136624E+02  0.00000000000E+00 0. -1.
         11    1    3    3    0    0  0.25355742796E+01 -0.32648612082E+01  0.10384633987E+02  0.11177167752E+02  0.51100000000E-03 0. -1.
        -11    1    3    3    0    0 -0.25005246726E+02  0.84879705265E+00  0.14581133696E+02  0.28958457838E+02  0.51100000000E-03 0.  1.
         12    1    3    3    0    0 -0.10172456078E+02  0.20027592178E+01 -0.72765687776E+00  0.10393237786E+02  0.00000000000E+00 0. -1.
</event>
<event>
 7    1  0.2973028E-011  0.5052886E+02  0.7816164E-02  0.1300439E+00
        -11   -1    0    0    0    0  0.00000000000E+00  0.00000000000E+00  0.45593999997E+02  0.45594000000E+02  0.51100000000E-03 0.  1.
         11   -1    0    0    0    0 -0.00000000000E+00 -0.00000000000E+00 -0.45593999997E+02  0.45594000000E+02  0.51100000000E-03 0. -1.
    9900012    2    1    2    0    0 -0.31882126518E+02 -0.33900642113E+01  0.25004055567E+02  0.50528864231E+02  0.30000013316E+02 0.  0.
         12    1    1    2    0    0  0.31882126518E+02  0.33900642113E+01 -0.25004055567E+02  0.40659135769E+02  0.00000000000E+00 0. -1.
         11    1    3    3    0    0 -0.18412884642E+02 -0.11521329957E+02  0.24393089973E+01  0.21856934677E+02  0.51100000000E-03 0. -1.
        -11    1    3    3    0    0 -0.51375010055E+01  0.55274853245E+01  0.16191796947E+02  0.17863966503E+02  0.51100000000E-03 0.  1.
         12    1    3    3    0    0 -0.83317408707E+01  0.26037804207E+01  0.63729496224E+01  0.10807963051E+02  0.00000000000E+00 0. -1.
</event>
<event>
 7    1  0.2973028E-011  0.5052883E+02  0.7816164E-02  0.1300439E+00
        -11   -1    0    0    0    0  0.00000000000E+00  0.00000000000E+00  0.45593999997E+02  0.45594000000E+02  0.51100000000E-03 0.  1.
         11   -1    0    0    0    0 -0.00000000000E+00 -0.00000000000E+00 -0.45593999997E+02  0.45594000000E+02  0.51100000000E-03 0. -1.
    9900012    2    1    2    0    0  0.97558487175E+01  0.13783546667E+02  0.36986553636E+02  0.50528832611E+02  0.29999917204E+02 0.  0.
         12    1    1    2    0    0 -0.97558487175E+01 -0.13783546667E+02 -0.36986553636E+02  0.40659167389E+02  0.00000000000E+00 0. -1.
         11    1    3    3    0    0 -0.30454069014E+01  0.65045807069E-01  0.19421675663E+02  0.19659100182E+02  0.51100000000E-03 0. -1.
        -11    1    3    3    0    0  0.13510128269E+02  0.29197678145E+01  0.61131240562E+01  0.15113533535E+02  0.51100000000E-03 0.  1.
        -12    1    3    3    0    0 -0.70887264967E+00  0.10798733046E+02  0.11451753917E+02  0.15756198894E+02  0.00000000000E+00 0.  1.
</event>
<event>
 7    1  0.2973028E-011  0.5052886E+02  0.7816164E-02  0.1300439E+00
        -11   -1    0    0    0    0  0.00000000000E+00  0.00000000000E+00  0.45593999997E+02  0.45594000000E+02  0.51100000000E-03 0.  1.
         11   -1    0    0    0    0 -0.00000000000E+00 -0.00000000000E+00 -0.45593999997E+02  0.45594000000E+02  0.51100000000E-03 0. -1.
    9900012    2    1    2    0    0 -0.14491597598E+02  0.23598420980E+02  0.29770345909E+02  0.50528863644E+02  0.30000011531E+02 0.  0.
         12    1    1    2    0    0  0.14491597598E+02 -0.23598420980E+02 -0.29770345909E+02  0.40659136356E+02  0.00000000000E+00 0. -1.
         11    1    3    3    0    0  0.15694144120E+01  0.62051285108E+01 -0.11289474407E+01  0.64993233507E+01  0.51100000000E-03 0. -1.
        -11    1    3    3    0    0 -0.11792052318E+02  0.21688600300E+02  0.27957176110E+02  0.37296803846E+02  0.51100000000E-03 0.  1.
         12    1    3    3    0    0 -0.42689596916E+01 -0.42953078305E+01  0.29421172403E+01  0.67327364469E+01  0.00000000000E+00 0. -1.
</event>
<event>
 7    1  0.2973028E-011  0.5052886E+02  0.7816164E-02  0.1300439E+00
        -11   -1    0    0    0    0  0.00000000000E+00  0.00000000000E+00  0.45593999997E+02  0.45594000000E+02  0.51100000000E-03 0. -1.
         11   -1    0    0    0    0 -0.00000000000E+00 -0.00000000000E+00 -0.45593999997E+02  0.45594000000E+02  0.51100000000E-03 0.  1.
    9900012    2    1    2    0    0  0.30146408700E+02  0.27282940871E+02 -0.22198234708E-01  0.50528864337E+02  0.30000013638E+02 0.  0.
         12    1    1    2    0    0 -0.30146408700E+02 -0.27282940871E+02  0.22198234708E-01  0.40659135663E+02  0.00000000000E+00 0. -1.
         11    1    3    3    0    0  0.18070456354E+02  0.19447666643E+02  0.48776996649E+00  0.26551667566E+02  0.51100000000E-03 0.  1.
        -11    1    3    3    0    0 -0.77293107918E+00 -0.50147143837E+01  0.23324972048E+01  0.55843823539E+01  0.51100000000E-03 0. -1.
         12    1    3    3    0    0  0.12848883425E+02  0.12849988612E+02 -0.28424654060E+01  0.18392814417E+02  0.00000000000E+00 0. -1.
</event>
<event>
 7    1  0.2973028E-011  0.5052886E+02  0.7816164E-02  0.1300439E+00
        -11   -1    0    0    0    0  0.00000000000E+00  0.00000000000E+00  0.45593999997E+02  0.45594000000E+02  0.51100000000E-03 0. -1.
         11   -1    0    0    0    0 -0.00000000000E+00 -0.00000000000E+00 -0.45593999997E+02  0.45594000000E+02  0.51100000000E-03 0.  1.
    9900012    2    1    2    0    0  0.12709936526E+01 -0.38809516846E+02  0.12057023991E+02  0.50528857729E+02  0.29999993553E+02 0.  0.
         12    1    1    2    0    0 -0.12709936526E+01  0.38809516846E+02 -0.12057023991E+02  0.40659142271E+02  0.00000000000E+00 0. -1.
         11    1    3    3    0    0  0.82043372711E+01 -0.65173012847E+01  0.82654643538E+01  0.13345571076E+02  0.51100000000E-03 0. -1.
        -11    1    3    3    0    0 -0.50099736140E+01 -0.12678513037E+02 -0.63276089700E+01  0.15029409968E+02  0.51100000000E-03 0.  1.
        -12    1    3    3    0    0 -0.19233700045E+01 -0.19613702524E+02  0.10119168607E+02  0.22153876685E+02  0.00000000000E+00 0.  1.
</event>
<event>
 7    1  0.2973028E-011  0.5052886E+02  0.7816164E-02  0.1300439E+00
        -11   -1    0    0    0    0  0.00000000000E+00  0.00000000000E+00  0.45593999997E+02  0.45594000000E+02  0.51100000000E-03 0.  1.
         11   -1    0    0    0    0 -0.00000000000E+00 -0.00000000000E+00 -0.45593999997E+02  0.45594000000E+02  0.51100000000E-03 0. -1.
    9900012    2    1    2    0    0  0.23976099579E+02  0.26756156295E+02  0.19037341797E+02  0.50528860395E+02  0.30000001658E+02 0.  0.
         12    1    1    2    0    0 -0.23976099579E+02 -0.26756156295E+02 -0.19037341797E+02  0.40659139605E+02  0.00000000000E+00 0. -1.
         11    1    3    3    0    0  0.59627784054E+01  0.19423735936E+02  0.67972031342E+01  0.21425177122E+02  0.51100000000E-03 0. -1.
        -11    1    3    3    0    0  0.16029043355E+02 -0.24092238292E+01  0.56033712831E+01  0.17150287471E+02  0.51100000000E-03 0.  1.
        -12    1    3    3    0    0  0.19842778183E+01  0.97416441883E+01  0.66367673794E+01  0.11953395802E+02  0.00000000000E+00 0.  1.
</event>
<event>
 7    1  0.2973028E-011  0.5052886E+02  0.7816164E-02  0.1300439E+00
        -11   -1    0    0    0    0  0.00000000000E+00  0.00000000000E+00  0.45593999997E+02  0.45594000000E+02  0.51100000000E-03 0. -1.
         11   -1    0    0    0    0 -0.00000000000E+00 -0.00000000000E+00 -0.45593999997E+02  0.45594000000E+02  0.51100000000E-03 0.  1.
    9900012    2    1    2    0    0 -0.16627988362E+02  0.81761067712E+01 -0.36191529331E+02  0.50528861861E+02  0.30000006111E+02 0.  0.
         12    1    1    2    0    0  0.16627988362E+02 -0.81761067712E+01  0.36191529331E+02  0.40659138139E+02  0.00000000000E+00 0. -1.
         11    1    3    3    0    0 -0.92027106816E+01 -0.91517855046E+01 -0.59007870248E+01  0.14257080682E+02  0.51100000000E-03 0. -1.
        -11    1    3    3    0    0 -0.44495886625E+01  0.35649773869E+01 -0.10984868407E+02  0.12376398394E+02  0.51100000000E-03 0.  1.
         12    1    3    3    0    0 -0.29756890183E+01  0.13762914889E+02 -0.19305873900E+02  0.23895382784E+02  0.00000000000E+00 0. -1.
</event>
<event>
 7    1  0.2973028E-011  0.5052886E+02  0.7816164E-02  0.1300439E+00
        -11   -1    0    0    0    0  0.00000000000E+00  0.00000000000E+00  0.45593999997E+02  0.45594000000E+02  0.51100000000E-03 0.  1.
         11   -1    0    0    0    0 -0.00000000000E+00 -0.00000000000E+00 -0.45593999997E+02  0.45594000000E+02  0.51100000000E-03 0. -1.
    9900012    2    1    2    0    0  0.42406513919E+01 -0.12893797708E+02  0.38326656021E+02  0.50528859511E+02  0.29999998969E+02 0.  0.
         12    1    1    2    0    0 -0.42406513919E+01  0.12893797708E+02 -0.38326656021E+02  0.40659140489E+02  0.00000000000E+00 0. -1.
         11    1    3    3    0    0 -0.14345798122E+01 -0.12470670244E+02  0.39201193318E+02  0.41161987238E+02  0.51100000000E-03 0. -1.
        -11    1    3    3    0    0  0.60421482646E+01  0.11980314883E+01 -0.28483249464E+01  0.67864416567E+01  0.51100000000E-03 0.  1.
        -12    1    3    3    0    0 -0.36691706056E+00 -0.16211589521E+01  0.19737876493E+01  0.25804306156E+01  0.00000000000E+00 0.  1.
</event>
<event>
 7    1  0.2973028E-011  0.5052886E+02  0.7816164E-02  0.1300439E+00
        -11   -1    0    0    0    0  0.00000000000E+00  0.00000000000E+00  0.45593999997E+02  0.45594000000E+02  0.51100000000E-03 0.  1.
         11   -1    0    0    0    0 -0.00000000000E+00 -0.00000000000E+00 -0.45593999997E+02  0.45594000000E+02  0.51100000000E-03 0. -1.
    9900012    2    1    2    0    0  0.35656505446E+02  0.18910054558E+02  0.49182591444E+01  0.50528858138E+02  0.29999994795E+02 0.  0.
         12    1    1    2    0    0 -0.35656505446E+02 -0.18910054558E+02 -0.49182591444E+01  0.40659141862E+02  0.00000000000E+00 0. -1.
         11    1    3    3    0    0  0.62780606545E+01  0.18166603797E+02  0.21724851725E+01  0.19343195992E+02  0.51100000000E-03 0. -1.
        -11    1    3    3    0    0  0.14949918565E+02  0.92842971937E+00 -0.36266254867E+01  0.15411504129E+02  0.51100000000E-03 0.  1.
         12    1    3    3    0    0  0.14428526226E+02 -0.18497895832E+00  0.63723994586E+01  0.15774158017E+02  0.00000000000E+00 0. -1.
</event>
<event>
 7    1  0.2973028E-011  0.5052886E+02  0.7816164E-02  0.1300439E+00
        -11   -1    0    0    0    0  0.00000000000E+00  0.00000000000E+00  0.45593999997E+02  0.45594000000E+02  0.51100000000E-03 0.  1.
         11   -1    0    0    0    0 -0.00000000000E+00 -0.00000000000E+00 -0.45593999997E+02  0.45594000000E+02  0.51100000000E-03 0. -1.
    9900012    2    1    2    0    0  0.59991048500E+01  0.88661887232E+01  0.39224572019E+02  0.50528860664E+02  0.30000002473E+02 0.  0.
         12    1    1    2    0    0 -0.59991048500E+01 -0.88661887232E+01 -0.39224572019E+02  0.40659139336E+02  0.00000000000E+00 0. -1.
         11    1    3    3    0    0  0.49591504917E+01  0.16653824718E+02  0.17206324339E+02  0.24454051788E+02  0.51100000000E-03 0. -1.
        -11    1    3    3    0    0  0.31235480377E+01 -0.89957004077E+01  0.21632468380E+02  0.23635627063E+02  0.51100000000E-03 0.  1.
         12    1    3    3    0    0 -0.20835936794E+01  0.12080644132E+01  0.38577929995E+00  0.24391818127E+01  0.00000000000E+00 0. -1.
</event>
<event>
 7    1  0.2973028E-011  0.5052887E+02  0.7816164E-02  0.1300439E+00
        -11   -1    0    0    0    0  0.00000000000E+00  0.00000000000E+00  0.45593999997E+02  0.45594000000E+02  0.51100000000E-03 0. -1.
         11   -1    0    0    0    0 -0.00000000000E+00 -0.00000000000E+00 -0.45593999997E+02  0.45594000000E+02  0.51100000000E-03 0.  1.
    9900012    2    1    2    0    0  0.17942012108E+02  0.25724197200E+02 -0.25874975262E+02  0.50528874765E+02  0.30000045335E+02 0.  0.
         12    1    1    2    0    0 -0.17942012108E+02 -0.25724197200E+02  0.25874975262E+02  0.40659125235E+02  0.00000000000E+00 0. -1.
         11    1    3    3    0    0  0.31131057206E+01  0.19669415437E+02  0.18440355158E+00  0.19915103209E+02  0.51100000000E-03 0. -1.
        -11    1    3    3    0    0  0.11615423979E+02  0.42668582577E+01 -0.20616735150E+02  0.24045247392E+02  0.51100000000E-03 0.  1.
         12    1    3    3    0    0  0.32134824091E+01  0.17879235046E+01 -0.54426436636E+01  0.65685241646E+01  0.00000000000E+00 0. -1.
</event>
<event>
 7    1  0.2973028E-011  0.5052873E+02  0.7816164E-02  0.1300439E+00
        -11   -1    0    0    0    0  0.00000000000E+00  0.00000000000E+00  0.45593999997E+02  0.45594000000E+02  0.51100000000E-03 0.  1.
         11   -1    0    0    0    0 -0.00000000000E+00 -0.00000000000E+00 -0.45593999997E+02  0.45594000000E+02  0.51100000000E-03 0. -1.
    9900012    2    1    2    0    0  0.31259351225E+02 -0.15996426855E+02  0.20497401182E+02  0.50528730868E+02  0.29999607942E+02 0.  0.
         12    1    1    2    0    0 -0.31259351225E+02  0.15996426855E+02 -0.20497401182E+02  0.40659269132E+02  0.00000000000E+00 0. -1.
         11    1    3    3    0    0 -0.51640823068E+00 -0.11696614713E+02  0.17543450984E+01  0.11838716154E+02  0.51100000000E-03 0. -1.
        -11    1    3    3    0    0  0.12119299953E+02 -0.35417169694E+01  0.13169983472E+02  0.18244715820E+02  0.51100000000E-03 0.  1.
        -12    1    3    3    0    0  0.19656459504E+02 -0.75809517331E+00  0.55730726115E+01  0.20445298893E+02  0.00000000000E+00 0.  1.
</event>
<event>
 7    1  0.2973028E-011  0.5052885E+02  0.7816164E-02  0.1300439E+00
        -11   -1    0    0    0    0  0.00000000000E+00  0.00000000000E+00  0.45593999997E+02  0.45594000000E+02  0.51100000000E-03 0. -1.
         11   -1    0    0    0    0 -0.00000000000E+00 -0.00000000000E+00 -0.45593999997E+02  0.45594000000E+02  0.51100000000E-03 0.  1.
    9900012    2    1    2    0    0 -0.32216267687E+02  0.58048897307E+01 -0.24116014030E+02  0.50528846281E+02  0.29999958756E+02 0.  0.
         12    1    1    2    0    0  0.32216267687E+02 -0.58048897307E+01  0.24116014030E+02  0.40659153719E+02  0.00000000000E+00 0. -1.
         11    1    3    3    0    0 -0.20431923008E+02  0.11345848876E+01 -0.29132022550E+02  0.35600919915E+02  0.51100000000E-03 0. -1.
        -11    1    3    3    0    0 -0.49161417729E+01  0.44908065833E+01  0.44013030128E+00  0.66730434318E+01  0.51100000000E-03 0.  1.
         12    1    3    3    0    0 -0.68682029054E+01  0.17949825988E+00  0.45758782192E+01  0.82548829339E+01  0.00000000000E+00 0. -1.
</event>
<event>
 7    1  0.2973028E-011  0.5052890E+02  0.7816164E-02  0.1300439E+00
        -11   -1    0    0    0    0  0.00000000000E+00  0.00000000000E+00  0.45593999997E+02  0.45594000000E+02  0.51100000000E-03 0.  1.
         11   -1    0    0    0    0 -0.00000000000E+00 -0.00000000000E+00 -0.45593999997E+02  0.45594000000E+02  0.51100000000E-03 0. -1.
    9900012    2    1    2    0    0  0.29471043930E+02  0.10994617553E+02  0.25763113800E+02  0.50528904115E+02  0.30000134549E+02 0.  0.
         12    1    1    2    0    0 -0.29471043930E+02 -0.10994617553E+02 -0.25763113800E+02  0.40659095885E+02  0.00000000000E+00 0. -1.
         11    1    3    3    0    0 -0.53713284934E+00 -0.15014718991E+00 -0.30967143590E+01  0.31465371377E+01  0.51100000000E-03 0. -1.
        -11    1    3    3    0    0  0.26065473360E+02  0.21478881176E+01  0.14268789219E+02  0.29792963445E+02  0.51100000000E-03 0.  1.
        -12    1    3    3    0    0  0.39427034199E+01  0.89968766248E+01  0.14591038941E+02  0.17589403532E+02  0.00000000000E+00 0.  1.
</event>
<event>
 7    1  0.2973028E-011  0.5052884E+02  0.7816164E-02  0.1300439E+00
        -11   -1    0    0    0    0  0.00000000000E+00  0.00000000000E+00  0.45593999997E+02  0.45594000000E+02  0.51100000000E-03 0.  1.
         11   -1    0    0    0    0 -0.00000000000E+00 -0.00000000000E+00 -0.45593999997E+02  0.45594000000E+02  0.51100000000E-03 0. -1.
    9900012    2    1    2    0    0 -0.19467009479E+02 -0.33811856754E+01  0.35535477173E+02  0.50528843435E+02  0.29999950105E+02 0.  0.
         12    1    1    2    0    0  0.19467009479E+02  0.33811856754E+01 -0.35535477173E+02  0.40659156565E+02  0.00000000000E+00 0. -1.
         11    1    3    3    0    0  0.35652811070E+01 -0.12836442114E+01 -0.14881004866E+01  0.40710459532E+01  0.51100000000E-03 0. -1.
        -11    1    3    3    0    0 -0.19963414159E+02 -0.14916548335E+01  0.38190319221E+02  0.43119176957E+02  0.51100000000E-03 0.  1.
        -12    1    3    3    0    0 -0.30688764276E+01 -0.60588663061E+00 -0.11667415609E+01  0.33386205245E+01  0.00000000000E+00 0.  1.
</event>
<event>
 7    1  0.2973028E-011  0.5052886E+02  0.7816164E-02  0.1300439E+00
        -11   -1    0    0    0    0  0.00000000000E+00  0.00000000000E+00  0.45593999997E+02  0.45594000000E+02  0.51100000000E-03 0. -1.
         11   -1    0    0    0    0 -0.00000000000E+00 -0.00000000000E+00 -0.45593999997E+02  0.45594000000E+02  0.51100000000E-03 0.  1.
    9900012    2    1    2    0    0 -0.15893024943E+02 -0.96960620777E+01 -0.36146427227E+02  0.50528855113E+02  0.29999985601E+02 0.  0.
         12    1    1    2    0    0  0.15893024943E+02  0.96960620777E+01  0.36146427227E+02  0.40659144887E+02  0.00000000000E+00 0. -1.
         11    1    3    3    0    0 -0.11865054366E+01 -0.40868160113E+01  0.45413582880E+01  0.62236480959E+01  0.51100000000E-03 0. -1.
        -11    1    3    3    0    0 -0.74535100769E+01 -0.24682905259E+00 -0.11096286623E+02  0.13369491917E+02  0.51100000000E-03 0.  1.
         12    1    3    3    0    0 -0.72530094296E+01 -0.53624170138E+01 -0.29591498892E+02  0.30935715100E+02  0.00000000000E+00 0. -1.
</event>
<event>
 7    1  0.2973028E-011  0.5052886E+02  0.7816164E-02  0.1300439E+00
        -11   -1    0    0    0    0  0.00000000000E+00  0.00000000000E+00  0.45593999997E+02  0.45594000000E+02  0.51100000000E-03 0.  1.
         11   -1    0    0    0    0 -0.00000000000E+00 -0.00000000000E+00 -0.45593999997E+02  0.45594000000E+02  0.51100000000E-03 0. -1.
    9900012    2    1    2    0    0 -0.21413639861E+02  0.11812296359E+02  0.32482163557E+02  0.50528864904E+02  0.30000015362E+02 0.  0.
         12    1    1    2    0    0  0.21413639861E+02 -0.11812296359E+02 -0.32482163557E+02  0.40659135096E+02  0.00000000000E+00 0. -1.
         11    1    3    3    0    0 -0.13568137484E+02 -0.83719731983E+00  0.33380481491E+01  0.13997779104E+02  0.51100000000E-03 0. -1.
        -11    1    3    3    0    0  0.14363652332E+01  0.12428741642E+02  0.14080622995E+02  0.18836154281E+02  0.51100000000E-03 0.  1.
        -12    1    3    3    0    0 -0.92818676107E+01  0.22075203662E+00  0.15063492413E+02  0.17694931519E+02  0.00000000000E+00 0.  1.
</event>
<event>
 7    1  0.2973028E-011  0.5052887E+02  0.7816164E-02  0.1300439E+00
        -11   -1    0    0    0    0  0.00000000000E+00  0.00000000000E+00  0.45593999997E+02  0.45594000000E+02  0.51100000000E-03 0.  1.
         11   -1    0    0    0    0 -0.00000000000E+00 -0.00000000000E+00 -0.45593999997E+02  0.45594000000E+02  0.51100000000E-03 0. -1.
    9900012    2    1    2    0    0 -0.15744948428E+02 -0.15625062047E+02  0.34075192219E+02  0.50528872000E+02  0.30000036930E+02 0.  0.
         12    1    1    2    0    0  0.15744948428E+02  0.15625062047E+02 -0.34075192219E+02  0.40659128000E+02  0.00000000000E+00 0. -1.
         11    1    3    3    0    0 -0.49089372429E+01 -0.49654930917E+00 -0.20712145785E+01  0.53510892501E+01  0.51100000000E-03 0. -1.
        -11    1    3    3    0    0 -0.25338262617E+00 -0.20835177752E+01  0.24841921867E+02  0.24930429827E+02  0.51100000000E-03 0.  1.
        -12    1    3    3    0    0 -0.10582628559E+02 -0.13044994963E+02  0.11304484930E+02  0.20247352922E+02  0.00000000000E+00 0.  1.
</event>
<event>
 7    1  0.2973028E-011  0.5052886E+02  0.7816164E-02  0.1300439E+00
        -11   -1    0    0    0    0  0.00000000000E+00  0.00000000000E+00  0.45593999997E+02  0.45594000000E+02  0.51100000000E-03 0.  1.
         11   -1    0    0    0    0 -0.00000000000E+00 -0.00000000000E+00 -0.45593999997E+02  0.45594000000E+02  0.51100000000E-03 0. -1.
    9900012    2    1    2    0    0 -0.61715090106E+01  0.38248033757E+02  0.12335566591E+02  0.50528858189E+02  0.29999994950E+02 0.  0.
         12    1    1    2    0    0  0.61715090106E+01 -0.38248033757E+02 -0.12335566591E+02  0.40659141811E+02  0.00000000000E+00 0. -1.
         11    1    3    3    0    0 -0.17579258101E+01  0.33749240868E+01 -0.54745665519E+01  0.66671804339E+01  0.51100000000E-03 0. -1.
        -11    1    3    3    0    0 -0.42364423790E+01  0.15576973081E+02  0.18499505664E+02  0.24552418302E+02  0.51100000000E-03 0.  1.
        -12    1    3    3    0    0 -0.17714082149E+00  0.19296136589E+02 -0.68937252148E+00  0.19309259453E+02  0.00000000000E+00 0.  1.
</event>
<event>
 7    1  0.2973028E-011  0.5052887E+02  0.7816164E-02  0.1300439E+00
        -11   -1    0    0    0    0  0.00000000000E+00  0.00000000000E+00  0.45593999997E+02  0.45594000000E+02  0.51100000000E-03 0.  1.
         11   -1    0    0    0    0 -0.00000000000E+00 -0.00000000000E+00 -0.45593999997E+02  0.45594000000E+02  0.51100000000E-03 0. -1.
    9900012    2    1    2    0    0 -0.33036089196E+00 -0.27574511080E+02  0.29878117217E+02  0.50528872020E+02  0.30000036993E+02 0.  0.
         12    1    1    2    0    0  0.33036089196E+00  0.27574511080E+02 -0.29878117217E+02  0.40659127980E+02  0.00000000000E+00 0. -1.
         11    1    3    3    0    0  0.60745111288E+01 -0.36873457907E+01 -0.26649181261E+01  0.75893341812E+01  0.51100000000E-03 0. -1.
        -11    1    3    3    0    0 -0.65926903865E+01 -0.12693993728E+02  0.26751219115E+02  0.30335272666E+02  0.51100000000E-03 0.  1.
        -12    1    3    3    0    0  0.18781836574E+00 -0.11193171561E+02  0.57918162279E+01  0.12604265173E+02  0.00000000000E+00 0.  1.
</event>
<event>
 7    1  0.2973028E-011  0.5052886E+02  0.7816164E-02  0.1300439E+00
        -11   -1    0    0    0    0  0.00000000000E+00  0.00000000000E+00  0.45593999997E+02  0.45594000000E+02  0.51100000000E-03 0.  1.
         11   -1    0    0    0    0 -0.00000000000E+00 -0.00000000000E+00 -0.45593999997E+02  0.45594000000E+02  0.51100000000E-03 0. -1.
    9900012    2    1    2    0    0  0.10648668380E+02 -0.30214547898E+02  0.25037022446E+02  0.50528861594E+02  0.30000005302E+02 0.  0.
         12    1    1    2    0    0 -0.10648668380E+02  0.30214547898E+02 -0.25037022446E+02  0.40659138406E+02  0.00000000000E+00 0. -1.
         11    1    3    3    0    0  0.13974611353E+02 -0.32993581475E+01  0.29251207423E+01  0.14653731889E+02  0.51100000000E-03 0. -1.
        -11    1    3    3    0    0  0.11678501140E+01 -0.19043804599E+02  0.13501985852E+02  0.23373788518E+02  0.51100000000E-03 0.  1.
         12    1    3    3    0    0 -0.44937930870E+01 -0.78713851512E+01  0.86099158519E+01  0.12501341187E+02  0.00000000000E+00 0. -1.
</event>
<event>
 7    1  0.2973028E-011  0.5052886E+02  0.7816164E-02  0.1300439E+00
        -11   -1    0    0    0    0  0.00000000000E+00  0.00000000000E+00  0.45593999997E+02  0.45594000000E+02  0.51100000000E-03 0.  1.
         11   -1    0    0    0    0 -0.00000000000E+00 -0.00000000000E+00 -0.45593999997E+02  0.45594000000E+02  0.51100000000E-03 0. -1.
    9900012    2    1    2    0    0 -0.52131778089E+01  0.22369697347E+02  0.33549741705E+02  0.50528858952E+02  0.29999997271E+02 0.  0.
         12    1    1    2    0    0  0.52131778089E+01 -0.22369697347E+02 -0.33549741705E+02  0.40659141048E+02  0.00000000000E+00 0. -1.
         11    1    3    3    0    0 -0.11716435396E+02  0.42988569795E+01  0.18520867655E+02  0.22333328652E+02  0.51100000000E-03 0. -1.
        -11    1    3    3    0    0  0.47116461875E+01  0.71937519261E+01  0.14862043724E+02  0.17170615029E+02  0.51100000000E-03 0.  1.
         12    1    3    3    0    0  0.17916114001E+01  0.10877088441E+02  0.16683032644E+00  0.11024915271E+02  0.00000000000E+00 0. -1.
</event>
<event>
 7    1  0.2973028E-011  0.5052886E+02  0.7816164E-02  0.1300439E+00
        -11   -1    0    0    0    0  0.00000000000E+00  0.00000000000E+00  0.45593999997E+02  0.45594000000E+02  0.51100000000E-03 0.  1.
         11   -1    0    0    0    0 -0.00000000000E+00 -0.00000000000E+00 -0.45593999997E+02  0.45594000000E+02  0.51100000000E-03 0. -1.
    9900012    2    1    2    0    0  0.93707055691E+01 -0.25590295531E+02  0.30174367374E+02  0.50528858412E+02  0.29999995630E+02 0.  0.
         12    1    1    2    0    0 -0.93707055691E+01  0.25590295531E+02 -0.30174367374E+02  0.40659141588E+02  0.00000000000E+00 0. -1.
         11    1    3    3    0    0 -0.23394919537E+01 -0.24756369649E+01 -0.30704403044E+01  0.45858047175E+01  0.51100000000E-03 0. -1.
        -11    1    3    3    0    0  0.89429309555E+01 -0.25934839273E+02  0.26597800669E+02  0.38210403071E+02  0.51100000000E-03 0.  1.
         12    1    3    3    0    0  0.27672665673E+01  0.28201807071E+01  0.66470070099E+01  0.77326506235E+01  0.00000000000E+00 0. -1.
</event>
<event>
 7    1  0.2973028E-011  0.5052885E+02  0.7816164E-02  0.1300439E+00
        -11   -1    0    0    0    0  0.00000000000E+00  0.00000000000E+00  0.45593999997E+02  0.45594000000E+02  0.51100000000E-03 0.  1.
         11   -1    0    0    0    0 -0.00000000000E+00 -0.00000000000E+00 -0.45593999997E+02  0.45594000000E+02  0.51100000000E-03 0. -1.
    9900012    2    1    2    0    0  0.19210571343E+02 -0.33118084467E+02  0.13686239261E+02  0.50528847092E+02  0.29999961222E+02 0.  0.
         12    1    1    2    0    0 -0.19210571343E+02  0.33118084467E+02 -0.13686239261E+02  0.40659152908E+02  0.00000000000E+00 0. -1.
         11    1    3    3    0    0  0.62696885464E+01  0.44835673249E+01  0.10946684355E+00  0.77086544660E+01  0.51100000000E-03 0. -1.
        -11    1    3    3    0    0  0.10168768686E+02 -0.25405663682E+02  0.13009821341E+02  0.30300281439E+02  0.51100000000E-03 0.  1.
         12    1    3    3    0    0  0.27721141104E+01 -0.12195988110E+02  0.56695107663E+00  0.12519911188E+02  0.00000000000E+00 0. -1.
</event>
<event>
 7    1  0.2973028E-011  0.5052886E+02  0.7816164E-02  0.1300439E+00
        -11   -1    0    0    0    0  0.00000000000E+00  0.00000000000E+00  0.45593999997E+02  0.45594000000E+02  0.51100000000E-03 0.  1.
         11   -1    0    0    0    0 -0.00000000000E+00 -0.00000000000E+00 -0.45593999997E+02  0.45594000000E+02  0.51100000000E-03 0. -1.
    9900012    2    1    2    0    0 -0.28745830142E+02  0.23866446201E+02  0.16038556100E+02  0.50528864660E+02  0.30000014621E+02 0.  0.
         12    1    1    2    0    0  0.28745830142E+02 -0.23866446201E+02 -0.16038556100E+02  0.40659135340E+02  0.00000000000E+00 0. -1.
         11    1    3    3    0    0  0.38299752650E+01  0.99065700574E+01  0.17164941948E+01  0.10758958751E+02  0.51100000000E-03 0. -1.
        -11    1    3    3    0    0 -0.11796661121E+02  0.56511000807E+00  0.79594895808E+01  0.14241981518E+02  0.51100000000E-03 0.  1.
         12    1    3    3    0    0 -0.20779144286E+02  0.13394766136E+02  0.63625723247E+01  0.25527924390E+02  0.00000000000E+00 0. -1.
</event>
<event>
 7    1  0.2973028E-011  0.5052886E+02  0.7816164E-02  0.1300439E+00
        -11   -1    0    0    0    0  0.00000000000E+00  0.00000000000E+00  0.45593999997E+02  0.45594000000E+02  0.51100000000E-03 0. -1.
         11   -1    0    0    0    0 -0.00000000000E+00 -0.00000000000E+00 -0.45593999997E+02  0.45594000000E+02  0.51100000000E-03 0.  1.
    9900012    2    1    2    0    0 -0.25506479228E+01  0.39172590172E+02 -0.10590951080E+02  0.50528857481E+02  0.29999992798E+02 0.  0.
         12    1    1    2    0    0  0.25506479228E+01 -0.39172590172E+02  0.10590951080E+02  0.40659142519E+02  0.00000000000E+00 0. -1.
         11    1    3    3    0    0 -0.36431515035E+01  0.80934554900E+01  0.74046606831E+01  0.11558787771E+02  0.51100000000E-03 0. -1.
        -11    1    3    3    0    0 -0.54980063217E+00  0.27757088862E+02 -0.89092151207E+01  0.29157029635E+02  0.51100000000E-03 0.  1.
         12    1    3    3    0    0  0.16423042129E+01  0.33220458206E+01 -0.90863966425E+01  0.98130400746E+01  0.00000000000E+00 0. -1.
</event>
<event>
 7    1  0.2973028E-011  0.5052887E+02  0.7816164E-02  0.1300439E+00
        -11   -1    0    0    0    0  0.00000000000E+00  0.00000000000E+00  0.45593999997E+02  0.45594000000E+02  0.51100000000E-03 0.  1.
         11   -1    0    0    0    0 -0.00000000000E+00 -0.00000000000E+00 -0.45593999997E+02  0.45594000000E+02  0.51100000000E-03 0. -1.
    9900012    2    1    2    0    0  0.18510160366E+02 -0.32935562081E+02  0.15026240853E+02  0.50528865718E+02  0.30000017838E+02 0.  0.
         12    1    1    2    0    0 -0.18510160366E+02  0.32935562081E+02 -0.15026240853E+02  0.40659134282E+02  0.00000000000E+00 0. -1.
         11    1    3    3    0    0 -0.30252714878E+01 -0.10706915080E+00 -0.11050041585E+01  0.32225402759E+01  0.51100000000E-03 0. -1.
        -11    1    3    3    0    0  0.25726989392E+02 -0.27076844831E+02  0.13779536468E+02  0.39810917280E+02  0.51100000000E-03 0.  1.
        -12    1    3    3    0    0 -0.41915575378E+01 -0.57516480992E+01  0.23517085436E+01  0.74954081625E+01  0.00000000000E+00 0.  1.
</event>
<event>
 7    1  0.2973028E-011  0.5052886E+02  0.7816164E-02  0.1300439E+00
        -11   -1    0    0    0    0  0.00000000000E+00  0.00000000000E+00  0.45593999997E+02  0.45594000000E+02  0.51100000000E-03 0. -1.
         11   -1    0    0    0    0 -0.00000000000E+00 -0.00000000000E+00 -0.45593999997E+02  0.45594000000E+02  0.51100000000E-03 0.  1.
    9900012    2    1    2    0    0 -0.11319559189E+02  0.18528319102E+02 -0.34376372416E+02  0.50528855771E+02  0.29999987601E+02 0.  0.
         12    1    1    2    0    0  0.11319559189E+02 -0.18528319102E+02  0.34376372416E+02  0.40659144229E+02  0.00000000000E+00 0. -1.
         11    1    3    3    0    0 -0.49649192310E+01  0.12731950317E+02  0.13078139898E+01  0.13728195786E+02  0.51100000000E-03 0. -1.
        -11    1    3    3    0    0 -0.94020637696E+00  0.24591970633E+01 -0.10877888644E+02  0.11191965861E+02  0.51100000000E-03 0.  1.
         12    1    3    3    0    0 -0.54144335808E+01  0.33371717224E+01 -0.24806297761E+02  0.25608694124E+02  0.00000000000E+00 0. -1.
</event>
<event>
 7    1  0.2973028E-011  0.5052887E+02  0.7816164E-02  0.1300439E+00
        -11   -1    0    0    0    0  0.00000000000E+00  0.00000000000E+00  0.45593999997E+02  0.45594000000E+02  0.51100000000E-03 0. -1.
         11   -1    0    0    0    0 -0.00000000000E+00 -0.00000000000E+00 -0.45593999997E+02  0.45594000000E+02  0.51100000000E-03 0.  1.
    9900012    2    1    2    0    0  0.14109671159E+02  0.37964361869E+02  0.35762232661E+01  0.50528868613E+02  0.30000026635E+02 0.  0.
         12    1    1    2    0    0 -0.14109671159E+02 -0.37964361869E+02 -0.35762232661E+01  0.40659131387E+02  0.00000000000E+00 0. -1.
         11    1    3    3    0    0  0.19328003928E+02  0.16455567240E+02  0.68357840406E+01  0.26288502673E+02  0.51100000000E-03 0. -1.
        -11    1    3    3    0    0  0.10916392256E+01  0.41329892044E+01  0.24063718568E+01  0.49054970938E+01  0.51100000000E-03 0.  1.
         12    1    3    3    0    0 -0.63099719950E+01  0.17375805424E+02 -0.56659326313E+01  0.19334868846E+02  0.00000000000E+00 0. -1.
</event>
<event>
 7    1  0.2973028E-011  0.5052887E+02  0.7816164E-02  0.1300439E+00
        -11   -1    0    0    0    0  0.00000000000E+00  0.00000000000E+00  0.45593999997E+02  0.45594000000E+02  0.51100000000E-03 0. -1.
         11   -1    0    0    0    0 -0.00000000000E+00 -0.00000000000E+00 -0.45593999997E+02  0.45594000000E+02  0.51100000000E-03 0.  1.
    9900012    2    1    2    0    0 -0.79378051947E+01  0.39813735602E+02  0.22411474868E+01  0.50528867742E+02  0.30000023990E+02 0.  0.
         12    1    1    2    0    0  0.79378051947E+01 -0.39813735602E+02 -0.22411474868E+01  0.40659132258E+02  0.00000000000E+00 0. -1.
         11    1    3    3    0    0 -0.90072131591E+01  0.24722123290E+02  0.13687499811E+02  0.29659078209E+02  0.51100000000E-03 0. -1.
        -11    1    3    3    0    0 -0.28666176754E+01  0.12124576565E+02 -0.89820417791E+01  0.15359034102E+02  0.51100000000E-03 0.  1.
         12    1    3    3    0    0  0.39360256398E+01  0.29670357471E+01 -0.24643105451E+01  0.55107554314E+01  0.00000000000E+00 0. -1.
</event>
<event>
 7    1  0.2973028E-011  0.5052885E+02  0.7816164E-02  0.1300439E+00
        -11   -1    0    0    0    0  0.00000000000E+00  0.00000000000E+00  0.45593999997E+02  0.45594000000E+02  0.51100000000E-03 0. -1.
         11   -1    0    0    0    0 -0.00000000000E+00 -0.00000000000E+00 -0.45593999997E+02  0.45594000000E+02  0.51100000000E-03 0.  1.
    9900012    2    1    2    0    0 -0.30154989992E+02 -0.18644528914E+02  0.19905383349E+02  0.50528853845E+02  0.29999981746E+02 0.  0.
         12    1    1    2    0    0  0.30154989992E+02  0.18644528914E+02 -0.19905383349E+02  0.40659146155E+02  0.00000000000E+00 0. -1.
         11    1    3    3    0    0 -0.24573129151E+02  0.37965688177E+00  0.15894084629E+02  0.29267810682E+02  0.51100000000E-03 0. -1.
        -11    1    3    3    0    0 -0.56884151118E+01 -0.16724714491E+02  0.13131413754E+01  0.17714358070E+02  0.51100000000E-03 0.  1.
         12    1    3    3    0    0  0.10655427157E+00 -0.22994713045E+01  0.26981573442E+01  0.35466850928E+01  0.00000000000E+00 0. -1.
</event>
<event>
 7    1  0.2973028E-011  0.5052887E+02  0.7816164E-02  0.1300439E+00
        -11   -1    0    0    0    0  0.00000000000E+00  0.00000000000E+00  0.45593999997E+02  0.45594000000E+02  0.51100000000E-03 0.  1.
         11   -1    0    0    0    0 -0.00000000000E+00 -0.00000000000E+00 -0.45593999997E+02  0.45594000000E+02  0.51100000000E-03 0. -1.
    9900012    2    1    2    0    0 -0.56519720007E+01  0.36606268855E+02  0.16769059871E+02  0.50528867251E+02  0.30000022496E+02 0.  0.
         12    1    1    2    0    0  0.56519720007E+01 -0.36606268855E+02 -0.16769059871E+02  0.40659132749E+02  0.00000000000E+00 0. -1.
         11    1    3    3    0    0 -0.11395747562E+01 -0.41967004836E+01  0.31178539557E+01  0.53508820885E+01  0.51100000000E-03 0. -1.
        -11    1    3    3    0    0  0.25863075125E+01  0.24455163415E+02  0.11749588132E+02  0.27254299216E+02  0.51100000000E-03 0.  1.
        -12    1    3    3    0    0 -0.70987047570E+01  0.16347805923E+02  0.19016177832E+01  0.17923685947E+02  0.00000000000E+00 0.  1.
</event>
<event>
 7    1  0.2973028E-011  0.5052885E+02  0.7816164E-02  0.1300439E+00
        -11   -1    0    0    0    0  0.00000000000E+00  0.00000000000E+00  0.45593999997E+02  0.45594000000E+02  0.51100000000E-03 0.  1.
         11   -1    0    0    0    0 -0.00000000000E+00 -0.00000000000E+00 -0.45593999997E+02  0.45594000000E+02  0.51100000000E-03 0. -1.
    9900012    2    1    2    0    0  0.51687823281E+00  0.49704849016E+01  0.40350877313E+02  0.50528853634E+02  0.29999981106E+02 0.  0.
         12    1    1    2    0    0 -0.51687823281E+00 -0.49704849016E+01 -0.40350877313E+02  0.40659146366E+02  0.00000000000E+00 0. -1.
         11    1    3    3    0    0  0.30109222004E+01 -0.27911228862E+00  0.30296613046E+02  0.30447139743E+02  0.51100000000E-03 0. -1.
        -11    1    3    3    0    0 -0.70484206858E+01  0.88649906691E+01  0.81853050254E+01  0.13973815239E+02  0.51100000000E-03 0.  1.
         12    1    3    3    0    0  0.45543767181E+01 -0.36153934789E+01  0.18689592415E+01  0.61078986521E+01  0.00000000000E+00 0. -1.
</event>
<event>
 7    1  0.2973028E-011  0.5052887E+02  0.7816164E-02  0.1300439E+00
        -11   -1    0    0    0    0  0.00000000000E+00  0.00000000000E+00  0.45593999997E+02  0.45594000000E+02  0.51100000000E-03 0.  1.
         11   -1    0    0    0    0 -0.00000000000E+00 -0.00000000000E+00 -0.45593999997E+02  0.45594000000E+02  0.51100000000E-03 0. -1.
    9900012    2    1    2    0    0 -0.35459056690E+02  0.49250208497E+00 -0.19889130250E+02  0.50528871115E+02  0.30000034241E+02 0.  0.
         12    1    1    2    0    0  0.35459056690E+02 -0.49250208497E+00  0.19889130250E+02  0.40659128885E+02  0.00000000000E+00 0. -1.
         11    1    3    3    0    0 -0.78214054356E+01 -0.55253112446E+01  0.30061245927E+01  0.10036943393E+02  0.51100000000E-03 0. -1.
        -11    1    3    3    0    0 -0.20445728699E+02  0.10974256061E+02 -0.10857667206E+02  0.25619349241E+02  0.51100000000E-03 0.  1.
         12    1    3    3    0    0 -0.71919225551E+01 -0.49564427311E+01 -0.12037587636E+02  0.14872578481E+02  0.00000000000E+00 0. -1.
</event>
<event>
 7    1  0.2973028E-011  0.5052886E+02  0.7816164E-02  0.1300439E+00
        -11   -1    0    0    0    0  0.00000000000E+00  0.00000000000E+00  0.45593999997E+02  0.45594000000E+02  0.51100000000E-03 0.  1.
         11   -1    0    0    0    0 -0.00000000000E+00 -0.00000000000E+00 -0.45593999997E+02  0.45594000000E+02  0.51100000000E-03 0. -1.
    9900012    2    1    2    0    0 -0.30080112288E+02  0.23041730854E+02  0.14745540766E+02  0.50528862177E+02  0.30000007074E+02 0.  0.
         12    1    1    2    0    0  0.30080112288E+02 -0.23041730854E+02 -0.14745540766E+02  0.40659137823E+02  0.00000000000E+00 0. -1.
         11    1    3    3    0    0 -0.14015493622E+02  0.19308340685E+02 -0.12148228392E+01  0.23889786024E+02  0.51100000000E-03 0. -1.
        -11    1    3    3    0    0 -0.12484645794E+00  0.14570104354E+01  0.89652633927E+01  0.90837444927E+01  0.51100000000E-03 0.  1.
         12    1    3    3    0    0 -0.15939772208E+02  0.22763797333E+01  0.69951002126E+01  0.17555331661E+02  0.00000000000E+00 0. -1.
</event>
<event>
 7    1  0.2973028E-011  0.5052886E+02  0.7816164E-02  0.1300439E+00
        -11   -1    0    0    0    0  0.00000000000E+00  0.00000000000E+00  0.45593999997E+02  0.45594000000E+02  0.51100000000E-03 0.  1.
         11   -1    0    0    0    0 -0.00000000000E+00 -0.00000000000E+00 -0.45593999997E+02  0.45594000000E+02  0.51100000000E-03 0. -1.
    9900012    2    1    2    0    0  0.93280351426E+01 -0.27963773927E+01  0.39475733077E+02  0.50528862428E+02  0.30000007836E+02 0.  0.
         12    1    1    2    0    0 -0.93280351426E+01  0.27963773927E+01 -0.39475733077E+02  0.40659137572E+02  0.00000000000E+00 0. -1.
         11    1    3    3    0    0  0.10870450286E+02 -0.62521117537E+01  0.19922024315E+02  0.23540234576E+02  0.51100000000E-03 0. -1.
        -11    1    3    3    0    0 -0.54052468962E+01  0.25008945385E+01  0.21675728423E+02  0.22479065159E+02  0.51100000000E-03 0.  1.
         12    1    3    3    0    0  0.38628317524E+01  0.95483982248E+00 -0.21220196615E+01  0.45095626925E+01  0.00000000000E+00 0. -1.
</event>
<event>
 7    1  0.2973028E-011  0.5052886E+02  0.7816164E-02  0.1300439E+00
        -11   -1    0    0    0    0  0.00000000000E+00  0.00000000000E+00  0.45593999997E+02  0.45594000000E+02  0.51100000000E-03 0. -1.
         11   -1    0    0    0    0 -0.00000000000E+00 -0.00000000000E+00 -0.45593999997E+02  0.45594000000E+02  0.51100000000E-03 0.  1.
    9900012    2    1    2    0    0 -0.21030544743E+02  0.24874277353E+02 -0.24334172517E+02  0.50528862797E+02  0.30000008959E+02 0.  0.
         12    1    1    2    0    0  0.21030544743E+02 -0.24874277353E+02  0.24334172517E+02  0.40659137203E+02  0.00000000000E+00 0. -1.
         11    1    3    3    0    0 -0.93616368839E+01 -0.37900027561E+01 -0.78509907877E+01  0.12792279806E+02  0.51100000000E-03 0. -1.
        -11    1    3    3    0    0 -0.26555420727E+01  0.22766188769E+02 -0.90171089545E+01  0.24630458967E+02  0.51100000000E-03 0.  1.
        -12    1    3    3    0    0 -0.90133657864E+01  0.58980913395E+01 -0.74660727744E+01  0.13106124024E+02  0.00000000000E+00 0.  1.
</event>
<event>
 7    1  0.2973028E-011  0.5052886E+02  0.7816164E-02  0.1300439E+00
        -11   -1    0    0    0    0  0.00000000000E+00  0.00000000000E+00  0.45593999997E+02  0.45594000000E+02  0.51100000000E-03 0. -1.
         11   -1    0    0    0    0 -0.00000000000E+00 -0.00000000000E+00 -0.45593999997E+02  0.45594000000E+02  0.51100000000E-03 0.  1.
    9900012    2    1    2    0    0  0.23816416645E+02 -0.30112718801E+02  0.13385374149E+02  0.50528858636E+02  0.29999996310E+02 0.  0.
         12    1    1    2    0    0 -0.23816416645E+02  0.30112718801E+02 -0.13385374149E+02  0.40659141364E+02  0.00000000000E+00 0. -1.
         11    1    3    3    0    0  0.74697739642E+01 -0.38852263823E+01  0.11142019912E+02  0.13965568914E+02  0.51100000000E-03 0. -1.
        -11    1    3    3    0    0  0.14444491929E+02 -0.28550200496E+02 -0.11698925220E+01  0.32017588045E+02  0.51100000000E-03 0.  1.
        -12    1    3    3    0    0  0.19021507517E+01  0.23227080780E+01  0.34132467588E+01  0.45457016768E+01  0.00000000000E+00 0.  1.
</event>
<event>
 7    1  0.2973028E-011  0.5052885E+02  0.7816164E-02  0.1300439E+00
        -11   -1    0    0    0    0  0.00000000000E+00  0.00000000000E+00  0.45593999997E+02  0.45594000000E+02  0.51100000000E-03 0.  1.
         11   -1    0    0    0    0 -0.00000000000E+00 -0.00000000000E+00 -0.45593999997E+02  0.45594000000E+02  0.51100000000E-03 0. -1.
    9900012    2    1    2    0    0  0.22814843702E+02 -0.17759926735E+02  0.28587306895E+02  0.50528853350E+02  0.29999980243E+02 0.  0.
         12    1    1    2    0    0 -0.22814843702E+02  0.17759926735E+02 -0.28587306895E+02  0.40659146650E+02  0.00000000000E+00 0. -1.
         11    1    3    3    0    0 -0.47997418115E+00 -0.18003013697E+01  0.14813687603E+02  0.14930398551E+02  0.51100000000E-03 0. -1.
        -11    1    3    3    0    0  0.23330003497E+02 -0.83575513035E+01  0.79622480671E+01  0.26029504826E+02  0.51100000000E-03 0.  1.
        -12    1    3    3    0    0 -0.35185613885E-01 -0.76020740619E+01  0.58113712250E+01  0.95689499729E+01  0.00000000000E+00 0.  1.
</event>
<event>
 7    1  0.2973028E-011  0.5052886E+02  0.7816164E-02  0.1300439E+00
        -11   -1    0    0    0    0  0.00000000000E+00  0.00000000000E+00  0.45593999997E+02  0.45594000000E+02  0.51100000000E-03 0.  1.
         11   -1    0    0    0    0 -0.00000000000E+00 -0.00000000000E+00 -0.45593999997E+02  0.45594000000E+02  0.51100000000E-03 0. -1.
    9900012    2    1    2    0    0 -0.39191726089E+00  0.34089156220E+02  0.22157194301E+02  0.50528862894E+02  0.30000009251E+02 0.  0.
         12    1    1    2    0    0  0.39191726089E+00 -0.34089156220E+02 -0.22157194301E+02  0.40659137106E+02  0.00000000000E+00 0. -1.
         11    1    3    3    0    0 -0.25830144872E+01  0.49729879380E+01 -0.37091048877E+01  0.67201214424E+01  0.51100000000E-03 0. -1.
        -11    1    3    3    0    0  0.10525064401E+02  0.18567596049E+02  0.19596455575E+02  0.28975052632E+02  0.51100000000E-03 0.  1.
        -12    1    3    3    0    0 -0.83339671748E+01  0.10548572234E+02  0.62698436130E+01  0.14833688819E+02  0.00000000000E+00 0.  1.
</event>
<event>
 7    1  0.2973028E-011  0.5052885E+02  0.7816164E-02  0.1300439E+00
        -11   -1    0    0    0    0  0.00000000000E+00  0.00000000000E+00  0.45593999997E+02  0.45594000000E+02  0.51100000000E-03 0.  1.
         11   -1    0    0    0    0 -0.00000000000E+00 -0.00000000000E+00 -0.45593999997E+02  0.45594000000E+02  0.51100000000E-03 0. -1.
    9900012    2    1    2    0    0 -0.17693786969E+02 -0.44226940478E+01  0.36339179049E+02  0.50528852765E+02  0.29999978463E+02 0.  0.
         12    1    1    2    0    0  0.17693786969E+02  0.44226940478E+01 -0.36339179049E+02  0.40659147235E+02  0.00000000000E+00 0. -1.
         11    1    3    3    0    0 -0.10563872034E+02  0.31537300468E+01  0.63332592038E+01  0.12714227383E+02  0.51100000000E-03 0. -1.
        -11    1    3    3    0    0 -0.53967651530E+01 -0.14711573852E+02  0.20433934199E+02  0.25750750405E+02  0.51100000000E-03 0.  1.
        -12    1    3    3    0    0 -0.17331497829E+01  0.71351497573E+01  0.95719856458E+01  0.12063874976E+02  0.00000000000E+00 0.  1.
</event>
<event>
 7    1  0.2973028E-011  0.5052887E+02  0.7816164E-02  0.1300439E+00
        -11   -1    0    0    0    0  0.00000000000E+00  0.00000000000E+00  0.45593999997E+02  0.45594000000E+02  0.51100000000E-03 0.  1.
         11   -1    0    0    0    0 -0.00000000000E+00 -0.00000000000E+00 -0.45593999997E+02  0.45594000000E+02  0.51100000000E-03 0. -1.
    9900012    2    1    2    0    0 -0.22662291687E+02 -0.56389973219E+01  0.33283438282E+02  0.50528867948E+02  0.30000024615E+02 0.  0.
         12    1    1    2    0    0  0.22662291687E+02  0.56389973219E+01 -0.33283438282E+02  0.40659132052E+02  0.00000000000E+00 0. -1.
         11    1    3    3    0    0 -0.27741230639E+01 -0.33271274145E+01 -0.12122162745E+01  0.44983334874E+01  0.51100000000E-03 0. -1.
        -11    1    3    3    0    0 -0.19883895109E+02  0.39298592830E+01  0.34232969217E+02  0.39783278652E+02  0.51100000000E-03 0.  1.
        -12    1    3    3    0    0 -0.42735147781E-02 -0.62417291903E+01  0.26268534031E+00  0.62472558085E+01  0.00000000000E+00 0.  1.
</event>
<event>
 7    1  0.2973028E-011  0.5052887E+02  0.7816164E-02  0.1300439E+00
        -11   -1    0    0    0    0  0.00000000000E+00  0.00000000000E+00  0.45593999997E+02  0.45594000000E+02  0.51100000000E-03 0. -1.
         11   -1    0    0    0    0 -0.00000000000E+00 -0.00000000000E+00 -0.45593999997E+02  0.45594000000E+02  0.51100000000E-03 0.  1.
    9900012    2    1    2    0    0  0.19140252102E+02 -0.97201240681E+01 -0.34530204205E+02  0.50528867386E+02  0.30000022908E+02 0.  0.
         12    1    1    2    0    0 -0.19140252102E+02  0.97201240681E+01  0.34530204205E+02  0.40659132614E+02  0.00000000000E+00 0. -1.
         11    1    3    3    0    0  0.14655997266E+01  0.12779080469E+00  0.19966418847E+01  0.24800992168E+01  0.51100000000E-03 0. -1.
        -11    1    3    3    0    0  0.23518748910E+02 -0.94799251687E+01 -0.29393536980E+02  0.38819847346E+02  0.51100000000E-03 0.  1.
        -12    1    3    3    0    0 -0.58440965340E+01 -0.36798970400E+00 -0.71333091095E+01  0.92289208238E+01  0.00000000000E+00 0.  1.
</event>
<event>
 7    1  0.2973028E-011  0.5052884E+02  0.7816164E-02  0.1300439E+00
        -11   -1    0    0    0    0  0.00000000000E+00  0.00000000000E+00  0.45593999997E+02  0.45594000000E+02  0.51100000000E-03 0.  1.
         11   -1    0    0    0    0 -0.00000000000E+00 -0.00000000000E+00 -0.45593999997E+02  0.45594000000E+02  0.51100000000E-03 0. -1.
    9900012    2    1    2    0    0  0.39133737620E+01 -0.28361974760E+02  0.28869552381E+02  0.50528841608E+02  0.29999944551E+02 0.  0.
         12    1    1    2    0    0 -0.39133737620E+01  0.28361974760E+02 -0.28869552381E+02  0.40659158392E+02  0.00000000000E+00 0. -1.
         11    1    3    3    0    0 -0.66004136133E+01 -0.46351575706E+01  0.39642836698E+01  0.89869733974E+01  0.51100000000E-03 0. -1.
        -11    1    3    3    0    0  0.13505756224E+02 -0.10247491392E+02  0.21390505762E+02  0.27294143475E+02  0.51100000000E-03 0.  1.
        -12    1    3    3    0    0 -0.29919688483E+01 -0.13479325798E+02  0.35147629492E+01  0.14247724736E+02  0.00000000000E+00 0.  1.
</event>
<event>
 7    1  0.2973028E-011  0.5052886E+02  0.7816164E-02  0.1300439E+00
        -11   -1    0    0    0    0  0.00000000000E+00  0.00000000000E+00  0.45593999997E+02  0.45594000000E+02  0.51100000000E-03 0. -1.
         11   -1    0    0    0    0 -0.00000000000E+00 -0.00000000000E+00 -0.45593999997E+02  0.45594000000E+02  0.51100000000E-03 0.  1.
    9900012    2    1    2    0    0  0.11799981523E+02  0.90822158057E+01 -0.37834372818E+02  0.50528856201E+02  0.29999988909E+02 0.  0.
         12    1    1    2    0    0 -0.11799981523E+02 -0.90822158057E+01  0.37834372818E+02  0.40659143799E+02  0.00000000000E+00 0. -1.
         11    1    3    3    0    0 -0.46835607465E+01 -0.20625267748E+01 -0.15500006131E+02  0.16322988338E+02  0.51100000000E-03 0. -1.
        -11    1    3    3    0    0  0.11144305902E+02  0.48677097696E+01 -0.22917905005E+02  0.25944566339E+02  0.51100000000E-03 0.  1.
         12    1    3    3    0    0  0.53392363675E+01  0.62770328109E+01  0.58353831796E+00  0.82613015237E+01  0.00000000000E+00 0. -1.
</event>
<event>
 7    1  0.2973028E-011  0.5052886E+02  0.7816164E-02  0.1300439E+00
        -11   -1    0    0    0    0  0.00000000000E+00  0.00000000000E+00  0.45593999997E+02  0.45594000000E+02  0.51100000000E-03 0.  1.
         11   -1    0    0    0    0 -0.00000000000E+00 -0.00000000000E+00 -0.45593999997E+02  0.45594000000E+02  0.51100000000E-03 0. -1.
    9900012    2    1    2    0    0 -0.54382202785E+01 -0.33139061602E+02  0.22921469396E+02  0.50528863230E+02  0.30000010273E+02 0.  0.
         12    1    1    2    0    0  0.54382202785E+01  0.33139061602E+02 -0.22921469396E+02  0.40659136770E+02  0.00000000000E+00 0. -1.
         11    1    3    3    0    0 -0.16416468593E+02 -0.22835793831E+02  0.13467267915E+02  0.31182386476E+02  0.51100000000E-03 0. -1.
        -11    1    3    3    0    0  0.10803007491E+02 -0.55935885545E+01  0.69047919142E+01  0.13988186280E+02  0.51100000000E-03 0.  1.
         12    1    3    3    0    0  0.17524082351E+00 -0.47096792161E+01  0.25494095667E+01  0.53582904739E+01  0.00000000000E+00 0. -1.
</event>
<event>
 7    1  0.2973028E-011  0.5052883E+02  0.7816164E-02  0.1300439E+00
        -11   -1    0    0    0    0  0.00000000000E+00  0.00000000000E+00  0.45593999997E+02  0.45594000000E+02  0.51100000000E-03 0.  1.
         11   -1    0    0    0    0 -0.00000000000E+00 -0.00000000000E+00 -0.45593999997E+02  0.45594000000E+02  0.51100000000E-03 0. -1.
    9900012    2    1    2    0    0  0.14335718957E+02  0.30105623391E+02  0.23266001808E+02  0.50528828367E+02  0.29999904303E+02 0.  0.
         12    1    1    2    0    0 -0.14335718957E+02 -0.30105623391E+02 -0.23266001808E+02  0.40659171633E+02  0.00000000000E+00 0. -1.
         11    1    3    3    0    0  0.12162164950E+02  0.18217781510E+02  0.12807662860E+01  0.21941881915E+02  0.51100000000E-03 0. -1.
        -11    1    3    3    0    0  0.37978646960E+01 -0.10520204885E+01  0.10477886623E+02  0.11194491132E+02  0.51100000000E-03 0.  1.
        -12    1    3    3    0    0 -0.16243106896E+01  0.12939862370E+02  0.11507348899E+02  0.17392455320E+02  0.00000000000E+00 0.  1.
</event>
<event>
 7    1  0.2973028E-011  0.5052887E+02  0.7816164E-02  0.1300439E+00
        -11   -1    0    0    0    0  0.00000000000E+00  0.00000000000E+00  0.45593999997E+02  0.45594000000E+02  0.51100000000E-03 0. -1.
         11   -1    0    0    0    0 -0.00000000000E+00 -0.00000000000E+00 -0.45593999997E+02  0.45594000000E+02  0.51100000000E-03 0.  1.
    9900012    2    1    2    0    0 -0.31975467597E+02  0.14569364186E+02 -0.20456494566E+02  0.50528867315E+02  0.30000022689E+02 0.  0.
         12    1    1    2    0    0  0.31975467597E+02 -0.14569364186E+02  0.20456494566E+02  0.40659132685E+02  0.00000000000E+00 0. -1.
         11    1    3    3    0    0 -0.21681461971E+01  0.55200311826E+01  0.23388590434E+01  0.63750971816E+01  0.51100000000E-03 0. -1.
        -11    1    3    3    0    0 -0.32210284509E+02  0.97886858009E+01 -0.24021653114E+02  0.41356506338E+02  0.51100000000E-03 0.  1.
        -12    1    3    3    0    0  0.24029631095E+01 -0.73935279760E+00  0.12262995048E+01  0.27972637953E+01  0.00000000000E+00 0.  1.
</event>
<event>
 7    1  0.2973028E-011  0.5052886E+02  0.7816164E-02  0.1300439E+00
        -11   -1    0    0    0    0  0.00000000000E+00  0.00000000000E+00  0.45593999997E+02  0.45594000000E+02  0.51100000000E-03 0.  1.
         11   -1    0    0    0    0 -0.00000000000E+00 -0.00000000000E+00 -0.45593999997E+02  0.45594000000E+02  0.51100000000E-03 0. -1.
    9900012    2    1    2    0    0 -0.34853467720E+02 -0.92175640493E+01  0.18799940321E+02  0.50528862586E+02  0.30000008318E+02 0.  0.
         12    1    1    2    0    0  0.34853467720E+02  0.92175640493E+01 -0.18799940321E+02  0.40659137414E+02  0.00000000000E+00 0. -1.
         11    1    3    3    0    0 -0.10661084557E+02 -0.81896304067E+01 -0.14998523563E+01  0.13526948196E+02  0.51100000000E-03 0. -1.
        -11    1    3    3    0    0 -0.10781972466E+02 -0.60753722568E+01  0.18918194641E+02  0.22606617771E+02  0.51100000000E-03 0.  1.
        -12    1    3    3    0    0 -0.13410410697E+02  0.50474386141E+01  0.13815980363E+01  0.14395296619E+02  0.00000000000E+00 0.  1.
</event>
<event>
 7    1  0.2973028E-011  0.5052886E+02  0.7816164E-02  0.1300439E+00
        -11   -1    0    0    0    0  0.00000000000E+00  0.00000000000E+00  0.45593999997E+02  0.45594000000E+02  0.51100000000E-03 0.  1.
         11   -1    0    0    0    0 -0.00000000000E+00 -0.00000000000E+00 -0.45593999997E+02  0.45594000000E+02  0.51100000000E-03 0. -1.
    9900012    2    1    2    0    0  0.18195923618E+02 -0.21428804960E+02  0.29374828062E+02  0.50528857831E+02  0.29999993862E+02 0.  0.
         12    1    1    2    0    0 -0.18195923618E+02  0.21428804960E+02 -0.29374828062E+02  0.40659142169E+02  0.00000000000E+00 0. -1.
         11    1    3    3    0    0  0.84639873655E+01 -0.80738778580E+01 -0.45872529266E-01  0.11697379636E+02  0.51100000000E-03 0. -1.
        -11    1    3    3    0    0  0.92650945022E+01 -0.13857995686E+02  0.32043569950E+02  0.36120304483E+02  0.51100000000E-03 0.  1.
        -12    1    3    3    0    0  0.46684175006E+00  0.50306858373E+00 -0.26228693593E+01  0.27111737118E+01  0.00000000000E+00 0.  1.
</event>
<event>
 7    1  0.2973028E-011  0.5052886E+02  0.7816164E-02  0.1300439E+00
        -11   -1    0    0    0    0  0.00000000000E+00  0.00000000000E+00  0.45593999997E+02  0.45594000000E+02  0.51100000000E-03 0.  1.
         11   -1    0    0    0    0 -0.00000000000E+00 -0.00000000000E+00 -0.45593999997E+02  0.45594000000E+02  0.51100000000E-03 0. -1.
    9900012    2    1    2    0    0  0.20354901702E+02 -0.34552971724E+02  0.67034263421E+01  0.50528858310E+02  0.29999995319E+02 0.  0.
         12    1    1    2    0    0 -0.20354901702E+02  0.34552971724E+02 -0.67034263421E+01  0.40659141690E+02  0.00000000000E+00 0. -1.
         11    1    3    3    0    0  0.16724126099E+02 -0.27657484703E+02  0.11904111883E+01  0.32342695201E+02  0.51100000000E-03 0. -1.
        -11    1    3    3    0    0 -0.60115500850E+01 -0.29682956870E+01  0.35676363895E+01  0.75945732849E+01  0.51100000000E-03 0.  1.
        -12    1    3    3    0    0  0.96423256884E+01 -0.39271913342E+01  0.19453787643E+01  0.10591589824E+02  0.00000000000E+00 0.  1.
</event>
<event>
 7    1  0.2973028E-011  0.5052891E+02  0.7816164E-02  0.1300439E+00
        -11   -1    0    0    0    0  0.00000000000E+00  0.00000000000E+00  0.45593999997E+02  0.45594000000E+02  0.51100000000E-03 0. -1.
         11   -1    0    0    0    0 -0.00000000000E+00 -0.00000000000E+00 -0.45593999997E+02  0.45594000000E+02  0.51100000000E-03 0.  1.
    9900012    2    1    2    0    0  0.13501407521E+02 -0.37233435351E+02 -0.91948448146E+01  0.50528906500E+02  0.30000141798E+02 0.  0.
         12    1    1    2    0    0 -0.13501407521E+02  0.37233435351E+02  0.91948448146E+01  0.40659093500E+02  0.00000000000E+00 0. -1.
         11    1    3    3    0    0  0.32325416005E+01 -0.87149267152E+00 -0.18242231228E+01  0.38126912986E+01  0.51100000000E-03 0. -1.
        -11    1    3    3    0    0 -0.59623485601E+01 -0.26447706841E+02 -0.42909289946E+01  0.27448913811E+02  0.51100000000E-03 0.  1.
        -12    1    3    3    0    0  0.16231214481E+02 -0.99142358382E+01 -0.30796926973E+01  0.19267301391E+02  0.00000000000E+00 0.  1.
</event>
<event>
 7    1  0.2973028E-011  0.5052887E+02  0.7816164E-02  0.1300439E+00
        -11   -1    0    0    0    0  0.00000000000E+00  0.00000000000E+00  0.45593999997E+02  0.45594000000E+02  0.51100000000E-03 0. -1.
         11   -1    0    0    0    0 -0.00000000000E+00 -0.00000000000E+00 -0.45593999997E+02  0.45594000000E+02  0.51100000000E-03 0.  1.
    9900012    2    1    2    0    0  0.78809479341E+01 -0.61277953739E+01 -0.39414539643E+02  0.50528866318E+02  0.30000019661E+02 0.  0.
         12    1    1    2    0    0 -0.78809479341E+01  0.61277953739E+01  0.39414539643E+02  0.40659133682E+02  0.00000000000E+00 0. -1.
         11    1    3    3    0    0 -0.14737361918E+01 -0.15332441452E+02 -0.13690453082E+02  0.20607866583E+02  0.51100000000E-03 0.  1.
        -11    1    3    3    0    0  0.10667878281E+02  0.71608404946E+01 -0.21885910332E+02  0.25378619642E+02  0.51100000000E-03 0. -1.
        -12    1    3    3    0    0 -0.13131941554E+01  0.20438055834E+01 -0.38381762289E+01  0.45423800938E+01  0.00000000000E+00 0.  1.
</event>
<event>
 7    1  0.2973028E-011  0.5052886E+02  0.7816164E-02  0.1300439E+00
        -11   -1    0    0    0    0  0.00000000000E+00  0.00000000000E+00  0.45593999997E+02  0.45594000000E+02  0.51100000000E-03 0. -1.
         11   -1    0    0    0    0 -0.00000000000E+00 -0.00000000000E+00 -0.45593999997E+02  0.45594000000E+02  0.51100000000E-03 0.  1.
    9900012    2    1    2    0    0 -0.35632058800E+02 -0.14550221963E+02 -0.13107736005E+02  0.50528864290E+02  0.30000013497E+02 0.  0.
         12    1    1    2    0    0  0.35632058800E+02  0.14550221963E+02  0.13107736005E+02  0.40659135710E+02  0.00000000000E+00 0. -1.
         11    1    3    3    0    0 -0.62606908587E+01 -0.13963371482E+02 -0.32880132846E+00  0.15306211280E+02  0.51100000000E-03 0. -1.
        -11    1    3    3    0    0 -0.18571835150E+02 -0.22827803262E+01 -0.15103182031E+02  0.24046418747E+02  0.51100000000E-03 0.  1.
        -12    1    3    3    0    0 -0.10799532791E+02  0.16959298453E+01  0.23242473541E+01  0.11176234263E+02  0.00000000000E+00 0.  1.
</event>
<event>
 7    1  0.2973028E-011  0.5052877E+02  0.7816164E-02  0.1300439E+00
        -11   -1    0    0    0    0  0.00000000000E+00  0.00000000000E+00  0.45593999997E+02  0.45594000000E+02  0.51100000000E-03 0.  1.
         11   -1    0    0    0    0 -0.00000000000E+00 -0.00000000000E+00 -0.45593999997E+02  0.45594000000E+02  0.51100000000E-03 0. -1.
    9900012    2    1    2    0    0  0.27911541436E+02  0.24226018609E+02  0.16947539638E+02  0.50528767066E+02  0.29999717972E+02 0.  0.
         12    1    1    2    0    0 -0.27911541436E+02 -0.24226018609E+02 -0.16947539638E+02  0.40659232934E+02  0.00000000000E+00 0. -1.
         11    1    3    3    0    0  0.10374180924E+02  0.10118592510E+02 -0.52373617052E+01  0.15409072072E+02  0.51100000000E-03 0. -1.
        -11    1    3    3    0    0  0.98519710785E+01 -0.44529527786E+00  0.12853097451E+02  0.16200670862E+02  0.51100000000E-03 0.  1.
        -12    1    3    3    0    0  0.76853894330E+01  0.14552721378E+02  0.93318038926E+01  0.18919024132E+02  0.00000000000E+00 0.  1.
</event>
<event>
 7    1  0.2973028E-011  0.5052885E+02  0.7816164E-02  0.1300439E+00
        -11   -1    0    0    0    0  0.00000000000E+00  0.00000000000E+00  0.45593999997E+02  0.45594000000E+02  0.51100000000E-03 0.  1.
         11   -1    0    0    0    0 -0.00000000000E+00 -0.00000000000E+00 -0.45593999997E+02  0.45594000000E+02  0.51100000000E-03 0. -1.
    9900012    2    1    2    0    0  0.19044814920E+02  0.84659109331E+00  0.35913019443E+02  0.50528847804E+02  0.29999963384E+02 0.  0.
         12    1    1    2    0    0 -0.19044814920E+02 -0.84659109331E+00 -0.35913019443E+02  0.40659152196E+02  0.00000000000E+00 0. -1.
         11    1    3    3    0    0  0.15628323532E+02 -0.98290700818E+01  0.16447369514E+02  0.24725919180E+02  0.51100000000E-03 0. -1.
        -11    1    3    3    0    0 -0.41969397636E+00 -0.14431773894E+00  0.12219164809E+02  0.12227222070E+02  0.51100000000E-03 0.  1.
         12    1    3    3    0    0  0.38361853637E+01  0.10819978914E+02  0.72464851203E+01  0.13575706554E+02  0.00000000000E+00 0. -1.
</event>
<event>
 7    1  0.2973028E-011  0.5052885E+02  0.7816164E-02  0.1300439E+00
        -11   -1    0    0    0    0  0.00000000000E+00  0.00000000000E+00  0.45593999997E+02  0.45594000000E+02  0.51100000000E-03 0. -1.
         11   -1    0    0    0    0 -0.00000000000E+00 -0.00000000000E+00 -0.45593999997E+02  0.45594000000E+02  0.51100000000E-03 0.  1.
    9900012    2    1    2    0    0 -0.30765276080E+02 -0.26565927812E+02  0.95699563464E+00  0.50528848835E+02  0.29999966518E+02 0.  0.
         12    1    1    2    0    0  0.30765276080E+02  0.26565927812E+02 -0.95699563464E+00  0.40659151165E+02  0.00000000000E+00 0. -1.
         11    1    3    3    0    0  0.42712863157E+00  0.47215779609E+00  0.83090218750E+01  0.83333796645E+01  0.51100000000E-03 0. -1.
        -11    1    3    3    0    0 -0.25491854292E+02 -0.23637537774E+02 -0.74642252623E+01  0.35556750221E+02  0.51100000000E-03 0.  1.
         12    1    3    3    0    0 -0.57005504201E+01 -0.34005478345E+01  0.11219902193E+00  0.66387189493E+01  0.00000000000E+00 0. -1.
</event>
<event>
 7    1  0.2973028E-011  0.5052889E+02  0.7816164E-02  0.1300439E+00
        -11   -1    0    0    0    0  0.00000000000E+00  0.00000000000E+00  0.45593999997E+02  0.45594000000E+02  0.51100000000E-03 0. -1.
         11   -1    0    0    0    0 -0.00000000000E+00 -0.00000000000E+00 -0.45593999997E+02  0.45594000000E+02  0.51100000000E-03 0.  1.
    9900012    2    1    2    0    0 -0.40583803636E+02  0.25563083123E+00  0.24602882124E+01  0.50528886842E+02  0.30000082045E+02 0.  0.
         12    1    1    2    0    0  0.40583803636E+02 -0.25563083123E+00 -0.24602882124E+01  0.40659113158E+02  0.00000000000E+00 0. -1.
         11    1    3    3    0    0 -0.21990830266E+02  0.13269003370E+02  0.53393118363E+01  0.26233019600E+02  0.51100000000E-03 0. -1.
        -11    1    3    3    0    0 -0.87206908027E+01 -0.92130468661E+01 -0.47637487139E+01  0.13550792696E+02  0.51100000000E-03 0.  1.
         12    1    3    3    0    0 -0.98722825680E+01 -0.38003256726E+01  0.18847250900E+01  0.10745074545E+02  0.00000000000E+00 0. -1.
</event>
<event>
 7    1  0.2973028E-011  0.5052886E+02  0.7816164E-02  0.1300439E+00
        -11   -1    0    0    0    0  0.00000000000E+00  0.00000000000E+00  0.45593999997E+02  0.45594000000E+02  0.51100000000E-03 0.  1.
         11   -1    0    0    0    0 -0.00000000000E+00 -0.00000000000E+00 -0.45593999997E+02  0.45594000000E+02  0.51100000000E-03 0. -1.
    9900012    2    1    2    0    0 -0.23900123333E+02 -0.10874375336E+02  0.31043481151E+02  0.50528860114E+02  0.30000000802E+02 0.  0.
         12    1    1    2    0    0  0.23900123333E+02  0.10874375336E+02 -0.31043481151E+02  0.40659139886E+02  0.00000000000E+00 0. -1.
         11    1    3    3    0    0  0.34260049639E+01  0.56920766253E+01  0.19069659353E+01  0.69118568895E+01  0.51100000000E-03 0. -1.
        -11    1    3    3    0    0 -0.38940463589E+01 -0.27707273145E+01  0.73818715256E+01  0.87938930160E+01  0.51100000000E-03 0.  1.
         12    1    3    3    0    0 -0.23432081938E+02 -0.13795724647E+02  0.21754643691E+02  0.34823110208E+02  0.00000000000E+00 0. -1.
</event>
<event>
 7    1  0.2973028E-011  0.5052886E+02  0.7816164E-02  0.1300439E+00
        -11   -1    0    0    0    0  0.00000000000E+00  0.00000000000E+00  0.45593999997E+02  0.45594000000E+02  0.51100000000E-03 0. -1.
         11   -1    0    0    0    0 -0.00000000000E+00 -0.00000000000E+00 -0.45593999997E+02  0.45594000000E+02  0.51100000000E-03 0.  1.
    9900012    2    1    2    0    0  0.16183816713E+02  0.30233215981E+02 -0.21844954768E+02  0.50528864240E+02  0.30000013344E+02 0.  0.
         12    1    1    2    0    0 -0.16183816713E+02 -0.30233215981E+02  0.21844954768E+02  0.40659135760E+02  0.00000000000E+00 0. -1.
         11    1    3    3    0    0  0.59614447276E-01  0.80785582426E+00  0.58002527421E+01  0.58565448046E+01  0.51100000000E-03 0. -1.
        -11    1    3    3    0    0  0.15806555188E+02  0.20187092533E+02 -0.18096467613E+02  0.31382288511E+02  0.51100000000E-03 0.  1.
         12    1    3    3    0    0  0.31764707776E+00  0.92382676232E+01 -0.95487398975E+01  0.13290030924E+02  0.00000000000E+00 0. -1.
</event>
<event>
 7    1  0.2973028E-011  0.5052886E+02  0.7816164E-02  0.1300439E+00
        -11   -1    0    0    0    0  0.00000000000E+00  0.00000000000E+00  0.45593999997E+02  0.45594000000E+02  0.51100000000E-03 0. -1.
         11   -1    0    0    0    0 -0.00000000000E+00 -0.00000000000E+00 -0.45593999997E+02  0.45594000000E+02  0.51100000000E-03 0.  1.
    9900012    2    1    2    0    0  0.18563124233E+02  0.33664418625E+02 -0.13239452142E+02  0.50528858892E+02  0.29999997087E+02 0.  0.
         12    1    1    2    0    0 -0.18563124233E+02 -0.33664418625E+02  0.13239452142E+02  0.40659141108E+02  0.00000000000E+00 0. -1.
         11    1    3    3    0    0  0.28017233326E+00  0.27647825458E+01 -0.17262591200E+01  0.32714660127E+01  0.51100000000E-03 0. -1.
        -11    1    3    3    0    0  0.70071213329E+01  0.16063660951E+02  0.88680401541E+01  0.19641361688E+02  0.51100000000E-03 0.  1.
        -12    1    3    3    0    0  0.11275830567E+02  0.14835975128E+02 -0.20381233176E+02  0.27616031191E+02  0.00000000000E+00 0.  1.
</event>
<event>
 7    1  0.2973028E-011  0.5052886E+02  0.7816164E-02  0.1300439E+00
        -11   -1    0    0    0    0  0.00000000000E+00  0.00000000000E+00  0.45593999997E+02  0.45594000000E+02  0.51100000000E-03 0.  1.
         11   -1    0    0    0    0 -0.00000000000E+00 -0.00000000000E+00 -0.45593999997E+02  0.45594000000E+02  0.51100000000E-03 0. -1.
    9900012    2    1    2    0    0 -0.23424594034E+02  0.29223174011E+02  0.15825931917E+02  0.50528860486E+02  0.30000001934E+02 0.  0.
         12    1    1    2    0    0  0.23424594034E+02 -0.29223174011E+02 -0.15825931917E+02  0.40659139514E+02  0.00000000000E+00 0. -1.
         11    1    3    3    0    0 -0.10547645279E+02  0.28614663904E+01 -0.27388932241E+01  0.11266869449E+02  0.51100000000E-03 0. -1.
        -11    1    3    3    0    0 -0.73332980640E+01  0.17844049526E+02  0.21299473895E+02  0.28737692190E+02  0.51100000000E-03 0.  1.
         12    1    3    3    0    0 -0.55436506917E+01  0.85176580951E+01 -0.27346487537E+01  0.10524298847E+02  0.00000000000E+00 0. -1.
</event>
<event>
 7    1  0.2973028E-011  0.5052881E+02  0.7816164E-02  0.1300439E+00
        -11   -1    0    0    0    0  0.00000000000E+00  0.00000000000E+00  0.45593999997E+02  0.45594000000E+02  0.51100000000E-03 0.  1.
         11   -1    0    0    0    0 -0.00000000000E+00 -0.00000000000E+00 -0.45593999997E+02  0.45594000000E+02  0.51100000000E-03 0. -1.
    9900012    2    1    2    0    0  0.13987210665E+02  0.31603247724E+02 -0.21418737944E+02  0.50528810830E+02  0.29999850997E+02 0.  0.
         12    1    1    2    0    0 -0.13987210665E+02 -0.31603247724E+02  0.21418737944E+02  0.40659189170E+02  0.00000000000E+00 0. -1.
         11    1    3    3    0    0 -0.57825099705E+00 -0.32338346918E+00 -0.54413617968E+01  0.54815480978E+01  0.51100000000E-03 0. -1.
        -11    1    3    3    0    0  0.13975742268E+02  0.35454224784E+02 -0.12627566543E+02  0.40146965813E+02  0.51100000000E-03 0.  1.
        -12    1    3    3    0    0  0.58971939408E+00 -0.35275935907E+01 -0.33498096046E+01  0.49002969187E+01  0.00000000000E+00 0.  1.
</event>
<event>
 7    1  0.2973028E-011  0.5052887E+02  0.7816164E-02  0.1300439E+00
        -11   -1    0    0    0    0  0.00000000000E+00  0.00000000000E+00  0.45593999997E+02  0.45594000000E+02  0.51100000000E-03 0. -1.
         11   -1    0    0    0    0 -0.00000000000E+00 -0.00000000000E+00 -0.45593999997E+02  0.45594000000E+02  0.51100000000E-03 0.  1.
    9900012    2    1    2    0    0 -0.19915157320E+02  0.35178951273E+02 -0.43580867723E+01  0.50528867889E+02  0.30000024436E+02 0.  0.
         12    1    1    2    0    0  0.19915157320E+02 -0.35178951273E+02  0.43580867723E+01  0.40659132111E+02  0.00000000000E+00 0. -1.
         11    1    3    3    0    0 -0.11937859517E+01 -0.19332544239E+01  0.45832275353E+01  0.51155226974E+01  0.51100000000E-03 0. -1.
        -11    1    3    3    0    0 -0.17738004697E+02  0.38748198416E+02 -0.85195711987E+01  0.43458517977E+02  0.51100000000E-03 0.  1.
        -12    1    3    3    0    0 -0.98336667093E+00 -0.16359927196E+01 -0.42174310889E+00  0.19548272144E+01  0.00000000000E+00 0.  1.
</event>
<event>
 7    1  0.2973028E-011  0.5052880E+02  0.7816164E-02  0.1300439E+00
        -11   -1    0    0    0    0  0.00000000000E+00  0.00000000000E+00  0.45593999997E+02  0.45594000000E+02  0.51100000000E-03 0.  1.
         11   -1    0    0    0    0 -0.00000000000E+00 -0.00000000000E+00 -0.45593999997E+02  0.45594000000E+02  0.51100000000E-03 0. -1.
    9900012    2    1    2    0    0 -0.27999307788E+02 -0.17968387217E+02  0.23374049279E+02  0.50528802326E+02  0.29999825149E+02 0.  0.
         12    1    1    2    0    0  0.27999307788E+02  0.17968387217E+02 -0.23374049279E+02  0.40659197674E+02  0.00000000000E+00 0. -1.
         11    1    3    3    0    0 -0.13817571054E+01 -0.22891537619E+01 -0.60913102295E+01  0.66523332912E+01  0.51100000000E-03 0. -1.
        -11    1    3    3    0    0 -0.21831633556E+02 -0.76096109514E+01  0.21414917344E+02  0.31513887219E+02  0.51100000000E-03 0.  1.
        -12    1    3    3    0    0 -0.47859171267E+01 -0.80696225034E+01  0.80504421651E+01  0.12362581815E+02  0.00000000000E+00 0.  1.
</event>
<event>
 7    1  0.2973028E-011  0.5052877E+02  0.7816164E-02  0.1300439E+00
        -11   -1    0    0    0    0  0.00000000000E+00  0.00000000000E+00  0.45593999997E+02  0.45594000000E+02  0.51100000000E-03 0. -1.
         11   -1    0    0    0    0 -0.00000000000E+00 -0.00000000000E+00 -0.45593999997E+02  0.45594000000E+02  0.51100000000E-03 0.  1.
    9900012    2    1    2    0    0  0.35768077848E+01  0.40498553256E+02 -0.49665485390E+00  0.50528769365E+02  0.29999724961E+02 0.  0.
         12    1    1    2    0    0 -0.35768077848E+01 -0.40498553256E+02  0.49665485390E+00  0.40659230635E+02  0.00000000000E+00 0. -1.
         11    1    3    3    0    0  0.11973944687E+02  0.89097920923E+01 -0.21264028329E+01  0.15075852738E+02  0.51100000000E-03 0. -1.
        -11    1    3    3    0    0 -0.11555900299E+02  0.20925986424E+02 -0.13404827338E+01  0.23942277121E+02  0.51100000000E-03 0.  1.
        -12    1    3    3    0    0  0.31587633965E+01  0.10662774740E+02  0.29702307128E+01  0.11510639506E+02  0.00000000000E+00 0.  1.
</event>
<event>
 7    1  0.2973028E-011  0.5052886E+02  0.7816164E-02  0.1300439E+00
        -11   -1    0    0    0    0  0.00000000000E+00  0.00000000000E+00  0.45593999997E+02  0.45594000000E+02  0.51100000000E-03 0.  1.
         11   -1    0    0    0    0 -0.00000000000E+00 -0.00000000000E+00 -0.45593999997E+02  0.45594000000E+02  0.51100000000E-03 0. -1.
    9900012    2    1    2    0    0 -0.25032649180E+02  0.32026835854E+02 -0.90201519816E+00  0.50528863620E+02  0.30000011459E+02 0.  0.
         12    1    1    2    0    0  0.25032649180E+02 -0.32026835854E+02  0.90201519816E+00  0.40659136380E+02  0.00000000000E+00 0. -1.
         11    1    3    3    0    0 -0.21228595186E+02  0.30231012013E+02 -0.39557043832E+01  0.37151244102E+02  0.51100000000E-03 0. -1.
        -11    1    3    3    0    0 -0.82688160752E+01  0.19700752475E+01  0.14083336043E+01  0.86161429636E+01  0.51100000000E-03 0.  1.
         12    1    3    3    0    0  0.44647620811E+01 -0.17425140670E+00  0.16453555808E+01  0.47614765547E+01  0.00000000000E+00 0. -1.
</event>
<event>
 7    1  0.2973028E-011  0.5052886E+02  0.7816164E-02  0.1300439E+00
        -11   -1    0    0    0    0  0.00000000000E+00  0.00000000000E+00  0.45593999997E+02  0.45594000000E+02  0.51100000000E-03 0. -1.
         11   -1    0    0    0    0 -0.00000000000E+00 -0.00000000000E+00 -0.45593999997E+02  0.45594000000E+02  0.51100000000E-03 0.  1.
    9900012    2    1    2    0    0  0.63043734106E+00  0.19003358595E+01 -0.40609816741E+02  0.50528856583E+02  0.29999990070E+02 0.  0.
         12    1    1    2    0    0 -0.63043734106E+00 -0.19003358595E+01  0.40609816741E+02  0.40659143417E+02  0.00000000000E+00 0. -1.
         11    1    3    3    0    0 -0.11901385778E+02  0.42272008573E-01 -0.80279812497E+01  0.14355948369E+02  0.51100000000E-03 0. -1.
        -11    1    3    3    0    0  0.12881834040E+02  0.19734869124E+01 -0.21896570735E+02  0.25481289391E+02  0.51100000000E-03 0.  1.
         12    1    3    3    0    0 -0.35001092049E+00 -0.11542306153E+00 -0.10685264757E+02  0.10691618823E+02  0.00000000000E+00 0. -1.
</event>
<event>
 7    1  0.2973028E-011  0.5052889E+02  0.7816164E-02  0.1300439E+00
        -11   -1    0    0    0    0  0.00000000000E+00  0.00000000000E+00  0.45593999997E+02  0.45594000000E+02  0.51100000000E-03 0.  1.
         11   -1    0    0    0    0 -0.00000000000E+00 -0.00000000000E+00 -0.45593999997E+02  0.45594000000E+02  0.51100000000E-03 0. -1.
    9900012    2    1    2    0    0  0.87376543209E+01  0.55920017468E+00  0.39705217838E+02  0.50528885014E+02  0.30000076489E+02 0.  0.
         12    1    1    2    0    0 -0.87376543209E+01 -0.55920017468E+00 -0.39705217838E+02  0.40659114986E+02  0.00000000000E+00 0. -1.
         11    1    3    3    0    0  0.14365264742E+02 -0.44487620624E+01  0.22369183285E+02  0.26954270090E+02  0.51100000000E-03 0. -1.
        -11    1    3    3    0    0 -0.80419131638E+01  0.77108221542E+01  0.84665339959E+01  0.13993260656E+02  0.51100000000E-03 0.  1.
        -12    1    3    3    0    0  0.24143027424E+01 -0.27028599171E+01  0.88695005575E+01  0.95813542677E+01  0.00000000000E+00 0.  1.
</event>
<event>
 7    1  0.2973028E-011  0.5052894E+02  0.7816164E-02  0.1300439E+00
        -11   -1    0    0    0    0  0.00000000000E+00  0.00000000000E+00  0.45593999997E+02  0.45594000000E+02  0.51100000000E-03 0.  1.
         11   -1    0    0    0    0 -0.00000000000E+00 -0.00000000000E+00 -0.45593999997E+02  0.45594000000E+02  0.51100000000E-03 0. -1.
    9900012    2    1    2    0    0  0.17204451466E+02  0.98398393281E+01  0.35501314573E+02  0.50528942895E+02  0.30000252422E+02 0.  0.
         12    1    1    2    0    0 -0.17204451466E+02 -0.98398393281E+01 -0.35501314573E+02  0.40659057105E+02  0.00000000000E+00 0. -1.
         11    1    3    3    0    0  0.81198267392E+01  0.68747772275E+00 -0.30305197287E+01  0.86941510213E+01  0.51100000000E-03 0. -1.
        -11    1    3    3    0    0  0.10498363217E+01 -0.26109839623E+00  0.16730997672E+02  0.16765936062E+02  0.51100000000E-03 0.  1.
         12    1    3    3    0    0  0.80347884049E+01  0.94134600016E+01  0.21800836630E+02  0.25068855811E+02  0.00000000000E+00 0. -1.
</event>
<event>
 7    1  0.2973028E-011  0.5052886E+02  0.7816164E-02  0.1300439E+00
        -11   -1    0    0    0    0  0.00000000000E+00  0.00000000000E+00  0.45593999997E+02  0.45594000000E+02  0.51100000000E-03 0.  1.
         11   -1    0    0    0    0 -0.00000000000E+00 -0.00000000000E+00 -0.45593999997E+02  0.45594000000E+02  0.51100000000E-03 0. -1.
    9900012    2    1    2    0    0 -0.21849978332E+02 -0.12484242909E+01  0.34266386210E+02  0.50528864000E+02  0.30000012615E+02 0.  0.
         12    1    1    2    0    0  0.21849978332E+02  0.12484242909E+01 -0.34266386210E+02  0.40659136000E+02  0.00000000000E+00 0. -1.
         11    1    3    3    0    0 -0.24912348092E+01  0.71374316665E+00 -0.48622294930E+01  0.55097147010E+01  0.51100000000E-03 0. -1.
        -11    1    3    3    0    0 -0.15232517344E+02 -0.26112170152E+01  0.37457108388E+02  0.40520155577E+02  0.51100000000E-03 0.  1.
        -12    1    3    3    0    0 -0.41262261791E+01  0.64904955763E+00  0.16715073158E+01  0.44989937226E+01  0.00000000000E+00 0.  1.
</event>
<event>
 7    1  0.2973028E-011  0.5052887E+02  0.7816164E-02  0.1300439E+00
        -11   -1    0    0    0    0  0.00000000000E+00  0.00000000000E+00  0.45593999997E+02  0.45594000000E+02  0.51100000000E-03 0.  1.
         11   -1    0    0    0    0 -0.00000000000E+00 -0.00000000000E+00 -0.45593999997E+02  0.45594000000E+02  0.51100000000E-03 0. -1.
    9900012    2    1    2    0    0 -0.30486747090E+02 -0.17865052596E+02  0.20113753840E+02  0.50528868849E+02  0.30000027353E+02 0.  0.
         12    1    1    2    0    0  0.30486747090E+02  0.17865052596E+02 -0.20113753840E+02  0.40659131151E+02  0.00000000000E+00 0. -1.
         11    1    3    3    0    0  0.13178113179E+00  0.52442329924E+01  0.54053790727E+01  0.75324278374E+01  0.51100000000E-03 0. -1.
        -11    1    3    3    0    0 -0.18469406654E+02 -0.20402302499E+02  0.12987366209E+02  0.30430981100E+02  0.51100000000E-03 0.  1.
         12    1    3    3    0    0 -0.12149121568E+02 -0.27069830897E+01  0.17210085588E+01  0.12565459912E+02  0.00000000000E+00 0. -1.
</event>
<event>
 7    1  0.2973028E-011  0.5052886E+02  0.7816164E-02  0.1300439E+00
        -11   -1    0    0    0    0  0.00000000000E+00  0.00000000000E+00  0.45593999997E+02  0.45594000000E+02  0.51100000000E-03 0. -1.
         11   -1    0    0    0    0 -0.00000000000E+00 -0.00000000000E+00 -0.45593999997E+02  0.45594000000E+02  0.51100000000E-03 0.  1.
    9900012    2    1    2    0    0  0.49868735538E+01  0.32947382299E+01 -0.40217428308E+02  0.50528858991E+02  0.29999997389E+02 0.  0.
         12    1    1    2    0    0 -0.49868735538E+01 -0.32947382299E+01  0.40217428308E+02  0.40659141009E+02  0.00000000000E+00 0. -1.
         11    1    3    3    0    0 -0.88577300145E+00  0.40651925802E+01  0.37759623301E+01  0.56185653243E+01  0.51100000000E-03 0. -1.
        -11    1    3    3    0    0  0.55458118236E+01  0.15110789006E+01 -0.38865400058E+02  0.39288149742E+02  0.51100000000E-03 0.  1.
         12    1    3    3    0    0  0.32683473163E+00 -0.22815332509E+01 -0.51279905809E+01  0.56221439251E+01  0.00000000000E+00 0. -1.
</event>
<event>
 7    1  0.2973028E-011  0.5052887E+02  0.7816164E-02  0.1300439E+00
        -11   -1    0    0    0    0  0.00000000000E+00  0.00000000000E+00  0.45593999997E+02  0.45594000000E+02  0.51100000000E-03 0.  1.
         11   -1    0    0    0    0 -0.00000000000E+00 -0.00000000000E+00 -0.45593999997E+02  0.45594000000E+02  0.51100000000E-03 0. -1.
    9900012    2    1    2    0    0 -0.22958603918E+02 -0.22860258874E+02  0.24565748602E+02  0.50528868996E+02  0.30000027799E+02 0.  0.
         12    1    1    2    0    0  0.22958603918E+02  0.22860258874E+02 -0.24565748602E+02  0.40659131004E+02  0.00000000000E+00 0. -1.
         11    1    3    3    0    0  0.30946935185E+00 -0.25251807824E+01  0.16350390246E+01  0.30241795807E+01  0.51100000000E-03 0. -1.
        -11    1    3    3    0    0  0.61795477330E+01 -0.30027307130E+01  0.11037393414E+01  0.69585517685E+01  0.51100000000E-03 0.  1.
        -12    1    3    3    0    0 -0.29447621002E+02 -0.17332347379E+02  0.21826970236E+02  0.40546137647E+02  0.00000000000E+00 0.  1.
</event>
<event>
 7    1  0.2973028E-011  0.5052885E+02  0.7816164E-02  0.1300439E+00
        -11   -1    0    0    0    0  0.00000000000E+00  0.00000000000E+00  0.45593999997E+02  0.45594000000E+02  0.51100000000E-03 0. -1.
         11   -1    0    0    0    0 -0.00000000000E+00 -0.00000000000E+00 -0.45593999997E+02  0.45594000000E+02  0.51100000000E-03 0.  1.
    9900012    2    1    2    0    0 -0.13776293824E+02  0.36982905270E+02 -0.97798032619E+01  0.50528854589E+02  0.29999984009E+02 0.  0.
         12    1    1    2    0    0  0.13776293824E+02 -0.36982905270E+02  0.97798032619E+01  0.40659145411E+02  0.00000000000E+00 0. -1.
         11    1    3    3    0    0 -0.14412149355E+02  0.30708986701E+02 -0.52842222561E+01  0.34331835348E+02  0.51100000000E-03 0.  1.
        -11    1    3    3    0    0 -0.57128467080E+01 -0.11014449825E+01 -0.13871999833E+01  0.59811472656E+01  0.51100000000E-03 0. -1.
         12    1    3    3    0    0  0.63487022394E+01  0.73753635509E+01 -0.31083810225E+01  0.10215871975E+02  0.00000000000E+00 0. -1.
</event>
<event>
 7    1  0.2973028E-011  0.5052886E+02  0.7816164E-02  0.1300439E+00
        -11   -1    0    0    0    0  0.00000000000E+00  0.00000000000E+00  0.45593999997E+02  0.45594000000E+02  0.51100000000E-03 0. -1.
         11   -1    0    0    0    0 -0.00000000000E+00 -0.00000000000E+00 -0.45593999997E+02  0.45594000000E+02  0.51100000000E-03 0.  1.
    9900012    2    1    2    0    0  0.11518966682E+01  0.29215612994E+02 -0.28253968259E+02  0.50528860426E+02  0.30000001751E+02 0.  0.
         12    1    1    2    0    0 -0.11518966682E+01 -0.29215612994E+02  0.28253968259E+02  0.40659139574E+02  0.00000000000E+00 0. -1.
         11    1    3    3    0    0  0.16696163387E+01 -0.56753097510E+01 -0.44315116753E+01  0.73915529814E+01  0.51100000000E-03 0. -1.
        -11    1    3    3    0    0 -0.39491885429E+01  0.17502396693E+02 -0.92193903017E+01  0.20172435102E+02  0.51100000000E-03 0.  1.
         12    1    3    3    0    0  0.34314688724E+01  0.17388526051E+02 -0.14603066282E+02  0.22964872342E+02  0.00000000000E+00 0. -1.
</event>
<event>
 7    1  0.2973028E-011  0.5052886E+02  0.7816164E-02  0.1300439E+00
        -11   -1    0    0    0    0  0.00000000000E+00  0.00000000000E+00  0.45593999997E+02  0.45594000000E+02  0.51100000000E-03 0.  1.
         11   -1    0    0    0    0 -0.00000000000E+00 -0.00000000000E+00 -0.45593999997E+02  0.45594000000E+02  0.51100000000E-03 0. -1.
    9900012    2    1    2    0    0 -0.13030745488E+02  0.16622111398E+02  0.34742922325E+02  0.50528861212E+02  0.30000004141E+02 0.  0.
         12    1    1    2    0    0  0.13030745488E+02 -0.16622111398E+02 -0.34742922325E+02  0.40659138788E+02  0.00000000000E+00 0. -1.
         11    1    3    3    0    0 -0.12171482465E+02  0.84371492227E+01  0.27632568778E+02  0.31351065850E+02  0.51100000000E-03 0. -1.
        -11    1    3    3    0    0  0.61911549748E+01  0.34036675970E+01  0.79287580612E+01  0.10619819099E+02  0.51100000000E-03 0.  1.
         12    1    3    3    0    0 -0.70504179971E+01  0.47812945779E+01 -0.81840451471E+00  0.85579762634E+01  0.00000000000E+00 0. -1.
</event>
<event>
 7    1  0.2973028E-011  0.5052872E+02  0.7816164E-02  0.1300439E+00
        -11   -1    0    0    0    0  0.00000000000E+00  0.00000000000E+00  0.45593999997E+02  0.45594000000E+02  0.51100000000E-03 0.  1.
         11   -1    0    0    0    0 -0.00000000000E+00 -0.00000000000E+00 -0.45593999997E+02  0.45594000000E+02  0.51100000000E-03 0. -1.
    9900012    2    1    2    0    0 -0.32847374041E+02 -0.92652309016E+00  0.23945117632E+02  0.50528719573E+02  0.29999573610E+02 0.  0.
         12    1    1    2    0    0  0.32847374041E+02  0.92652309016E+00 -0.23945117632E+02  0.40659280427E+02  0.00000000000E+00 0. -1.
         11    1    3    3    0    0 -0.52915990703E+01  0.11899586804E+02  0.89831529742E+01  0.15820816175E+02  0.51100000000E-03 0. -1.
        -11    1    3    3    0    0 -0.27943282473E+02 -0.12450219092E+02  0.15148567572E+02  0.34136697124E+02  0.51100000000E-03 0.  1.
        -12    1    3    3    0    0  0.38750750192E+00 -0.37589080209E+00 -0.18660291389E+00  0.57120627326E+00  0.00000000000E+00 0.  1.
</event>
<event>
 7    1  0.2973028E-011  0.5052886E+02  0.7816164E-02  0.1300439E+00
        -11   -1    0    0    0    0  0.00000000000E+00  0.00000000000E+00  0.45593999997E+02  0.45594000000E+02  0.51100000000E-03 0. -1.
         11   -1    0    0    0    0 -0.00000000000E+00 -0.00000000000E+00 -0.45593999997E+02  0.45594000000E+02  0.51100000000E-03 0.  1.
    9900012    2    1    2    0    0  0.10447331816E+02  0.74577481670E+01 -0.38579800227E+02  0.50528859141E+02  0.29999997846E+02 0.  0.
         12    1    1    2    0    0 -0.10447331816E+02 -0.74577481670E+01  0.38579800227E+02  0.40659140859E+02  0.00000000000E+00 0. -1.
         11    1    3    3    0    0  0.16435200978E+02 -0.22283607307E+01 -0.28783547964E+02  0.33220085135E+02  0.51100000000E-03 0. -1.
        -11    1    3    3    0    0 -0.66149892132E+01  0.25265619197E+01 -0.47257270205E+01  0.85131717684E+01  0.51100000000E-03 0.  1.
         12    1    3    3    0    0  0.62712005142E+00  0.71595469780E+01 -0.50705252425E+01  0.87956022377E+01  0.00000000000E+00 0. -1.
</event>
<event>
 7    1  0.2973028E-011  0.5052886E+02  0.7816164E-02  0.1300439E+00
        -11   -1    0    0    0    0  0.00000000000E+00  0.00000000000E+00  0.45593999997E+02  0.45594000000E+02  0.51100000000E-03 0.  1.
         11   -1    0    0    0    0 -0.00000000000E+00 -0.00000000000E+00 -0.45593999997E+02  0.45594000000E+02  0.51100000000E-03 0. -1.
    9900012    2    1    2    0    0 -0.33640830812E+02 -0.19754306094E+02  0.11455444954E+02  0.50528864174E+02  0.30000013144E+02 0.  0.
         12    1    1    2    0    0  0.33640830812E+02  0.19754306094E+02 -0.11455444954E+02  0.40659135826E+02  0.00000000000E+00 0. -1.
         11    1    3    3    0    0 -0.32232352297E+02 -0.11946401885E+02 -0.17005667700E+01  0.34417044908E+02  0.51100000000E-03 0. -1.
        -11    1    3    3    0    0 -0.21624717280E+01 -0.43675990196E+01  0.10871202001E+02  0.11913657641E+02  0.51100000000E-03 0.  1.
         12    1    3    3    0    0  0.75399321259E+00 -0.34403051897E+01  0.22848097234E+01  0.41981616256E+01  0.00000000000E+00 0. -1.
</event>
<event>
 7    1  0.2973028E-011  0.5052886E+02  0.7816164E-02  0.1300439E+00
        -11   -1    0    0    0    0  0.00000000000E+00  0.00000000000E+00  0.45593999997E+02  0.45594000000E+02  0.51100000000E-03 0. -1.
         11   -1    0    0    0    0 -0.00000000000E+00 -0.00000000000E+00 -0.45593999997E+02  0.45594000000E+02  0.51100000000E-03 0.  1.
    9900012    2    1    2    0    0  0.19601026417E+02 -0.19064469905E+01 -0.35571494966E+02  0.50528855508E+02  0.29999986801E+02 0.  0.
         12    1    1    2    0    0 -0.19601026417E+02  0.19064469905E+01  0.35571494966E+02  0.40659144492E+02  0.00000000000E+00 0. -1.
         11    1    3    3    0    0  0.75110838217E+00  0.40599124993E+01 -0.28183012298E+02  0.28483841661E+02  0.51100000000E-03 0. -1.
        -11    1    3    3    0    0  0.18565776798E+02 -0.65838824733E+01 -0.78694041348E+01  0.21212333635E+02  0.51100000000E-03 0.  1.
        -12    1    3    3    0    0  0.28414123683E+00  0.61752298359E+00  0.48092146686E+00  0.83268021173E+00  0.00000000000E+00 0.  1.
</event>
<event>
 7    1  0.2973028E-011  0.5052886E+02  0.7816164E-02  0.1300439E+00
        -11   -1    0    0    0    0  0.00000000000E+00  0.00000000000E+00  0.45593999997E+02  0.45594000000E+02  0.51100000000E-03 0. -1.
         11   -1    0    0    0    0 -0.00000000000E+00 -0.00000000000E+00 -0.45593999997E+02  0.45594000000E+02  0.51100000000E-03 0.  1.
    9900012    2    1    2    0    0  0.33058864413E+01 -0.34437117565E+02 -0.21361694655E+02  0.50528856503E+02  0.29999989826E+02 0.  0.
         12    1    1    2    0    0 -0.33058864413E+01  0.34437117565E+02  0.21361694655E+02  0.40659143497E+02  0.00000000000E+00 0. -1.
         11    1    3    3    0    0 -0.56785832471E+01 -0.23401716867E+01 -0.13584732310E+02  0.14908643916E+02  0.51100000000E-03 0. -1.
        -11    1    3    3    0    0  0.53542308357E+01 -0.23725426110E+02 -0.11617549022E+01  0.24349811224E+02  0.51100000000E-03 0.  1.
         12    1    3    3    0    0  0.36302388526E+01 -0.83715197691E+01 -0.66152074424E+01  0.11270401363E+02  0.00000000000E+00 0. -1.
</event>
<event>
 7    1  0.2973028E-011  0.5052885E+02  0.7816164E-02  0.1300439E+00
        -11   -1    0    0    0    0  0.00000000000E+00  0.00000000000E+00  0.45593999997E+02  0.45594000000E+02  0.51100000000E-03 0.  1.
         11   -1    0    0    0    0 -0.00000000000E+00 -0.00000000000E+00 -0.45593999997E+02  0.45594000000E+02  0.51100000000E-03 0. -1.
    9900012    2    1    2    0    0 -0.37493976165E+02  0.11108911772E+02  0.11133732154E+02  0.50528853906E+02  0.29999981931E+02 0.  0.
         12    1    1    2    0    0  0.37493976165E+02 -0.11108911772E+02 -0.11133732154E+02  0.40659146094E+02  0.00000000000E+00 0. -1.
         11    1    3    3    0    0 -0.13326055905E+01  0.76390320280E+01  0.21339070032E+01  0.80426492740E+01  0.51100000000E-03 0. -1.
        -11    1    3    3    0    0 -0.32412961675E+02  0.50144430682E+01  0.20196139402E+00  0.32799169388E+02  0.51100000000E-03 0.  1.
        -12    1    3    3    0    0 -0.37484088995E+01 -0.15445633241E+01  0.87978637565E+01  0.96870352440E+01  0.00000000000E+00 0.  1.
</event>
<event>
 7    1  0.2973028E-011  0.5052887E+02  0.7816164E-02  0.1300439E+00
        -11   -1    0    0    0    0  0.00000000000E+00  0.00000000000E+00  0.45593999997E+02  0.45594000000E+02  0.51100000000E-03 0. -1.
         11   -1    0    0    0    0 -0.00000000000E+00 -0.00000000000E+00 -0.45593999997E+02  0.45594000000E+02  0.51100000000E-03 0.  1.
    9900012    2    1    2    0    0  0.20841777993E+02 -0.12715525530E+02 -0.32513088189E+02  0.50528865688E+02  0.30000017746E+02 0.  0.
         12    1    1    2    0    0 -0.20841777993E+02  0.12715525530E+02  0.32513088189E+02  0.40659134312E+02  0.00000000000E+00 0. -1.
         11    1    3    3    0    0  0.17864380211E+02 -0.89960350021E+01 -0.12386582341E+02  0.23526413846E+02  0.51100000000E-03 0. -1.
        -11    1    3    3    0    0  0.73123206940E+00  0.57137597404E+01 -0.14925975588E+02  0.15998953035E+02  0.51100000000E-03 0.  1.
        -12    1    3    3    0    0  0.22461657122E+01 -0.94332502678E+01 -0.52005302597E+01  0.11003498807E+02  0.00000000000E+00 0.  1.
</event>
<event>
 7    1  0.2973028E-011  0.5052887E+02  0.7816164E-02  0.1300439E+00
        -11   -1    0    0    0    0  0.00000000000E+00  0.00000000000E+00  0.45593999997E+02  0.45594000000E+02  0.51100000000E-03 0.  1.
         11   -1    0    0    0    0 -0.00000000000E+00 -0.00000000000E+00 -0.45593999997E+02  0.45594000000E+02  0.51100000000E-03 0. -1.
    9900012    2    1    2    0    0 -0.17875290884E+02 -0.13700989677E+02  0.33851465707E+02  0.50528869749E+02  0.30000030088E+02 0.  0.
         12    1    1    2    0    0  0.17875290884E+02  0.13700989677E+02 -0.33851465707E+02  0.40659130251E+02  0.00000000000E+00 0. -1.
         11    1    3    3    0    0 -0.11146299147E+02 -0.10771889541E+02  0.20391142486E+01  0.15634307664E+02  0.51100000000E-03 0. -1.
        -11    1    3    3    0    0 -0.79248559499E+01 -0.39246975731E+01  0.32114127650E+02  0.33309514975E+02  0.51100000000E-03 0.  1.
        -12    1    3    3    0    0  0.11958642126E+01  0.99559743684E+00 -0.30177619240E+00  0.15850471102E+01  0.00000000000E+00 0.  1.
</event>
<event>
 7    1  0.2973028E-011  0.5052886E+02  0.7816164E-02  0.1300439E+00
        -11   -1    0    0    0    0  0.00000000000E+00  0.00000000000E+00  0.45593999997E+02  0.45594000000E+02  0.51100000000E-03 0.  1.
         11   -1    0    0    0    0 -0.00000000000E+00 -0.00000000000E+00 -0.45593999997E+02  0.45594000000E+02  0.51100000000E-03 0. -1.
    9900012    2    1    2    0    0  0.19626302359E+02  0.58366184853E+01  0.35127028463E+02  0.50528856031E+02  0.29999988392E+02 0.  0.
         12    1    1    2    0    0 -0.19626302359E+02 -0.58366184853E+01 -0.35127028463E+02  0.40659143969E+02  0.00000000000E+00 0. -1.
         11    1    3    3    0    0  0.14121266147E+02  0.11377782528E+02  0.17334501874E+02  0.25086830177E+02  0.51100000000E-03 0. -1.
        -11    1    3    3    0    0  0.78507321949E+01 -0.98282189133E+01  0.92985515347E+01  0.15642600292E+02  0.51100000000E-03 0.  1.
        -12    1    3    3    0    0 -0.23456959831E+01  0.42870548706E+01  0.84939750549E+01  0.97994255618E+01  0.00000000000E+00 0.  1.
</event>
<event>
 7    1  0.2973028E-011  0.5052886E+02  0.7816164E-02  0.1300439E+00
        -11   -1    0    0    0    0  0.00000000000E+00  0.00000000000E+00  0.45593999997E+02  0.45594000000E+02  0.51100000000E-03 0. -1.
         11   -1    0    0    0    0 -0.00000000000E+00 -0.00000000000E+00 -0.45593999997E+02  0.45594000000E+02  0.51100000000E-03 0.  1.
    9900012    2    1    2    0    0 -0.29202686112E+02 -0.11345992809E+02 -0.25915962537E+02  0.50528861504E+02  0.30000005028E+02 0.  0.
         12    1    1    2    0    0  0.29202686112E+02  0.11345992809E+02  0.25915962537E+02  0.40659138496E+02  0.00000000000E+00 0. -1.
         11    1    3    3    0    0 -0.28631881866E+02 -0.32489204674E+01 -0.11277507170E+02  0.30943857414E+02  0.51100000000E-03 0. -1.
        -11    1    3    3    0    0  0.16951129127E+01 -0.20261824627E+01 -0.12477673062E+02  0.12754260012E+02  0.51100000000E-03 0.  1.
         12    1    3    3    0    0 -0.22659171589E+01 -0.60708898785E+01 -0.21607823056E+01  0.68307440780E+01  0.00000000000E+00 0. -1.
</event>
<event>
 7    1  0.2973028E-011  0.5052886E+02  0.7816164E-02  0.1300439E+00
        -11   -1    0    0    0    0  0.00000000000E+00  0.00000000000E+00  0.45593999997E+02  0.45594000000E+02  0.51100000000E-03 0.  1.
         11   -1    0    0    0    0 -0.00000000000E+00 -0.00000000000E+00 -0.45593999997E+02  0.45594000000E+02  0.51100000000E-03 0. -1.
    9900012    2    1    2    0    0  0.68065099640E+01  0.38487882309E+02  0.11203570896E+02  0.50528860026E+02  0.30000000537E+02 0.  0.
         12    1    1    2    0    0 -0.68065099640E+01 -0.38487882309E+02 -0.11203570896E+02  0.40659139974E+02  0.00000000000E+00 0. -1.
         11    1    3    3    0    0 -0.64380095595E+00  0.18887167207E+02 -0.61724003591E+01  0.19880595847E+02  0.51100000000E-03 0.  1.
        -11    1    3    3    0    0  0.92102531204E+01  0.56550678013E+01  0.10222532893E+02  0.14876448951E+02  0.51100000000E-03 0. -1.
        -12    1    3    3    0    0 -0.17599422004E+01  0.13945647301E+02  0.71534383620E+01  0.15771815228E+02  0.00000000000E+00 0.  1.
</event>
<event>
 7    1  0.2973028E-011  0.5052886E+02  0.7816164E-02  0.1300439E+00
        -11   -1    0    0    0    0  0.00000000000E+00  0.00000000000E+00  0.45593999997E+02  0.45594000000E+02  0.51100000000E-03 0.  1.
         11   -1    0    0    0    0 -0.00000000000E+00 -0.00000000000E+00 -0.45593999997E+02  0.45594000000E+02  0.51100000000E-03 0. -1.
    9900012    2    1    2    0    0  0.39651899579E+01  0.24026245232E+02  0.32560440381E+02  0.50528862415E+02  0.30000007796E+02 0.  0.
         12    1    1    2    0    0 -0.39651899579E+01 -0.24026245232E+02 -0.32560440381E+02  0.40659137585E+02  0.00000000000E+00 0. -1.
         11    1    3    3    0    0  0.13643559941E+02  0.98285195034E+01  0.54314673544E+01  0.17670522385E+02  0.51100000000E-03 0. -1.
        -11    1    3    3    0    0 -0.45802174381E+01  0.78697384340E+01  0.81792535483E+01  0.12239745245E+02  0.51100000000E-03 0.  1.
         12    1    3    3    0    0 -0.50981525445E+01  0.63279872944E+01  0.18949719479E+02  0.20618594784E+02  0.00000000000E+00 0. -1.
</event>
<event>
 7    1  0.2973028E-011  0.5052886E+02  0.7816164E-02  0.1300439E+00
        -11   -1    0    0    0    0  0.00000000000E+00  0.00000000000E+00  0.45593999997E+02  0.45594000000E+02  0.51100000000E-03 0. -1.
         11   -1    0    0    0    0 -0.00000000000E+00 -0.00000000000E+00 -0.45593999997E+02  0.45594000000E+02  0.51100000000E-03 0.  1.
    9900012    2    1    2    0    0  0.33239838908E+02  0.18954108758E+02  0.13748487532E+02  0.50528855410E+02  0.29999986503E+02 0.  0.
         12    1    1    2    0    0 -0.33239838908E+02 -0.18954108758E+02 -0.13748487532E+02  0.40659144590E+02  0.00000000000E+00 0. -1.
         11    1    3    3    0    0  0.23946683038E+02  0.24020860409E+02  0.12374120139E+02  0.36104905661E+02  0.51100000000E-03 0. -1.
        -11    1    3    3    0    0  0.98928927911E+01 -0.19921028271E+01  0.34513638102E+01  0.10665351090E+02  0.51100000000E-03 0.  1.
         12    1    3    3    0    0 -0.59973692148E+00 -0.30746488242E+01 -0.20769964167E+01  0.37585986593E+01  0.00000000000E+00 0. -1.
</event>
<event>
 7    1  0.2973028E-011  0.5052885E+02  0.7816164E-02  0.1300439E+00
        -11   -1    0    0    0    0  0.00000000000E+00  0.00000000000E+00  0.45593999997E+02  0.45594000000E+02  0.51100000000E-03 0.  1.
         11   -1    0    0    0    0 -0.00000000000E+00 -0.00000000000E+00 -0.45593999997E+02  0.45594000000E+02  0.51100000000E-03 0. -1.
    9900012    2    1    2    0    0 -0.33909737442E+02  0.15756116690E+02  0.15969992842E+02  0.50528853699E+02  0.29999981304E+02 0.  0.
         12    1    1    2    0    0  0.33909737442E+02 -0.15756116690E+02 -0.15969992842E+02  0.40659146301E+02  0.00000000000E+00 0. -1.
         11    1    3    3    0    0 -0.12866059769E+02  0.11281551994E+02 -0.64395572992E+01  0.18283238440E+02  0.51100000000E-03 0. -1.
        -11    1    3    3    0    0 -0.69259005773E+01 -0.23758108297E+01  0.53621849609E+01  0.90755497751E+01  0.51100000000E-03 0.  1.
         12    1    3    3    0    0 -0.14117777096E+02  0.68503755252E+01  0.17047365180E+02  0.23170065484E+02  0.00000000000E+00 0. -1.
</event>
<event>
 7    1  0.2973028E-011  0.5052885E+02  0.7816164E-02  0.1300439E+00
        -11   -1    0    0    0    0  0.00000000000E+00  0.00000000000E+00  0.45593999997E+02  0.45594000000E+02  0.51100000000E-03 0. -1.
         11   -1    0    0    0    0 -0.00000000000E+00 -0.00000000000E+00 -0.45593999997E+02  0.45594000000E+02  0.51100000000E-03 0.  1.
    9900012    2    1    2    0    0 -0.87090822132E+01  0.33257044781E+02 -0.21709154013E+02  0.50528849634E+02  0.29999968947E+02 0.  0.
         12    1    1    2    0    0  0.87090822132E+01 -0.33257044781E+02  0.21709154013E+02  0.40659150366E+02  0.00000000000E+00 0. -1.
         11    1    3    3    0    0  0.14144750960E+01  0.97696569903E+01 -0.19168197057E+01  0.10055900534E+02  0.51100000000E-03 0. -1.
        -11    1    3    3    0    0  0.19256795412E+01 -0.35209867655E+01 -0.73778897481E+01  0.83987407922E+01  0.51100000000E-03 0.  1.
        -12    1    3    3    0    0 -0.12049236850E+02  0.27008374556E+02 -0.12414444559E+02  0.32074208307E+02  0.00000000000E+00 0.  1.
</event>
<event>
 7    1  0.2973028E-011  0.5052885E+02  0.7816164E-02  0.1300439E+00
        -11   -1    0    0    0    0  0.00000000000E+00  0.00000000000E+00  0.45593999997E+02  0.45594000000E+02  0.51100000000E-03 0. -1.
         11   -1    0    0    0    0 -0.00000000000E+00 -0.00000000000E+00 -0.45593999997E+02  0.45594000000E+02  0.51100000000E-03 0.  1.
    9900012    2    1    2    0    0  0.88839880945E+01  0.39512167821E+02 -0.36096712732E+01  0.50528851250E+02  0.29999973860E+02 0.  0.
         12    1    1    2    0    0 -0.88839880945E+01 -0.39512167821E+02  0.36096712732E+01  0.40659148750E+02  0.00000000000E+00 0. -1.
         11    1    3    3    0    0  0.15165293711E+02  0.17238827384E+02  0.83631957966E+00  0.22975263515E+02  0.51100000000E-03 0. -1.
        -11    1    3    3    0    0 -0.42138610225E+01  0.11638949654E+02 -0.94957424295E+01  0.15600990299E+02  0.51100000000E-03 0.  1.
         12    1    3    3    0    0 -0.20674445938E+01  0.10634390784E+02  0.50497515766E+01  0.11952597436E+02  0.00000000000E+00 0. -1.
</event>
<event>
 7    1  0.2973028E-011  0.5052881E+02  0.7816164E-02  0.1300439E+00
        -11   -1    0    0    0    0  0.00000000000E+00  0.00000000000E+00  0.45593999997E+02  0.45594000000E+02  0.51100000000E-03 0. -1.
         11   -1    0    0    0    0 -0.00000000000E+00 -0.00000000000E+00 -0.45593999997E+02  0.45594000000E+02  0.51100000000E-03 0.  1.
    9900012    2    1    2    0    0 -0.50092249413E+01  0.24225253465E+02 -0.32267850213E+02  0.50528814109E+02  0.29999860967E+02 0.  0.
         12    1    1    2    0    0  0.50092249413E+01 -0.24225253465E+02  0.32267850213E+02  0.40659185891E+02  0.00000000000E+00 0. -1.
         11    1    3    3    0    0 -0.30618765420E+01  0.16070482021E+02 -0.84330010350E+00  0.16381289195E+02  0.51100000000E-03 0.  1.
        -11    1    3    3    0    0 -0.12232999124E+01 -0.27488950852E+00 -0.19423400167E+02  0.19463825452E+02  0.51100000000E-03 0. -1.
        -12    1    3    3    0    0 -0.72404848693E+00  0.84296609520E+01 -0.12001149942E+02  0.14683699463E+02  0.00000000000E+00 0.  1.
</event>
<event>
 7    1  0.2973028E-011  0.5052883E+02  0.7816164E-02  0.1300439E+00
        -11   -1    0    0    0    0  0.00000000000E+00  0.00000000000E+00  0.45593999997E+02  0.45594000000E+02  0.51100000000E-03 0. -1.
         11   -1    0    0    0    0 -0.00000000000E+00 -0.00000000000E+00 -0.45593999997E+02  0.45594000000E+02  0.51100000000E-03 0.  1.
    9900012    2    1    2    0    0  0.36068401777E+02  0.15728982545E+02 -0.10239008655E+02  0.50528833790E+02  0.29999920787E+02 0.  0.
         12    1    1    2    0    0 -0.36068401777E+02 -0.15728982545E+02  0.10239008655E+02  0.40659166210E+02  0.00000000000E+00 0. -1.
         11    1    3    3    0    0  0.70226175277E+01  0.55333906423E+01  0.82493365293E+01  0.12164995782E+02  0.51100000000E-03 0. -1.
        -11    1    3    3    0    0  0.90324866483E+01  0.10016625362E+02 -0.59129215423E+01  0.14726888338E+02  0.51100000000E-03 0.  1.
         12    1    3    3    0    0  0.20013297601E+02  0.17896654073E+00 -0.12575423642E+02  0.23636949669E+02  0.00000000000E+00 0. -1.
</event>
<event>
 7    1  0.2973028E-011  0.5052880E+02  0.7816164E-02  0.1300439E+00
        -11   -1    0    0    0    0  0.00000000000E+00  0.00000000000E+00  0.45593999997E+02  0.45594000000E+02  0.51100000000E-03 0.  1.
         11   -1    0    0    0    0 -0.00000000000E+00 -0.00000000000E+00 -0.45593999997E+02  0.45594000000E+02  0.51100000000E-03 0. -1.
    9900012    2    1    2    0    0 -0.23065958401E+02  0.28032886921E+02  0.18310919201E+02  0.50528795039E+02  0.29999803000E+02 0.  0.
         12    1    1    2    0    0  0.23065958401E+02 -0.28032886921E+02 -0.18310919201E+02  0.40659204961E+02  0.00000000000E+00 0. -1.
         11    1    3    3    0    0 -0.21134444608E+01  0.65726525943E+01 -0.36749855728E+01  0.78212485471E+01  0.51100000000E-03 0. -1.
        -11    1    3    3    0    0 -0.17351163323E+02  0.17007866707E+02  0.26098255426E+02  0.35657388226E+02  0.51100000000E-03 0.  1.
        -12    1    3    3    0    0 -0.36013506180E+01  0.44523676190E+01 -0.41123506518E+01  0.70501582657E+01  0.00000000000E+00 0.  1.
</event>
<event>
 7    1  0.2973028E-011  0.5052886E+02  0.7816164E-02  0.1300439E+00
        -11   -1    0    0    0    0  0.00000000000E+00  0.00000000000E+00  0.45593999997E+02  0.45594000000E+02  0.51100000000E-03 0.  1.
         11   -1    0    0    0    0 -0.00000000000E+00 -0.00000000000E+00 -0.45593999997E+02  0.45594000000E+02  0.51100000000E-03 0. -1.
    9900012    2    1    2    0    0 -0.16394482149E+01  0.15921494894E+02  0.37376245653E+02  0.50528861677E+02  0.30000005553E+02 0.  0.
         12    1    1    2    0    0  0.16394482149E+01 -0.15921494894E+02 -0.37376245653E+02  0.40659138323E+02  0.00000000000E+00 0. -1.
         11    1    3    3    0    0 -0.50530061425E+01  0.95347677332E+01  0.21674513702E+01  0.11006475935E+02  0.51100000000E-03 0. -1.
        -11    1    3    3    0    0  0.67475712794E+01  0.16688920735E+01  0.32328255989E+02  0.33067069034E+02  0.51100000000E-03 0.  1.
        -12    1    3    3    0    0 -0.33340133518E+01  0.47178350874E+01  0.28805382930E+01  0.64553167079E+01  0.00000000000E+00 0.  1.
</event>
<event>
 7    1  0.2973028E-011  0.5052891E+02  0.7816164E-02  0.1300439E+00
        -11   -1    0    0    0    0  0.00000000000E+00  0.00000000000E+00  0.45593999997E+02  0.45594000000E+02  0.51100000000E-03 0.  1.
         11   -1    0    0    0    0 -0.00000000000E+00 -0.00000000000E+00 -0.45593999997E+02  0.45594000000E+02  0.51100000000E-03 0. -1.
    9900012    2    1    2    0    0 -0.52246934120E+01  0.24909116481E+02  0.31708050774E+02  0.50528905212E+02  0.30000137881E+02 0.  0.
         12    1    1    2    0    0  0.52246934120E+01 -0.24909116481E+02 -0.31708050774E+02  0.40659094788E+02  0.00000000000E+00 0. -1.
         11    1    3    3    0    0  0.51712388542E+01 -0.37744479248E+01  0.21530515003E+01  0.67545391737E+01  0.51100000000E-03 0. -1.
        -11    1    3    3    0    0 -0.52485066084E+01  0.10389842330E+02  0.18297269345E+02  0.21686071821E+02  0.51100000000E-03 0.  1.
        -12    1    3    3    0    0 -0.51474256578E+01  0.18293722076E+02  0.11257729929E+02  0.22088294217E+02  0.00000000000E+00 0.  1.
</event>
<event>
 7    1  0.2973028E-011  0.5052886E+02  0.7816164E-02  0.1300439E+00
        -11   -1    0    0    0    0  0.00000000000E+00  0.00000000000E+00  0.45593999997E+02  0.45594000000E+02  0.51100000000E-03 0. -1.
         11   -1    0    0    0    0 -0.00000000000E+00 -0.00000000000E+00 -0.45593999997E+02  0.45594000000E+02  0.51100000000E-03 0.  1.
    9900012    2    1    2    0    0 -0.33089716839E+02  0.23585607406E+02 -0.13982604919E+01  0.50528863639E+02  0.30000011518E+02 0.  0.
         12    1    1    2    0    0  0.33089716839E+02 -0.23585607406E+02  0.13982604919E+01  0.40659136361E+02  0.00000000000E+00 0. -1.
         11    1    3    3    0    0 -0.28236998096E+00  0.21647128511E+01  0.21454678685E+01  0.30608409253E+01  0.51100000000E-03 0. -1.
        -11    1    3    3    0    0 -0.16787643386E+02  0.16297151885E+02 -0.14377646146E+02  0.27461588427E+02  0.51100000000E-03 0.  1.
        -12    1    3    3    0    0 -0.16019703472E+02  0.51237426698E+01  0.10833917785E+02  0.20006434287E+02  0.00000000000E+00 0.  1.
</event>
<event>
 7    1  0.2973028E-011  0.5052886E+02  0.7816164E-02  0.1300439E+00
        -11   -1    0    0    0    0  0.00000000000E+00  0.00000000000E+00  0.45593999997E+02  0.45594000000E+02  0.51100000000E-03 0. -1.
         11   -1    0    0    0    0 -0.00000000000E+00 -0.00000000000E+00 -0.45593999997E+02  0.45594000000E+02  0.51100000000E-03 0.  1.
    9900012    2    1    2    0    0 -0.24702901750E+02 -0.26870841437E+02 -0.17913417396E+02  0.50528855921E+02  0.29999988058E+02 0.  0.
         12    1    1    2    0    0  0.24702901750E+02  0.26870841437E+02  0.17913417396E+02  0.40659144079E+02  0.00000000000E+00 0. -1.
         11    1    3    3    0    0 -0.93659329743E+01 -0.15980561253E+02 -0.47854096341E+01  0.19131105145E+02  0.51100000000E-03 0. -1.
        -11    1    3    3    0    0  0.33473310895E+01  0.35031359839E+01 -0.13214831816E+01  0.50222410540E+01  0.51100000000E-03 0.  1.
        -12    1    3    3    0    0 -0.18684299865E+02 -0.14393416169E+02 -0.11806524580E+02  0.26375509722E+02  0.00000000000E+00 0.  1.
</event>
<event>
 7    1  0.2973028E-011  0.5052887E+02  0.7816164E-02  0.1300439E+00
        -11   -1    0    0    0    0  0.00000000000E+00  0.00000000000E+00  0.45593999997E+02  0.45594000000E+02  0.51100000000E-03 0. -1.
         11   -1    0    0    0    0 -0.00000000000E+00 -0.00000000000E+00 -0.45593999997E+02  0.45594000000E+02  0.51100000000E-03 0.  1.
    9900012    2    1    2    0    0 -0.32350217691E+01 -0.34732596155E+02 -0.20888912247E+02  0.50528865032E+02  0.30000015751E+02 0.  0.
         12    1    1    2    0    0  0.32350217691E+01  0.34732596155E+02  0.20888912247E+02  0.40659134968E+02  0.00000000000E+00 0. -1.
         11    1    3    3    0    0  0.71832028289E+01 -0.21370040365E+02 -0.82212119222E+01  0.23997194707E+02  0.51100000000E-03 0. -1.
        -11    1    3    3    0    0 -0.11562591228E+02 -0.66566748963E+01 -0.14607245786E+01  0.13421570442E+02  0.51100000000E-03 0.  1.
        -12    1    3    3    0    0  0.11443666301E+01 -0.67058808932E+01 -0.11206975746E+02  0.13110099882E+02  0.00000000000E+00 0.  1.
</event>
<event>
 7    1  0.2973028E-011  0.5052875E+02  0.7816164E-02  0.1300439E+00
        -11   -1    0    0    0    0  0.00000000000E+00  0.00000000000E+00  0.45593999997E+02  0.45594000000E+02  0.51100000000E-03 0.  1.
         11   -1    0    0    0    0 -0.00000000000E+00 -0.00000000000E+00 -0.45593999997E+02  0.45594000000E+02  0.51100000000E-03 0. -1.
    9900012    2    1    2    0    0 -0.50333767234E+01  0.31758084706E+02  0.24885013576E+02  0.50528748580E+02  0.29999661780E+02 0.  0.
         12    1    1    2    0    0  0.50333767234E+01 -0.31758084706E+02 -0.24885013576E+02  0.40659251420E+02  0.00000000000E+00 0. -1.
         11    1    3    3    0    0 -0.10581709099E+02  0.30922954554E+02  0.14203540299E+02  0.35636249005E+02  0.51100000000E-03 0. -1.
        -11    1    3    3    0    0  0.17817266349E+01  0.40093291363E+01  0.18116269309E+01  0.47467106845E+01  0.51100000000E-03 0.  1.
         12    1    3    3    0    0  0.37666057411E+01 -0.31741989850E+01  0.88698463461E+01  0.10145788890E+02  0.00000000000E+00 0. -1.
</event>
<event>
 7    1  0.2973028E-011  0.5052886E+02  0.7816164E-02  0.1300439E+00
        -11   -1    0    0    0    0  0.00000000000E+00  0.00000000000E+00  0.45593999997E+02  0.45594000000E+02  0.51100000000E-03 0.  1.
         11   -1    0    0    0    0 -0.00000000000E+00 -0.00000000000E+00 -0.45593999997E+02  0.45594000000E+02  0.51100000000E-03 0. -1.
    9900012    2    1    2    0    0 -0.69157391592E+01  0.27573014718E+02  0.29070039664E+02  0.50528858410E+02  0.29999995622E+02 0.  0.
         12    1    1    2    0    0  0.69157391592E+01 -0.27573014718E+02 -0.29070039664E+02  0.40659141590E+02  0.00000000000E+00 0. -1.
         11    1    3    3    0    0  0.94190820715E+00  0.13221203895E+02  0.10531502615E+02  0.16929263749E+02  0.51100000000E-03 0. -1.
        -11    1    3    3    0    0 -0.14975740564E+02  0.11074550800E+02  0.17741044606E+02  0.25722813704E+02  0.51100000000E-03 0.  1.
        -12    1    3    3    0    0  0.71180931982E+01  0.32772600239E+01  0.79749244326E+00  0.78767809567E+01  0.00000000000E+00 0.  1.
</event>
<event>
 7    1  0.2973028E-011  0.5052880E+02  0.7816164E-02  0.1300439E+00
        -11   -1    0    0    0    0  0.00000000000E+00  0.00000000000E+00  0.45593999997E+02  0.45594000000E+02  0.51100000000E-03 0.  1.
         11   -1    0    0    0    0 -0.00000000000E+00 -0.00000000000E+00 -0.45593999997E+02  0.45594000000E+02  0.51100000000E-03 0. -1.
    9900012    2    1    2    0    0 -0.15250676421E+02 -0.21254149751E+02  0.31126330429E+02  0.50528801054E+02  0.29999821284E+02 0.  0.
         12    1    1    2    0    0  0.15250676421E+02  0.21254149751E+02 -0.31126330429E+02  0.40659198946E+02  0.00000000000E+00 0. -1.
         11    1    3    3    0    0  0.33854265480E+01 -0.66155094718E+01  0.18160742026E+02  0.19622401221E+02  0.51100000000E-03 0. -1.
        -11    1    3    3    0    0 -0.12750328354E+02 -0.17382819770E+02  0.10170474255E+02  0.23836355491E+02  0.51100000000E-03 0.  1.
         12    1    3    3    0    0 -0.58857746146E+01  0.27441794907E+01  0.27951141480E+01  0.70700443415E+01  0.00000000000E+00 0. -1.
</event>
<event>
 7    1  0.2973028E-011  0.5052883E+02  0.7816164E-02  0.1300439E+00
        -11   -1    0    0    0    0  0.00000000000E+00  0.00000000000E+00  0.45593999997E+02  0.45594000000E+02  0.51100000000E-03 0.  1.
         11   -1    0    0    0    0 -0.00000000000E+00 -0.00000000000E+00 -0.45593999997E+02  0.45594000000E+02  0.51100000000E-03 0. -1.
    9900012    2    1    2    0    0  0.28113266155E+02  0.27191713705E+02  0.11109604497E+02  0.50528827109E+02  0.29999900479E+02 0.  0.
         12    1    1    2    0    0 -0.28113266155E+02 -0.27191713705E+02 -0.11109604497E+02  0.40659172891E+02  0.00000000000E+00 0. -1.
         11    1    3    3    0    0  0.25616870845E+02  0.12410389089E+02 -0.23924195323E+01  0.28565109850E+02  0.51100000000E-03 0. -1.
        -11    1    3    3    0    0 -0.94016191723E+00  0.47573431222E+01  0.63379017344E-01  0.48497665071E+01  0.51100000000E-03 0.  1.
         12    1    3    3    0    0  0.34365572266E+01  0.10023981494E+02  0.13438645012E+02  0.17113950752E+02  0.00000000000E+00 0. -1.
</event>
<event>
 7    1  0.2973028E-011  0.5052886E+02  0.7816164E-02  0.1300439E+00
        -11   -1    0    0    0    0  0.00000000000E+00  0.00000000000E+00  0.45593999997E+02  0.45594000000E+02  0.51100000000E-03 0. -1.
         11   -1    0    0    0    0 -0.00000000000E+00 -0.00000000000E+00 -0.45593999997E+02  0.45594000000E+02  0.51100000000E-03 0.  1.
    9900012    2    1    2    0    0 -0.22140375387E+02  0.28077966451E+02  0.19354518389E+02  0.50528858293E+02  0.29999995267E+02 0.  0.
         12    1    1    2    0    0  0.22140375387E+02 -0.28077966451E+02 -0.19354518389E+02  0.40659141707E+02  0.00000000000E+00 0. -1.
         11    1    3    3    0    0 -0.11180070798E+02  0.27666519890E+02  0.11118957157E+02  0.31844332532E+02  0.51100000000E-03 0. -1.
        -11    1    3    3    0    0 -0.10062015834E+02  0.36883094423E+01  0.10170423618E+02  0.14774481582E+02  0.51100000000E-03 0.  1.
         12    1    3    3    0    0 -0.89828875435E+00 -0.32768628814E+01 -0.19348623857E+01  0.39100441790E+01  0.00000000000E+00 0. -1.
</event>
<event>
 7    1  0.2973028E-011  0.5052884E+02  0.7816164E-02  0.1300439E+00
        -11   -1    0    0    0    0  0.00000000000E+00  0.00000000000E+00  0.45593999997E+02  0.45594000000E+02  0.51100000000E-03 0.  1.
         11   -1    0    0    0    0 -0.00000000000E+00 -0.00000000000E+00 -0.45593999997E+02  0.45594000000E+02  0.51100000000E-03 0. -1.
    9900012    2    1    2    0    0 -0.15559343515E+01  0.26963666313E+02  0.30392544354E+02  0.50528843774E+02  0.29999951135E+02 0.  0.
         12    1    1    2    0    0  0.15559343515E+01 -0.26963666313E+02 -0.30392544354E+02  0.40659156226E+02  0.00000000000E+00 0. -1.
         11    1    3    3    0    0 -0.15097630757E+02  0.11585736836E+02  0.15283390957E+02  0.24407986232E+02  0.51100000000E-03 0. -1.
        -11    1    3    3    0    0  0.12715393214E+02  0.11135197698E+02  0.11066324612E+02  0.20202410575E+02  0.51100000000E-03 0.  1.
         12    1    3    3    0    0  0.82630319153E+00  0.42427317782E+01  0.40428287854E+01  0.59184469664E+01  0.00000000000E+00 0. -1.
</event>
<event>
 7    1  0.2973028E-011  0.5052886E+02  0.7816164E-02  0.1300439E+00
        -11   -1    0    0    0    0  0.00000000000E+00  0.00000000000E+00  0.45593999997E+02  0.45594000000E+02  0.51100000000E-03 0.  1.
         11   -1    0    0    0    0 -0.00000000000E+00 -0.00000000000E+00 -0.45593999997E+02  0.45594000000E+02  0.51100000000E-03 0. -1.
    9900012    2    1    2    0    0 -0.19001902294E+01  0.13900763167E+02  0.38161805289E+02  0.50528864219E+02  0.30000013281E+02 0.  0.
         12    1    1    2    0    0  0.19001902294E+01 -0.13900763167E+02 -0.38161805289E+02  0.40659135781E+02  0.00000000000E+00 0. -1.
         11    1    3    3    0    0  0.54503714681E+01 -0.23076186356E+01  0.72060922188E+01  0.93252033884E+01  0.51100000000E-03 0. -1.
        -11    1    3    3    0    0 -0.79136259998E+01  0.15871001406E+01  0.13552765840E+01  0.81842005230E+01  0.51100000000E-03 0.  1.
        -12    1    3    3    0    0  0.56306430236E+00  0.14621281662E+02  0.29600436486E+02  0.33019460308E+02  0.00000000000E+00 0.  1.
</event>
<event>
 7    1  0.2973028E-011  0.5052886E+02  0.7816164E-02  0.1300439E+00
        -11   -1    0    0    0    0  0.00000000000E+00  0.00000000000E+00  0.45593999997E+02  0.45594000000E+02  0.51100000000E-03 0. -1.
         11   -1    0    0    0    0 -0.00000000000E+00 -0.00000000000E+00 -0.45593999997E+02  0.45594000000E+02  0.51100000000E-03 0.  1.
    9900012    2    1    2    0    0 -0.17625819838E+02  0.34907559519E+02 -0.11133645601E+02  0.50528864484E+02  0.30000014086E+02 0.  0.
         12    1    1    2    0    0  0.17625819838E+02 -0.34907559519E+02  0.11133645601E+02  0.40659135516E+02  0.00000000000E+00 0. -1.
         11    1    3    3    0    0  0.38531739162E+01  0.73507539850E+01 -0.29846113007E+01  0.88197754083E+01  0.51100000000E-03 0. -1.
        -11    1    3    3    0    0 -0.23076365253E+02  0.13456697307E+02 -0.51433258428E+01  0.27203954431E+02  0.51100000000E-03 0.  1.
        -12    1    3    3    0    0  0.15973714991E+01  0.14100108227E+02 -0.30057084577E+01  0.14505134644E+02  0.00000000000E+00 0.  1.
</event>
<event>
 7    1  0.2973028E-011  0.5052885E+02  0.7816164E-02  0.1300439E+00
        -11   -1    0    0    0    0  0.00000000000E+00  0.00000000000E+00  0.45593999997E+02  0.45594000000E+02  0.51100000000E-03 0. -1.
         11   -1    0    0    0    0 -0.00000000000E+00 -0.00000000000E+00 -0.45593999997E+02  0.45594000000E+02  0.51100000000E-03 0.  1.
    9900012    2    1    2    0    0  0.44630462802E+01  0.18650314453E+02 -0.35852658843E+02  0.50528853952E+02  0.29999982072E+02 0.  0.
         12    1    1    2    0    0 -0.44630462802E+01 -0.18650314453E+02  0.35852658843E+02  0.40659146048E+02  0.00000000000E+00 0. -1.
         11    1    3    3    0    0 -0.43911288481E+01  0.94472720757E+01 -0.21619510102E+01  0.10639877568E+02  0.51100000000E-03 0. -1.
        -11    1    3    3    0    0  0.45427656065E+01  0.90142847886E+01 -0.34091821679E+02  0.35554835891E+02  0.51100000000E-03 0.  1.
         12    1    3    3    0    0  0.43114095217E+01  0.18875758827E+00  0.40111384617E+00  0.43341404925E+01  0.00000000000E+00 0. -1.
</event>
<event>
 7    1  0.2973028E-011  0.5052887E+02  0.7816164E-02  0.1300439E+00
        -11   -1    0    0    0    0  0.00000000000E+00  0.00000000000E+00  0.45593999997E+02  0.45594000000E+02  0.51100000000E-03 0. -1.
         11   -1    0    0    0    0 -0.00000000000E+00 -0.00000000000E+00 -0.45593999997E+02  0.45594000000E+02  0.51100000000E-03 0.  1.
    9900012    2    1    2    0    0 -0.35509297980E+02 -0.19435068150E+02  0.38122058936E+01  0.50528867806E+02  0.30000024182E+02 0.  0.
         12    1    1    2    0    0  0.35509297980E+02  0.19435068150E+02 -0.38122058936E+01  0.40659132194E+02  0.00000000000E+00 0. -1.
         11    1    3    3    0    0 -0.26596003388E+02 -0.64687266500E+01  0.10986024099E+02  0.29493805222E+02  0.51100000000E-03 0. -1.
        -11    1    3    3    0    0 -0.10388883663E+02 -0.10661185117E+02 -0.17869587785E+01  0.14992764715E+02  0.51100000000E-03 0.  1.
         12    1    3    3    0    0  0.14755890708E+01 -0.23051563837E+01 -0.53868594269E+01  0.60422978695E+01  0.00000000000E+00 0. -1.
</event>
<event>
 7    1  0.2973028E-011  0.5052886E+02  0.7816164E-02  0.1300439E+00
        -11   -1    0    0    0    0  0.00000000000E+00  0.00000000000E+00  0.45593999997E+02  0.45594000000E+02  0.51100000000E-03 0. -1.
         11   -1    0    0    0    0 -0.00000000000E+00 -0.00000000000E+00 -0.45593999997E+02  0.45594000000E+02  0.51100000000E-03 0.  1.
    9900012    2    1    2    0    0  0.37098386031E+02  0.15067266698E+02 -0.70606684805E+01  0.50528858208E+02  0.29999995008E+02 0.  0.
         12    1    1    2    0    0 -0.37098386031E+02 -0.15067266698E+02  0.70606684805E+01  0.40659141792E+02  0.00000000000E+00 0. -1.
         11    1    3    3    0    0  0.21583557884E+02 -0.44281566863E+01 -0.55573778669E+01  0.22723181810E+02  0.51100000000E-03 0. -1.
        -11    1    3    3    0    0  0.17368480876E+02  0.16276726666E+02 -0.25690127165E+01  0.23941507586E+02  0.51100000000E-03 0.  1.
         12    1    3    3    0    0 -0.18536527284E+01  0.32186967183E+01  0.10657221029E+01  0.38641688113E+01  0.00000000000E+00 0. -1.
</event>
<event>
 7    1  0.2973028E-011  0.5052886E+02  0.7816164E-02  0.1300439E+00
        -11   -1    0    0    0    0  0.00000000000E+00  0.00000000000E+00  0.45593999997E+02  0.45594000000E+02  0.51100000000E-03 0.  1.
         11   -1    0    0    0    0 -0.00000000000E+00 -0.00000000000E+00 -0.45593999997E+02  0.45594000000E+02  0.51100000000E-03 0. -1.
    9900012    2    1    2    0    0  0.16612235295E+02  0.20711530369E+02  0.30793370812E+02  0.50528861573E+02  0.30000005236E+02 0.  0.
         12    1    1    2    0    0 -0.16612235295E+02 -0.20711530369E+02 -0.30793370812E+02  0.40659138427E+02  0.00000000000E+00 0. -1.
         11    1    3    3    0    0 -0.82041879626E+01  0.88336529268E+01  0.85818492933E+01  0.14798319557E+02  0.51100000000E-03 0. -1.
        -11    1    3    3    0    0  0.59025942411E+01  0.24314297232E+01  0.80946139256E+01  0.10308988512E+02  0.51100000000E-03 0.  1.
         12    1    3    3    0    0  0.18913829016E+02  0.94464477189E+01  0.14116907593E+02  0.25421553504E+02  0.00000000000E+00 0. -1.
</event>
<event>
 7    1  0.2973028E-011  0.5052886E+02  0.7816164E-02  0.1300439E+00
        -11   -1    0    0    0    0  0.00000000000E+00  0.00000000000E+00  0.45593999997E+02  0.45594000000E+02  0.51100000000E-03 0.  1.
         11   -1    0    0    0    0 -0.00000000000E+00 -0.00000000000E+00 -0.45593999997E+02  0.45594000000E+02  0.51100000000E-03 0. -1.
    9900012    2    1    2    0    0 -0.92782513351E+01 -0.39503871837E+02  0.25541827431E+01  0.50528859730E+02  0.29999999636E+02 0.  0.
         12    1    1    2    0    0  0.92782513351E+01  0.39503871837E+02 -0.25541827431E+01  0.40659140270E+02  0.00000000000E+00 0. -1.
         11    1    3    3    0    0 -0.58647784803E+01 -0.24713888644E+02  0.73948787124E+01  0.26454794461E+02  0.51100000000E-03 0.  1.
        -11    1    3    3    0    0  0.35153859331E+01 -0.72486618578E+00 -0.73649081746E+01  0.81929995684E+01  0.51100000000E-03 0. -1.
         12    1    3    3    0    0 -0.69288587879E+01 -0.14065117007E+02  0.25242122053E+01  0.15881065701E+02  0.00000000000E+00 0. -1.
</event>
<event>
 7    1  0.2973028E-011  0.5052886E+02  0.7816164E-02  0.1300439E+00
        -11   -1    0    0    0    0  0.00000000000E+00  0.00000000000E+00  0.45593999997E+02  0.45594000000E+02  0.51100000000E-03 0. -1.
         11   -1    0    0    0    0 -0.00000000000E+00 -0.00000000000E+00 -0.45593999997E+02  0.45594000000E+02  0.51100000000E-03 0.  1.
    9900012    2    1    2    0    0 -0.30244462239E+02  0.11810181810E+01 -0.27148544597E+02  0.50528858668E+02  0.29999996409E+02 0.  0.
         12    1    1    2    0    0  0.30244462239E+02 -0.11810181810E+01  0.27148544597E+02  0.40659141332E+02  0.00000000000E+00 0. -1.
         11    1    3    3    0    0 -0.19986691104E+02 -0.32202936275E+00 -0.18120923024E+02  0.26980351660E+02  0.51100000000E-03 0. -1.
        -11    1    3    3    0    0  0.22062315841E+01 -0.41852822080E+01 -0.86303170494E+01  0.98420738463E+01  0.51100000000E-03 0.  1.
         12    1    3    3    0    0 -0.12464002719E+02  0.56883297517E+01 -0.39730452412E+00  0.13706433163E+02  0.00000000000E+00 0. -1.
</event>
<event>
 7    1  0.2973028E-011  0.5052886E+02  0.7816164E-02  0.1300439E+00
        -11   -1    0    0    0    0  0.00000000000E+00  0.00000000000E+00  0.45593999997E+02  0.45594000000E+02  0.51100000000E-03 0.  1.
         11   -1    0    0    0    0 -0.00000000000E+00 -0.00000000000E+00 -0.45593999997E+02  0.45594000000E+02  0.51100000000E-03 0. -1.
    9900012    2    1    2    0    0 -0.16495886595E+02 -0.27496013595E+02  0.25000413748E+02  0.50528859259E+02  0.29999998205E+02 0.  0.
         12    1    1    2    0    0  0.16495886595E+02  0.27496013595E+02 -0.25000413748E+02  0.40659140741E+02  0.00000000000E+00 0. -1.
         11    1    3    3    0    0 -0.21320902785E+01  0.25459863526E+01 -0.33820404470E+01  0.47398368442E+01  0.51100000000E-03 0. -1.
        -11    1    3    3    0    0 -0.11698555860E+02 -0.22349087756E+02  0.12984978871E+02  0.28371598638E+02  0.51100000000E-03 0.  1.
         12    1    3    3    0    0 -0.26652404566E+01 -0.76929121920E+01  0.15397475324E+02  0.17417423778E+02  0.00000000000E+00 0. -1.
</event>
<event>
 7    1  0.2973028E-011  0.5052886E+02  0.7816164E-02  0.1300439E+00
        -11   -1    0    0    0    0  0.00000000000E+00  0.00000000000E+00  0.45593999997E+02  0.45594000000E+02  0.51100000000E-03 0. -1.
         11   -1    0    0    0    0 -0.00000000000E+00 -0.00000000000E+00 -0.45593999997E+02  0.45594000000E+02  0.51100000000E-03 0.  1.
    9900012    2    1    2    0    0 -0.14783802895E+02 -0.37401969380E+02 -0.59747166839E+01  0.50528863499E+02  0.30000011092E+02 0.  0.
         12    1    1    2    0    0  0.14783802895E+02  0.37401969380E+02  0.59747166839E+01  0.40659136501E+02  0.00000000000E+00 0. -1.
         11    1    3    3    0    0  0.10689000968E+01  0.43829448503E+01 -0.35550564659E+00  0.45253881053E+01  0.51100000000E-03 0. -1.
        -11    1    3    3    0    0 -0.11423340052E+02 -0.37930585135E+02 -0.35262278918E+01  0.39770042369E+02  0.51100000000E-03 0.  1.
         12    1    3    3    0    0 -0.44293629401E+01 -0.38543290955E+01 -0.20929831455E+01  0.62334330251E+01  0.00000000000E+00 0. -1.
</event>
<event>
 7    1  0.2973028E-011  0.5052886E+02  0.7816164E-02  0.1300439E+00
        -11   -1    0    0    0    0  0.00000000000E+00  0.00000000000E+00  0.45593999997E+02  0.45594000000E+02  0.51100000000E-03 0.  1.
         11   -1    0    0    0    0 -0.00000000000E+00 -0.00000000000E+00 -0.45593999997E+02  0.45594000000E+02  0.51100000000E-03 0. -1.
    9900012    2    1    2    0    0  0.15360499027E+02  0.27718239397E+02  0.25473914560E+02  0.50528855289E+02  0.29999986136E+02 0.  0.
         12    1    1    2    0    0 -0.15360499027E+02 -0.27718239397E+02 -0.25473914560E+02  0.40659144711E+02  0.00000000000E+00 0. -1.
         11    1    3    3    0    0  0.82712963437E+00  0.81998734462E+00  0.11486673930E+02  0.11545570619E+02  0.51100000000E-03 0. -1.
        -11    1    3    3    0    0  0.19302206016E+02  0.22105200173E+02  0.13192594897E+02  0.32175450147E+02  0.51100000000E-03 0.  1.
        -12    1    3    3    0    0 -0.47688366228E+01  0.47930518791E+01  0.79464573277E+00  0.68078345229E+01  0.00000000000E+00 0.  1.
</event>
<event>
 7    1  0.2973028E-011  0.5052886E+02  0.7816164E-02  0.1300439E+00
        -11   -1    0    0    0    0  0.00000000000E+00  0.00000000000E+00  0.45593999997E+02  0.45594000000E+02  0.51100000000E-03 0. -1.
         11   -1    0    0    0    0 -0.00000000000E+00 -0.00000000000E+00 -0.45593999997E+02  0.45594000000E+02  0.51100000000E-03 0.  1.
    9900012    2    1    2    0    0 -0.66282280773E+00  0.31634288679E+02 -0.25534260185E+02  0.50528855918E+02  0.29999988048E+02 0.  0.
         12    1    1    2    0    0  0.66282280773E+00 -0.31634288679E+02  0.25534260185E+02  0.40659144082E+02  0.00000000000E+00 0. -1.
         11    1    3    3    0    0 -0.88917350319E+01  0.31590068457E+01 -0.12733231142E+02  0.15848578854E+02  0.51100000000E-03 0. -1.
        -11    1    3    3    0    0  0.55997040584E+01  0.28657841872E+02 -0.13145394857E+02  0.32022335838E+02  0.51100000000E-03 0.  1.
        -12    1    3    3    0    0  0.26292081658E+01 -0.18256003918E+00  0.34436581307E+00  0.26579412259E+01  0.00000000000E+00 0.  1.
</event>
<event>
 7    1  0.2973028E-011  0.5052888E+02  0.7816164E-02  0.1300439E+00
        -11   -1    0    0    0    0  0.00000000000E+00  0.00000000000E+00  0.45593999997E+02  0.45594000000E+02  0.51100000000E-03 0.  1.
         11   -1    0    0    0    0 -0.00000000000E+00 -0.00000000000E+00 -0.45593999997E+02  0.45594000000E+02  0.51100000000E-03 0. -1.
    9900012    2    1    2    0    0  0.35901311018E+00 -0.72023087478E+01  0.40014526056E+02  0.50528875105E+02  0.30000046370E+02 0.  0.
         12    1    1    2    0    0 -0.35901311018E+00  0.72023087478E+01 -0.40014526056E+02  0.40659124895E+02  0.00000000000E+00 0. -1.
         11    1    3    3    0    0  0.71381776988E+01 -0.10929249498E+02  0.11882759397E+02  0.17652253301E+02  0.51100000000E-03 0. -1.
        -11    1    3    3    0    0 -0.69009751815E+01  0.74073558170E+01  0.27278615668E+02  0.29096653617E+02  0.51100000000E-03 0.  1.
        -12    1    3    3    0    0  0.12181059294E+00 -0.36804150671E+01  0.85315099029E+00  0.37799681876E+01  0.00000000000E+00 0.  1.
</event>
<event>
 7    1  0.2973028E-011  0.5052886E+02  0.7816164E-02  0.1300439E+00
        -11   -1    0    0    0    0  0.00000000000E+00  0.00000000000E+00  0.45593999997E+02  0.45594000000E+02  0.51100000000E-03 0. -1.
         11   -1    0    0    0    0 -0.00000000000E+00 -0.00000000000E+00 -0.45593999997E+02  0.45594000000E+02  0.51100000000E-03 0.  1.
    9900012    2    1    2    0    0  0.26719676010E+02  0.30212788355E+02  0.51392913436E+01  0.50528856111E+02  0.29999988635E+02 0.  0.
         12    1    1    2    0    0 -0.26719676010E+02 -0.30212788355E+02 -0.51392913436E+01  0.40659143889E+02  0.00000000000E+00 0. -1.
         11    1    3    3    0    0  0.11997970360E+02  0.15222306585E+02 -0.11887137296E+02  0.22737061022E+02  0.51100000000E-03 0. -1.
        -11    1    3    3    0    0  0.12331372965E-01 -0.38833527759E+00 -0.17705479369E+00  0.42697190970E+00  0.51100000000E-03 0.  1.
         12    1    3    3    0    0  0.14709374277E+02  0.15378817047E+02  0.17203483434E+02  0.27364823180E+02  0.00000000000E+00 0. -1.
</event>
<event>
 7    1  0.2973028E-011  0.5052884E+02  0.7816164E-02  0.1300439E+00
        -11   -1    0    0    0    0  0.00000000000E+00  0.00000000000E+00  0.45593999997E+02  0.45594000000E+02  0.51100000000E-03 0.  1.
         11   -1    0    0    0    0 -0.00000000000E+00 -0.00000000000E+00 -0.45593999997E+02  0.45594000000E+02  0.51100000000E-03 0. -1.
    9900012    2    1    2    0    0 -0.24343185728E+01 -0.21717363007E+02  0.34286982142E+02  0.50528844730E+02  0.29999954040E+02 0.  0.
         12    1    1    2    0    0  0.24343185728E+01  0.21717363007E+02 -0.34286982142E+02  0.40659155270E+02  0.00000000000E+00 0. -1.
         11    1    3    3    0    0 -0.13019060216E+02 -0.13622625456E+02  0.26410028918E+02  0.32443203925E+02  0.51100000000E-03 0. -1.
        -11    1    3    3    0    0  0.10045790018E+02 -0.74371312191E+01  0.98651616302E+01  0.15923260725E+02  0.51100000000E-03 0.  1.
         12    1    3    3    0    0  0.53895162526E+00 -0.65760633225E+00 -0.19882084065E+01  0.21623800799E+01  0.00000000000E+00 0. -1.
</event>
<event>
 7    1  0.2973028E-011  0.5052885E+02  0.7816164E-02  0.1300439E+00
        -11   -1    0    0    0    0  0.00000000000E+00  0.00000000000E+00  0.45593999997E+02  0.45594000000E+02  0.51100000000E-03 0.  1.
         11   -1    0    0    0    0 -0.00000000000E+00 -0.00000000000E+00 -0.45593999997E+02  0.45594000000E+02  0.51100000000E-03 0. -1.
    9900012    2    1    2    0    0 -0.80828424120E+01  0.39653600782E+02 -0.39275813868E+01  0.50528852296E+02  0.29999977039E+02 0.  0.
         12    1    1    2    0    0  0.80828424120E+01 -0.39653600782E+02  0.39275813868E+01  0.40659147704E+02  0.00000000000E+00 0. -1.
         11    1    3    3    0    0 -0.16853395747E+01  0.42021067965E+01 -0.96248167241E+01  0.10636501692E+02  0.51100000000E-03 0. -1.
        -11    1    3    3    0    0 -0.11411925712E+02  0.19819139629E+02  0.13502770112E+01  0.22909683375E+02  0.51100000000E-03 0.  1.
         12    1    3    3    0    0  0.50144228746E+01  0.15632354357E+02  0.43469583260E+01  0.16982667229E+02  0.00000000000E+00 0. -1.
</event>
<event>
 7    1  0.2973028E-011  0.5052886E+02  0.7816164E-02  0.1300439E+00
        -11   -1    0    0    0    0  0.00000000000E+00  0.00000000000E+00  0.45593999997E+02  0.45594000000E+02  0.51100000000E-03 0. -1.
         11   -1    0    0    0    0 -0.00000000000E+00 -0.00000000000E+00 -0.45593999997E+02  0.45594000000E+02  0.51100000000E-03 0.  1.
    9900012    2    1    2    0    0 -0.27903513421E+02  0.19499044949E+02  0.22233909939E+02  0.50528861219E+02  0.30000004163E+02 0.  0.
         12    1    1    2    0    0  0.27903513421E+02 -0.19499044949E+02 -0.22233909939E+02  0.40659138781E+02  0.00000000000E+00 0. -1.
         11    1    3    3    0    0  0.12297885521E+01  0.61225164559E+01 -0.38354604987E+01  0.73285977605E+01  0.51100000000E-03 0. -1.
        -11    1    3    3    0    0 -0.18608288719E+02  0.10501130073E+02  0.23931503881E+02  0.32082066955E+02  0.51100000000E-03 0.  1.
        -12    1    3    3    0    0 -0.10525013254E+02  0.28753984201E+01  0.21378665573E+01  0.11118196504E+02  0.00000000000E+00 0.  1.
</event>
<event>
 7    1  0.2973028E-011  0.5052886E+02  0.7816164E-02  0.1300439E+00
        -11   -1    0    0    0    0  0.00000000000E+00  0.00000000000E+00  0.45593999997E+02  0.45594000000E+02  0.51100000000E-03 0.  1.
         11   -1    0    0    0    0 -0.00000000000E+00 -0.00000000000E+00 -0.45593999997E+02  0.45594000000E+02  0.51100000000E-03 0. -1.
    9900012    2    1    2    0    0  0.30451289930E+02  0.22243852662E+01  0.26850261561E+02  0.50528862108E+02  0.30000006863E+02 0.  0.
         12    1    1    2    0    0 -0.30451289930E+02 -0.22243852662E+01 -0.26850261561E+02  0.40659137892E+02  0.00000000000E+00 0. -1.
         11    1    3    3    0    0 -0.39045720688E+00 -0.11216492101E+01  0.42925579003E-01  0.11884429508E+01  0.51100000000E-03 0. -1.
        -11    1    3    3    0    0  0.16837218249E+01  0.63720347156E+01 -0.32554671939E+01  0.73509055573E+01  0.51100000000E-03 0.  1.
        -12    1    3    3    0    0  0.29158025312E+02 -0.30260002393E+01  0.30062803176E+02  0.41989513600E+02  0.00000000000E+00 0.  1.
</event>
<event>
 7    1  0.2973028E-011  0.5052886E+02  0.7816164E-02  0.1300439E+00
        -11   -1    0    0    0    0  0.00000000000E+00  0.00000000000E+00  0.45593999997E+02  0.45594000000E+02  0.51100000000E-03 0.  1.
         11   -1    0    0    0    0 -0.00000000000E+00 -0.00000000000E+00 -0.45593999997E+02  0.45594000000E+02  0.51100000000E-03 0. -1.
    9900012    2    1    2    0    0  0.36184166458E+01 -0.15210515549E+01  0.40469240970E+02  0.50528855868E+02  0.29999987896E+02 0.  0.
         12    1    1    2    0    0 -0.36184166458E+01  0.15210515549E+01 -0.40469240970E+02  0.40659144132E+02  0.00000000000E+00 0. -1.
         11    1    3    3    0    0  0.78990887051E+01  0.95692888526E+00  0.16918153501E+01  0.81347129453E+01  0.51100000000E-03 0. -1.
        -11    1    3    3    0    0 -0.31831790794E+01 -0.87391136716E+01  0.30913783751E+02  0.32282607746E+02  0.51100000000E-03 0.  1.
        -12    1    3    3    0    0 -0.10974929800E+01  0.62611332314E+01  0.78636418694E+01  0.10111535177E+02  0.00000000000E+00 0.  1.
</event>
<event>
 7    1  0.2973028E-011  0.5052886E+02  0.7816164E-02  0.1300439E+00
        -11   -1    0    0    0    0  0.00000000000E+00  0.00000000000E+00  0.45593999997E+02  0.45594000000E+02  0.51100000000E-03 0.  1.
         11   -1    0    0    0    0 -0.00000000000E+00 -0.00000000000E+00 -0.45593999997E+02  0.45594000000E+02  0.51100000000E-03 0. -1.
    9900012    2    1    2    0    0 -0.15449185920E+02  0.60260972825E+01  0.37123773025E+02  0.50528859359E+02  0.29999998507E+02 0.  0.
         12    1    1    2    0    0  0.15449185920E+02 -0.60260972825E+01 -0.37123773025E+02  0.40659140641E+02  0.00000000000E+00 0. -1.
         11    1    3    3    0    0  0.50472458785E-01  0.66756129684E+01  0.20641820675E+01  0.69876465167E+01  0.51100000000E-03 0. -1.
        -11    1    3    3    0    0 -0.19144655148E+02 -0.45688476395E+01  0.22530715370E+02  0.29916973858E+02  0.51100000000E-03 0.  1.
        -12    1    3    3    0    0  0.36449967690E+01  0.39193319536E+01  0.12528875587E+02  0.13624238984E+02  0.00000000000E+00 0.  1.
</event>
<event>
 7    1  0.2973028E-011  0.5052886E+02  0.7816164E-02  0.1300439E+00
        -11   -1    0    0    0    0  0.00000000000E+00  0.00000000000E+00  0.45593999997E+02  0.45594000000E+02  0.51100000000E-03 0.  1.
         11   -1    0    0    0    0 -0.00000000000E+00 -0.00000000000E+00 -0.45593999997E+02  0.45594000000E+02  0.51100000000E-03 0. -1.
    9900012    2    1    2    0    0  0.33217313304E+02  0.20678125764E+02  0.11054002603E+02  0.50528858816E+02  0.29999996857E+02 0.  0.
         12    1    1    2    0    0 -0.33217313304E+02 -0.20678125764E+02 -0.11054002603E+02  0.40659141184E+02  0.00000000000E+00 0. -1.
         11    1    3    3    0    0 -0.23861931456E+01  0.10150104907E+02  0.51467935537E+01  0.11627898843E+02  0.51100000000E-03 0. -1.
        -11    1    3    3    0    0  0.20140773262E+02  0.87461888688E+01 -0.75319316358E+00  0.21970750272E+02  0.51100000000E-03 0.  1.
         12    1    3    3    0    0  0.15462733188E+02  0.17818319875E+01  0.66604022130E+01  0.16930209701E+02  0.00000000000E+00 0. -1.
</event>
<event>
 7    1  0.2973028E-011  0.5052885E+02  0.7816164E-02  0.1300439E+00
        -11   -1    0    0    0    0  0.00000000000E+00  0.00000000000E+00  0.45593999997E+02  0.45594000000E+02  0.51100000000E-03 0.  1.
         11   -1    0    0    0    0 -0.00000000000E+00 -0.00000000000E+00 -0.45593999997E+02  0.45594000000E+02  0.51100000000E-03 0. -1.
    9900012    2    1    2    0    0 -0.17920608945E+02  0.10939372184E+02  0.34818791476E+02  0.50528851847E+02  0.29999975674E+02 0.  0.
         12    1    1    2    0    0  0.17920608945E+02 -0.10939372184E+02 -0.34818791476E+02  0.40659148153E+02  0.00000000000E+00 0. -1.
         11    1    3    3    0    0 -0.11355293622E+02  0.13440219356E+02  0.20818488510E+02  0.27257873242E+02  0.51100000000E-03 0.  1.
        -11    1    3    3    0    0  0.35864508354E+01  0.46065300978E+01  0.67057770948E+01  0.88910177057E+01  0.51100000000E-03 0. -1.
         12    1    3    3    0    0 -0.10151766158E+02 -0.71073772697E+01  0.72945258709E+01  0.14379960899E+02  0.00000000000E+00 0. -1.
</event>
<event>
 7    1  0.2973028E-011  0.5052883E+02  0.7816164E-02  0.1300439E+00
        -11   -1    0    0    0    0  0.00000000000E+00  0.00000000000E+00  0.45593999997E+02  0.45594000000E+02  0.51100000000E-03 0. -1.
         11   -1    0    0    0    0 -0.00000000000E+00 -0.00000000000E+00 -0.45593999997E+02  0.45594000000E+02  0.51100000000E-03 0.  1.
    9900012    2    1    2    0    0  0.17289592055E+02 -0.18461139133E+02 -0.31834330941E+02  0.50528827874E+02  0.29999902807E+02 0.  0.
         12    1    1    2    0    0 -0.17289592055E+02  0.18461139133E+02  0.31834330941E+02  0.40659172126E+02  0.00000000000E+00 0. -1.
         11    1    3    3    0    0  0.10186039648E+02 -0.63562442452E+01 -0.86265430813E+01  0.14784264960E+02  0.51100000000E-03 0. -1.
        -11    1    3    3    0    0 -0.47354371166E+01 -0.13962218012E+02 -0.16014242016E+02  0.21767495127E+02  0.51100000000E-03 0.  1.
        -12    1    3    3    0    0  0.11838989523E+02  0.18573231248E+01 -0.71935458431E+01  0.13977067787E+02  0.00000000000E+00 0.  1.
</event>
<event>
 7    1  0.2973028E-011  0.5052886E+02  0.7816164E-02  0.1300439E+00
        -11   -1    0    0    0    0  0.00000000000E+00  0.00000000000E+00  0.45593999997E+02  0.45594000000E+02  0.51100000000E-03 0.  1.
         11   -1    0    0    0    0 -0.00000000000E+00 -0.00000000000E+00 -0.45593999997E+02  0.45594000000E+02  0.51100000000E-03 0. -1.
    9900012    2    1    2    0    0  0.33812298398E+02  0.12387072484E+02  0.18879995234E+02  0.50528864400E+02  0.30000013831E+02 0.  0.
         12    1    1    2    0    0 -0.33812298398E+02 -0.12387072484E+02 -0.18879995234E+02  0.40659135600E+02  0.00000000000E+00 0. -1.
         11    1    3    3    0    0  0.22043051267E+02 -0.33313379500E+01  0.14484141695E+02  0.26585414847E+02  0.51100000000E-03 0.  1.
        -11    1    3    3    0    0  0.10229640837E+02  0.14410176538E+02 -0.14762225131E+01  0.17733526798E+02  0.51100000000E-03 0. -1.
         12    1    3    3    0    0  0.15396062941E+01  0.13082338956E+01  0.58720760521E+01  0.62099227554E+01  0.00000000000E+00 0. -1.
</event>
<event>
 7    1  0.2973028E-011  0.5052884E+02  0.7816164E-02  0.1300439E+00
        -11   -1    0    0    0    0  0.00000000000E+00  0.00000000000E+00  0.45593999997E+02  0.45594000000E+02  0.51100000000E-03 0.  1.
         11   -1    0    0    0    0 -0.00000000000E+00 -0.00000000000E+00 -0.45593999997E+02  0.45594000000E+02  0.51100000000E-03 0. -1.
    9900012    2    1    2    0    0 -0.36909503412E+02 -0.14931052685E+02 -0.82413423609E+01  0.50528837437E+02  0.29999931875E+02 0.  0.
         12    1    1    2    0    0  0.36909503412E+02  0.14931052685E+02  0.82413423609E+01  0.40659162563E+02  0.00000000000E+00 0. -1.
         11    1    3    3    0    0 -0.10926665588E+02  0.25134336885E+01 -0.23741521614E+01  0.11460626882E+02  0.51100000000E-03 0. -1.
        -11    1    3    3    0    0 -0.41986180939E+01 -0.56486310327E+01 -0.11666984992E+02  0.13625489551E+02  0.51100000000E-03 0.  1.
        -12    1    3    3    0    0 -0.21784219730E+02 -0.11795855341E+02  0.57997947928E+01  0.25442721004E+02  0.00000000000E+00 0.  1.
</event>
<event>
 7    1  0.2973028E-011  0.5052887E+02  0.7816164E-02  0.1300439E+00
        -11   -1    0    0    0    0  0.00000000000E+00  0.00000000000E+00  0.45593999997E+02  0.45594000000E+02  0.51100000000E-03 0.  1.
         11   -1    0    0    0    0 -0.00000000000E+00 -0.00000000000E+00 -0.45593999997E+02  0.45594000000E+02  0.51100000000E-03 0. -1.
    9900012    2    1    2    0    0  0.37491769437E+02 -0.78705506935E+01  0.13623024174E+02  0.50528866569E+02  0.30000020423E+02 0.  0.
         12    1    1    2    0    0 -0.37491769437E+02  0.78705506935E+01 -0.13623024174E+02  0.40659133431E+02  0.00000000000E+00 0. -1.
         11    1    3    3    0    0  0.82590049041E+01 -0.19068914090E+01 -0.20173907044E+01  0.87130512662E+01  0.51100000000E-03 0. -1.
        -11    1    3    3    0    0  0.71240711417E+01 -0.66073473765E+01  0.17080658492E+02  0.19650911525E+02  0.51100000000E-03 0.  1.
        -12    1    3    3    0    0  0.22108693391E+02  0.64368809194E+00 -0.14402436135E+01  0.22164903778E+02  0.00000000000E+00 0.  1.
</event>
<event>
 7    1  0.2973028E-011  0.5052886E+02  0.7816164E-02  0.1300439E+00
        -11   -1    0    0    0    0  0.00000000000E+00  0.00000000000E+00  0.45593999997E+02  0.45594000000E+02  0.51100000000E-03 0. -1.
         11   -1    0    0    0    0 -0.00000000000E+00 -0.00000000000E+00 -0.45593999997E+02  0.45594000000E+02  0.51100000000E-03 0.  1.
    9900012    2    1    2    0    0  0.67998076805E+00 -0.40591839978E+02  0.22373472163E+01  0.50528861184E+02  0.30000004056E+02 0.  0.
         12    1    1    2    0    0 -0.67998076805E+00  0.40591839978E+02 -0.22373472163E+01  0.40659138816E+02  0.00000000000E+00 0. -1.
         11    1    3    3    0    0 -0.10272000262E+02 -0.12744847294E+02 -0.36432686442E+01  0.16769571509E+02  0.51100000000E-03 0. -1.
        -11    1    3    3    0    0  0.10494933080E+02 -0.15616005498E+02 -0.24208785226E+01  0.18970079102E+02  0.51100000000E-03 0.  1.
         12    1    3    3    0    0  0.45704795010E+00 -0.12230987186E+02  0.83014943831E+01  0.14789210573E+02  0.00000000000E+00 0. -1.
</event>
<event>
 7    1  0.2973028E-011  0.5052885E+02  0.7816164E-02  0.1300439E+00
        -11   -1    0    0    0    0  0.00000000000E+00  0.00000000000E+00  0.45593999997E+02  0.45594000000E+02  0.51100000000E-03 0.  1.
         11   -1    0    0    0    0 -0.00000000000E+00 -0.00000000000E+00 -0.45593999997E+02  0.45594000000E+02  0.51100000000E-03 0. -1.
    9900012    2    1    2    0    0  0.34432682209E+02  0.18609164711E+02  0.11011624548E+02  0.50528849855E+02  0.29999969618E+02 0.  0.
         12    1    1    2    0    0 -0.34432682209E+02 -0.18609164711E+02 -0.11011624548E+02  0.40659150145E+02  0.00000000000E+00 0. -1.
         11    1    3    3    0    0 -0.39132556490E+01 -0.22855784762E+01  0.25915425148E+01  0.52204915106E+01  0.51100000000E-03 0. -1.
        -11    1    3    3    0    0  0.19362992180E+02  0.15296856584E+02  0.57561304638E+01  0.25338751462E+02  0.51100000000E-03 0.  1.
         12    1    3    3    0    0  0.18982945678E+02  0.55978866041E+01  0.26639515691E+01  0.19969606882E+02  0.00000000000E+00 0. -1.
</event>
<event>
 7    1  0.2973028E-011  0.5052885E+02  0.7816164E-02  0.1300439E+00
        -11   -1    0    0    0    0  0.00000000000E+00  0.00000000000E+00  0.45593999997E+02  0.45594000000E+02  0.51100000000E-03 0.  1.
         11   -1    0    0    0    0 -0.00000000000E+00 -0.00000000000E+00 -0.45593999997E+02  0.45594000000E+02  0.51100000000E-03 0. -1.
    9900012    2    1    2    0    0  0.30022342008E+02 -0.58742288417E+01  0.26782811813E+02  0.50528848598E+02  0.29999965798E+02 0.  0.
         12    1    1    2    0    0 -0.30022342008E+02  0.58742288417E+01 -0.26782811813E+02  0.40659151402E+02  0.00000000000E+00 0. -1.
         11    1    3    3    0    0 -0.31716384386E+01 -0.12956833057E+01 -0.19882988447E+01  0.39612394741E+01  0.51100000000E-03 0. -1.
        -11    1    3    3    0    0  0.30164353753E+02  0.79835441548E+00  0.25877039975E+02  0.39751060429E+02  0.51100000000E-03 0.  1.
         12    1    3    3    0    0  0.30296266931E+01 -0.53768999515E+01  0.28940706832E+01  0.68165486947E+01  0.00000000000E+00 0. -1.
</event>
<event>
 7    1  0.2973028E-011  0.5052886E+02  0.7816164E-02  0.1300439E+00
        -11   -1    0    0    0    0  0.00000000000E+00  0.00000000000E+00  0.45593999997E+02  0.45594000000E+02  0.51100000000E-03 0.  1.
         11   -1    0    0    0    0 -0.00000000000E+00 -0.00000000000E+00 -0.45593999997E+02  0.45594000000E+02  0.51100000000E-03 0. -1.
    9900012    2    1    2    0    0 -0.15852552825E+01  0.29164003648E+02  0.28286281003E+02  0.50528857902E+02  0.29999994080E+02 0.  0.
         12    1    1    2    0    0  0.15852552825E+01 -0.29164003648E+02 -0.28286281003E+02  0.40659142098E+02  0.00000000000E+00 0. -1.
         11    1    3    3    0    0  0.35790799708E+01 -0.18492492463E+01 -0.35220861903E+01  0.53511333010E+01  0.51100000000E-03 0. -1.
        -11    1    3    3    0    0 -0.20898465760E+01  0.26496892950E+02  0.27200689958E+02  0.38030649865E+02  0.51100000000E-03 0.  1.
        -12    1    3    3    0    0 -0.30744886773E+01  0.45163599444E+01  0.46076772360E+01  0.71470747363E+01  0.00000000000E+00 0.  1.
</event>
<event>
 7    1  0.2973028E-011  0.5052886E+02  0.7816164E-02  0.1300439E+00
        -11   -1    0    0    0    0  0.00000000000E+00  0.00000000000E+00  0.45593999997E+02  0.45594000000E+02  0.51100000000E-03 0.  1.
         11   -1    0    0    0    0 -0.00000000000E+00 -0.00000000000E+00 -0.45593999997E+02  0.45594000000E+02  0.51100000000E-03 0. -1.
    9900012    2    1    2    0    0  0.36606924762E+02 -0.45323001744E+01  0.17104292019E+02  0.50528862148E+02  0.30000006984E+02 0.  0.
         12    1    1    2    0    0 -0.36606924762E+02  0.45323001744E+01 -0.17104292019E+02  0.40659137852E+02  0.00000000000E+00 0. -1.
         11    1    3    3    0    0  0.16021408477E+02  0.67800852940E+01  0.42812112695E+01  0.17916022337E+02  0.51100000000E-03 0. -1.
        -11    1    3    3    0    0  0.67789528638E+01 -0.82248081682E+01 -0.33048933661E+01  0.11159031847E+02  0.51100000000E-03 0.  1.
        -12    1    3    3    0    0  0.13806563422E+02 -0.30875773002E+01  0.16127974115E+02  0.21453807964E+02  0.00000000000E+00 0.  1.
</event>
<event>
 7    1  0.2973028E-011  0.5052886E+02  0.7816164E-02  0.1300439E+00
        -11   -1    0    0    0    0  0.00000000000E+00  0.00000000000E+00  0.45593999997E+02  0.45594000000E+02  0.51100000000E-03 0.  1.
         11   -1    0    0    0    0 -0.00000000000E+00 -0.00000000000E+00 -0.45593999997E+02  0.45594000000E+02  0.51100000000E-03 0. -1.
    9900012    2    1    2    0    0 -0.56655666597E+00  0.24568265199E+02  0.32392055139E+02  0.50528857394E+02  0.29999992534E+02 0.  0.
         12    1    1    2    0    0  0.56655666597E+00 -0.24568265199E+02 -0.32392055139E+02  0.40659142606E+02  0.00000000000E+00 0. -1.
         11    1    3    3    0    0 -0.48687960317E+00  0.77574288271E+01 -0.45072604498E+01  0.89849958698E+01  0.51100000000E-03 0. -1.
        -11    1    3    3    0    0  0.27258602499E+01  0.55355748099E+01  0.20757325827E+02  0.21655010467E+02  0.51100000000E-03 0.  1.
         12    1    3    3    0    0 -0.28055373127E+01  0.11275261562E+02  0.16141989762E+02  0.19888851057E+02  0.00000000000E+00 0. -1.
</event>
<event>
 7    1  0.3526290E-011  0.5052885E+02  0.7816164E-02  0.1300439E+00
        -11   -1    0    0    0    0  0.00000000000E+00  0.00000000000E+00  0.45593999997E+02  0.45594000000E+02  0.51100000000E-03 0. -1.
         11   -1    0    0    0    0 -0.00000000000E+00 -0.00000000000E+00 -0.45593999997E+02  0.45594000000E+02  0.51100000000E-03 0.  1.
    9900012    2    1    2    0    0 -0.11706600388E+02  0.19391478495E+02 -0.33765250754E+02  0.50528854788E+02  0.29999984614E+02 0.  0.
         12    1    1    2    0    0  0.11706600388E+02 -0.19391478495E+02  0.33765250754E+02  0.40659145212E+02  0.00000000000E+00 0. -1.
         11    1    3    3    0    0 -0.12798971494E+02  0.11688670376E+01 -0.52922569626E+01  0.13899205210E+02  0.51100000000E-03 0. -1.
        -11    1    3    3    0    0 -0.33102136630E+01  0.17685311138E+02 -0.18986272005E+02  0.26157336819E+02  0.51100000000E-03 0.  1.
        -12    1    3    3    0    0  0.44025847685E+01  0.53730031935E+00 -0.94867217864E+01  0.10472312759E+02  0.00000000000E+00 0.  1.
</event>
<event>
 7    1  0.2973028E-011  0.5052889E+02  0.7816164E-02  0.1300439E+00
        -11   -1    0    0    0    0  0.00000000000E+00  0.00000000000E+00  0.45593999997E+02  0.45594000000E+02  0.51100000000E-03 0.  1.
         11   -1    0    0    0    0 -0.00000000000E+00 -0.00000000000E+00 -0.45593999997E+02  0.45594000000E+02  0.51100000000E-03 0. -1.
    9900012    2    1    2    0    0  0.11838756467E+02  0.24985904595E+02  0.29811268127E+02  0.50528889208E+02  0.30000089235E+02 0.  0.
         12    1    1    2    0    0 -0.11838756467E+02 -0.24985904595E+02 -0.29811268127E+02  0.40659110792E+02  0.00000000000E+00 0. -1.
         11    1    3    3    0    0  0.44495477084E+01  0.21929562400E+02  0.14564684010E+02  0.26698955081E+02  0.51100000000E-03 0.  1.
        -11    1    3    3    0    0  0.30629866988E+01 -0.49173965294E+01  0.13362903382E+02  0.14564678617E+02  0.51100000000E-03 0. -1.
         12    1    3    3    0    0  0.43262220595E+01  0.79737387246E+01  0.18836807348E+01  0.92652555101E+01  0.00000000000E+00 0. -1.
</event>
<event>
 7    1  0.2973028E-011  0.5052894E+02  0.7816164E-02  0.1300438E+00
        -11   -1    0    0    0    0  0.00000000000E+00  0.00000000000E+00  0.45593999997E+02  0.45594000000E+02  0.51100000000E-03 0.  1.
         11   -1    0    0    0    0 -0.00000000000E+00 -0.00000000000E+00 -0.45593999997E+02  0.45594000000E+02  0.51100000000E-03 0. -1.
    9900012    2    1    2    0    0  0.15669031070E+02  0.16475405086E+02  0.33707586328E+02  0.50528943401E+02  0.30000253961E+02 0.  0.
         12    1    1    2    0    0 -0.15669031070E+02 -0.16475405086E+02 -0.33707586328E+02  0.40659056599E+02  0.00000000000E+00 0. -1.
         11    1    3    3    0    0  0.86156985531E+01  0.11632163345E+02  0.72237075228E+00  0.14493422832E+02  0.51100000000E-03 0. -1.
        -11    1    3    3    0    0  0.89442260784E+01  0.66590770938E+01  0.21107468618E+02  0.23871902304E+02  0.51100000000E-03 0.  1.
         12    1    3    3    0    0 -0.18908935618E+01 -0.18158353526E+01  0.11877746958E+02  0.12163618265E+02  0.00000000000E+00 0. -1.
</event>
<event>
 7    1  0.2973028E-011  0.5052885E+02  0.7816164E-02  0.1300439E+00
        -11   -1    0    0    0    0  0.00000000000E+00  0.00000000000E+00  0.45593999997E+02  0.45594000000E+02  0.51100000000E-03 0.  1.
         11   -1    0    0    0    0 -0.00000000000E+00 -0.00000000000E+00 -0.45593999997E+02  0.45594000000E+02  0.51100000000E-03 0. -1.
    9900012    2    1    2    0    0 -0.97081344559E+00  0.11364453076E+02  0.39026565439E+02  0.50528854873E+02  0.29999984872E+02 0.  0.
         12    1    1    2    0    0  0.97081344559E+00 -0.11364453076E+02 -0.39026565439E+02  0.40659145127E+02  0.00000000000E+00 0. -1.
         11    1    3    3    0    0 -0.10050756118E+02  0.34778588193E+01  0.30384869618E+02  0.32192444804E+02  0.51100000000E-03 0. -1.
        -11    1    3    3    0    0  0.44448995414E+01 -0.20517858221E+01  0.43877410437E+01  0.65741333056E+01  0.51100000000E-03 0.  1.
         12    1    3    3    0    0  0.46350431306E+01  0.99383800789E+01  0.42539547779E+01  0.11762276764E+02  0.00000000000E+00 0. -1.
</event>
<event>
 7    1  0.2973028E-011  0.5052885E+02  0.7816164E-02  0.1300439E+00
        -11   -1    0    0    0    0  0.00000000000E+00  0.00000000000E+00  0.45593999997E+02  0.45594000000E+02  0.51100000000E-03 0.  1.
         11   -1    0    0    0    0 -0.00000000000E+00 -0.00000000000E+00 -0.45593999997E+02  0.45594000000E+02  0.51100000000E-03 0. -1.
    9900012    2    1    2    0    0 -0.31733170209E+02  0.17848696985E+02 -0.18099616586E+02  0.50528853475E+02  0.29999980623E+02 0.  0.
         12    1    1    2    0    0  0.31733170209E+02 -0.17848696985E+02  0.18099616586E+02  0.40659146525E+02  0.00000000000E+00 0. -1.
         11    1    3    3    0    0 -0.11479148452E+01  0.25158997627E+01 -0.16003784261E+02  0.16240953514E+02  0.51100000000E-03 0. -1.
        -11    1    3    3    0    0 -0.25684632142E+02  0.13192145278E+02 -0.16480654130E+01  0.28921430552E+02  0.51100000000E-03 0.  1.
         12    1    3    3    0    0 -0.49006232223E+01  0.21406519446E+01 -0.44776691168E+00  0.53664694094E+01  0.00000000000E+00 0. -1.
</event>
<event>
 7    1  0.2973028E-011  0.5052886E+02  0.7816164E-02  0.1300439E+00
        -11   -1    0    0    0    0  0.00000000000E+00  0.00000000000E+00  0.45593999997E+02  0.45594000000E+02  0.51100000000E-03 0.  1.
         11   -1    0    0    0    0 -0.00000000000E+00 -0.00000000000E+00 -0.45593999997E+02  0.45594000000E+02  0.51100000000E-03 0. -1.
    9900012    2    1    2    0    0  0.13835720890E+01  0.34585995955E+02  0.21332135281E+02  0.50528863467E+02  0.30000010995E+02 0.  0.
         12    1    1    2    0    0 -0.13835720890E+01 -0.34585995955E+02 -0.21332135281E+02  0.40659136533E+02  0.00000000000E+00 0. -1.
         11    1    3    3    0    0 -0.13600371815E+01  0.32409314982E+02  0.10473667260E+02  0.34086817171E+02  0.51100000000E-03 0. -1.
        -11    1    3    3    0    0  0.41906642615E+01  0.54035438357E+01  0.10943828854E+02  0.12904547384E+02  0.51100000000E-03 0.  1.
         12    1    3    3    0    0 -0.14470549909E+01 -0.32268628627E+01 -0.85360832721E-01  0.35374989121E+01  0.00000000000E+00 0. -1.
</event>
<event>
 7    1  0.2973028E-011  0.5052885E+02  0.7816164E-02  0.1300439E+00
        -11   -1    0    0    0    0  0.00000000000E+00  0.00000000000E+00  0.45593999997E+02  0.45594000000E+02  0.51100000000E-03 0.  1.
         11   -1    0    0    0    0 -0.00000000000E+00 -0.00000000000E+00 -0.45593999997E+02  0.45594000000E+02  0.51100000000E-03 0. -1.
    9900012    2    1    2    0    0  0.37851097668E+02  0.14139268876E+02 -0.45322817191E+01  0.50528854699E+02  0.29999984344E+02 0.  0.
         12    1    1    2    0    0 -0.37851097668E+02 -0.14139268876E+02  0.45322817191E+01  0.40659145301E+02  0.00000000000E+00 0. -1.
         11    1    3    3    0    0  0.59979147375E+01 -0.35062727966E+01 -0.68043498007E+01  0.97246134419E+01  0.51100000000E-03 0. -1.
        -11    1    3    3    0    0  0.32814998235E+02  0.12985650976E+02 -0.50583385118E+00  0.35294576193E+02  0.51100000000E-03 0.  1.
         12    1    3    3    0    0 -0.96181530514E+00  0.46598906960E+01  0.27779019328E+01  0.55096650650E+01  0.00000000000E+00 0. -1.
</event>
<event>
 7    1  0.2973028E-011  0.5052886E+02  0.7816164E-02  0.1300439E+00
        -11   -1    0    0    0    0  0.00000000000E+00  0.00000000000E+00  0.45593999997E+02  0.45594000000E+02  0.51100000000E-03 0. -1.
         11   -1    0    0    0    0 -0.00000000000E+00 -0.00000000000E+00 -0.45593999997E+02  0.45594000000E+02  0.51100000000E-03 0.  1.
    9900012    2    1    2    0    0 -0.15648171646E+01 -0.40076043600E+02  0.66803855642E+01  0.50528862347E+02  0.30000007590E+02 0.  0.
         12    1    1    2    0    0  0.15648171646E+01  0.40076043600E+02 -0.66803855642E+01  0.40659137653E+02  0.00000000000E+00 0. -1.
         11    1    3    3    0    0  0.96098143846E+01 -0.18247654701E+02  0.35155878483E+01  0.20920917589E+02  0.51100000000E-03 0. -1.
        -11    1    3    3    0    0 -0.95017444585E+01 -0.11966281573E+02  0.92863689719E+01  0.17880483534E+02  0.51100000000E-03 0.  1.
        -12    1    3    3    0    0 -0.16728870907E+01 -0.98621073260E+01 -0.61215712560E+01  0.11727461224E+02  0.00000000000E+00 0.  1.
</event>
<event>
 7    1  0.2973028E-011  0.5052886E+02  0.7816164E-02  0.1300439E+00
        -11   -1    0    0    0    0  0.00000000000E+00  0.00000000000E+00  0.45593999997E+02  0.45594000000E+02  0.51100000000E-03 0.  1.
         11   -1    0    0    0    0 -0.00000000000E+00 -0.00000000000E+00 -0.45593999997E+02  0.45594000000E+02  0.51100000000E-03 0. -1.
    9900012    2    1    2    0    0 -0.17487491048E+02  0.29336657511E+02  0.22061585987E+02  0.50528863348E+02  0.30000010632E+02 0.  0.
         12    1    1    2    0    0  0.17487491048E+02 -0.29336657511E+02 -0.22061585987E+02  0.40659136652E+02  0.00000000000E+00 0. -1.
         11    1    3    3    0    0 -0.46938545447E+00  0.25007440547E+02  0.13296548781E+02  0.28326500228E+02  0.51100000000E-03 0. -1.
        -11    1    3    3    0    0 -0.62852344444E+01  0.26245498183E+01  0.90554399020E+01  0.11331082289E+02  0.51100000000E-03 0.  1.
         12    1    3    3    0    0 -0.10732871149E+02  0.17046671456E+01 -0.29040269631E+00  0.10871280831E+02  0.00000000000E+00 0. -1.
</event>
<event>
 7    1  0.2973028E-011  0.5052884E+02  0.7816164E-02  0.1300439E+00
        -11   -1    0    0    0    0  0.00000000000E+00  0.00000000000E+00  0.45593999997E+02  0.45594000000E+02  0.51100000000E-03 0.  1.
         11   -1    0    0    0    0 -0.00000000000E+00 -0.00000000000E+00 -0.45593999997E+02  0.45594000000E+02  0.51100000000E-03 0. -1.
    9900012    2    1    2    0    0 -0.51044321936E+01 -0.39724312451E+02  0.70064942309E+01  0.50528841264E+02  0.29999943505E+02 0.  0.
         12    1    1    2    0    0  0.51044321936E+01  0.39724312451E+02 -0.70064942309E+01  0.40659158736E+02  0.00000000000E+00 0. -1.
         11    1    3    3    0    0 -0.14755517292E+01 -0.13184162810E+02 -0.10581868263E+02  0.16969836125E+02  0.51100000000E-03 0. -1.
        -11    1    3    3    0    0 -0.18106852213E+00 -0.24619308562E+02  0.14790208159E+02  0.28720957462E+02  0.51100000000E-03 0.  1.
         12    1    3    3    0    0 -0.34478119422E+01 -0.19208410787E+01  0.27981543349E+01  0.48380476766E+01  0.00000000000E+00 0. -1.
</event>
<event>
 7    1  0.2973028E-011  0.5052886E+02  0.7816164E-02  0.1300439E+00
        -11   -1    0    0    0    0  0.00000000000E+00  0.00000000000E+00  0.45593999997E+02  0.45594000000E+02  0.51100000000E-03 0. -1.
         11   -1    0    0    0    0 -0.00000000000E+00 -0.00000000000E+00 -0.45593999997E+02  0.45594000000E+02  0.51100000000E-03 0.  1.
    9900012    2    1    2    0    0  0.21326553806E+02 -0.30603923894E+02 -0.16178492719E+02  0.50528859802E+02  0.29999999855E+02 0.  0.
         12    1    1    2    0    0 -0.21326553806E+02  0.30603923894E+02  0.16178492719E+02  0.40659140198E+02  0.00000000000E+00 0. -1.
         11    1    3    3    0    0  0.92462719673E+01 -0.28956115439E+02 -0.53632213509E+00  0.30401279715E+02  0.51100000000E-03 0. -1.
        -11    1    3    3    0    0  0.67078901184E+01  0.26404442533E+00 -0.10420111106E+02  0.12395330775E+02  0.51100000000E-03 0.  1.
         12    1    3    3    0    0  0.53723917206E+01 -0.19118528800E+01 -0.52220594782E+01  0.77322493123E+01  0.00000000000E+00 0. -1.
</event>
<event>
 7    1  0.2973028E-011  0.5052888E+02  0.7816164E-02  0.1300439E+00
        -11   -1    0    0    0    0  0.00000000000E+00  0.00000000000E+00  0.45593999997E+02  0.45594000000E+02  0.51100000000E-03 0.  1.
         11   -1    0    0    0    0 -0.00000000000E+00 -0.00000000000E+00 -0.45593999997E+02  0.45594000000E+02  0.51100000000E-03 0. -1.
    9900012    2    1    2    0    0 -0.15976446587E+02 -0.16097105079E+02  0.33746114831E+02  0.50528881666E+02  0.30000066313E+02 0.  0.
         12    1    1    2    0    0  0.15976446587E+02  0.16097105079E+02 -0.33746114831E+02  0.40659118334E+02  0.00000000000E+00 0. -1.
         11    1    3    3    0    0  0.47082104260E+01 -0.91292147604E+01  0.46612031927E+01  0.11279921233E+02  0.51100000000E-03 0. -1.
        -11    1    3    3    0    0 -0.19054185789E+02 -0.10286568234E+02  0.20147928924E+02  0.29577263604E+02  0.51100000000E-03 0.  1.
        -12    1    3    3    0    0 -0.16304712240E+01  0.33186779157E+01  0.89369827142E+01  0.96716968291E+01  0.00000000000E+00 0.  1.
</event>
<event>
 7    1  0.2973028E-011  0.5052886E+02  0.7816164E-02  0.1300439E+00
        -11   -1    0    0    0    0  0.00000000000E+00  0.00000000000E+00  0.45593999997E+02  0.45594000000E+02  0.51100000000E-03 0. -1.
         11   -1    0    0    0    0 -0.00000000000E+00 -0.00000000000E+00 -0.45593999997E+02  0.45594000000E+02  0.51100000000E-03 0.  1.
    9900012    2    1    2    0    0  0.30317651360E+02  0.20315766859E+02 -0.17924145100E+02  0.50528863946E+02  0.30000012452E+02 0.  0.
         12    1    1    2    0    0 -0.30317651360E+02 -0.20315766859E+02  0.17924145100E+02  0.40659136054E+02  0.00000000000E+00 0. -1.
         11    1    3    3    0    0  0.12176648930E+02  0.13907617491E+01 -0.11288639025E+02  0.16662483870E+02  0.51100000000E-03 0. -1.
        -11    1    3    3    0    0  0.10747204531E+02  0.20296241732E+02  0.12113723680E+01  0.22997983758E+02  0.51100000000E-03 0.  1.
        -12    1    3    3    0    0  0.73937978984E+01 -0.13712366219E+01 -0.78468784433E+01  0.10868396319E+02  0.00000000000E+00 0.  1.
</event>
<event>
 7    1  0.2973028E-011  0.5052884E+02  0.7816164E-02  0.1300439E+00
        -11   -1    0    0    0    0  0.00000000000E+00  0.00000000000E+00  0.45593999997E+02  0.45594000000E+02  0.51100000000E-03 0. -1.
         11   -1    0    0    0    0 -0.00000000000E+00 -0.00000000000E+00 -0.45593999997E+02  0.45594000000E+02  0.51100000000E-03 0.  1.
    9900012    2    1    2    0    0 -0.31612770066E+02  0.11837868129E+02 -0.22664176237E+02  0.50528840668E+02  0.29999941694E+02 0.  0.
         12    1    1    2    0    0  0.31612770066E+02 -0.11837868129E+02  0.22664176237E+02  0.40659159332E+02  0.00000000000E+00 0. -1.
         11    1    3    3    0    0 -0.71722623350E+01 -0.21779423331E+01  0.13073407261E+00  0.74967907445E+01  0.51100000000E-03 0. -1.
        -11    1    3    3    0    0 -0.11681130937E+02  0.16670110966E+02 -0.22004380016E+02  0.29975559373E+02  0.51100000000E-03 0.  1.
        -12    1    3    3    0    0 -0.12759376794E+02 -0.26543005040E+01 -0.79053029413E+00  0.13056490550E+02  0.00000000000E+00 0.  1.
</event>
<event>
 7    1  0.2973028E-011  0.5052886E+02  0.7816164E-02  0.1300439E+00
        -11   -1    0    0    0    0  0.00000000000E+00  0.00000000000E+00  0.45593999997E+02  0.45594000000E+02  0.51100000000E-03 0.  1.
         11   -1    0    0    0    0 -0.00000000000E+00 -0.00000000000E+00 -0.45593999997E+02  0.45594000000E+02  0.51100000000E-03 0. -1.
    9900012    2    1    2    0    0 -0.35837863199E+02 -0.19029971081E+02 -0.25832613021E+01  0.50528862318E+02  0.30000007503E+02 0.  0.
         12    1    1    2    0    0  0.35837863199E+02  0.19029971081E+02  0.25832613021E+01  0.40659137682E+02  0.00000000000E+00 0. -1.
         11    1    3    3    0    0 -0.24802276271E+02 -0.13923410943E+02 -0.37722360514E+01  0.28692229708E+02  0.51100000000E-03 0.  1.
        -11    1    3    3    0    0 -0.19518082649E+01  0.45726085102E+01  0.59325996290E+01  0.77404161845E+01  0.51100000000E-03 0. -1.
         12    1    3    3    0    0 -0.90837786637E+01 -0.96791686484E+01 -0.47436248797E+01  0.14096216426E+02  0.00000000000E+00 0. -1.
</event>
<event>
 7    1  0.2973028E-011  0.5052886E+02  0.7816164E-02  0.1300439E+00
        -11   -1    0    0    0    0  0.00000000000E+00  0.00000000000E+00  0.45593999997E+02  0.45594000000E+02  0.51100000000E-03 0.  1.
         11   -1    0    0    0    0 -0.00000000000E+00 -0.00000000000E+00 -0.45593999997E+02  0.45594000000E+02  0.51100000000E-03 0. -1.
    9900012    2    1    2    0    0 -0.35249297237E+02 -0.19866151223E+02  0.39985595831E+01  0.50528863280E+02  0.30000010425E+02 0.  0.
         12    1    1    2    0    0  0.35249297237E+02  0.19866151223E+02 -0.39985595831E+01  0.40659136720E+02  0.00000000000E+00 0. -1.
         11    1    3    3    0    0 -0.23737165521E+02 -0.25564486221E+02  0.25476120429E+01  0.34978369174E+02  0.51100000000E-03 0. -1.
        -11    1    3    3    0    0 -0.80467048842E+01 -0.59952875899E+00 -0.55333834880E+00  0.80879588164E+01  0.51100000000E-03 0.  1.
         12    1    3    3    0    0 -0.34654268311E+01  0.62978637563E+01  0.20042858891E+01  0.74625352890E+01  0.00000000000E+00 0. -1.
</event>
<event>
 7    1  0.2973028E-011  0.5052886E+02  0.7816164E-02  0.1300439E+00
        -11   -1    0    0    0    0  0.00000000000E+00  0.00000000000E+00  0.45593999997E+02  0.45594000000E+02  0.51100000000E-03 0.  1.
         11   -1    0    0    0    0 -0.00000000000E+00 -0.00000000000E+00 -0.45593999997E+02  0.45594000000E+02  0.51100000000E-03 0. -1.
    9900012    2    1    2    0    0 -0.27970220230E+02 -0.72929163405E+01  0.28594506322E+02  0.50528860311E+02  0.30000001402E+02 0.  0.
         12    1    1    2    0    0  0.27970220230E+02  0.72929163405E+01 -0.28594506322E+02  0.40659139689E+02  0.00000000000E+00 0. -1.
         11    1    3    3    0    0 -0.35022273121E+01  0.28429909566E+01 -0.46428956754E+01  0.64733819784E+01  0.51100000000E-03 0. -1.
        -11    1    3    3    0    0 -0.93289150376E+01 -0.89212209105E+01  0.10151183692E+02  0.16421430173E+02  0.51100000000E-03 0.  1.
         12    1    3    3    0    0 -0.15139077880E+02 -0.12146863866E+01  0.23086218305E+02  0.27634048160E+02  0.00000000000E+00 0. -1.
</event>
<event>
 7    1  0.2973028E-011  0.5052890E+02  0.7816164E-02  0.1300439E+00
        -11   -1    0    0    0    0  0.00000000000E+00  0.00000000000E+00  0.45593999997E+02  0.45594000000E+02  0.51100000000E-03 0.  1.
         11   -1    0    0    0    0 -0.00000000000E+00 -0.00000000000E+00 -0.45593999997E+02  0.45594000000E+02  0.51100000000E-03 0. -1.
    9900012    2    1    2    0    0  0.11170217293E+02  0.99299886880E+01  0.37812485605E+02  0.50528898960E+02  0.30000118879E+02 0.  0.
         12    1    1    2    0    0 -0.11170217293E+02 -0.99299886880E+01 -0.37812485605E+02  0.40659101040E+02  0.00000000000E+00 0. -1.
         11    1    3    3    0    0  0.92943445648E+01  0.20453787576E+01 -0.78410407930E+00  0.95489912881E+01  0.51100000000E-03 0. -1.
        -11    1    3    3    0    0 -0.37836443377E+01  0.26312885082E+01  0.65033994501E+01  0.79708122771E+01  0.51100000000E-03 0.  1.
         12    1    3    3    0    0  0.56595170657E+01  0.52533214222E+01  0.32093190234E+02  0.33009095395E+02  0.00000000000E+00 0. -1.
</event>
<event>
 7    1  0.2973028E-011  0.5052886E+02  0.7816164E-02  0.1300439E+00
        -11   -1    0    0    0    0  0.00000000000E+00  0.00000000000E+00  0.45593999997E+02  0.45594000000E+02  0.51100000000E-03 0.  1.
         11   -1    0    0    0    0 -0.00000000000E+00 -0.00000000000E+00 -0.45593999997E+02  0.45594000000E+02  0.51100000000E-03 0. -1.
    9900012    2    1    2    0    0 -0.11192375577E+02  0.31398635208E+02  0.23281374503E+02  0.50528856345E+02  0.29999989347E+02 0.  0.
         12    1    1    2    0    0  0.11192375577E+02 -0.31398635208E+02 -0.23281374503E+02  0.40659143655E+02  0.00000000000E+00 0. -1.
         11    1    3    3    0    0  0.31307404837E+01  0.51668879441E+01  0.16055437718E+02  0.17154455619E+02  0.51100000000E-03 0. -1.
        -11    1    3    3    0    0 -0.84214659708E+01  0.16316889467E+02  0.10790704905E+02  0.21297917353E+02  0.51100000000E-03 0.  1.
         12    1    3    3    0    0 -0.59016500895E+01  0.99148577973E+01 -0.35647681196E+01  0.12076483373E+02  0.00000000000E+00 0. -1.
</event>
<event>
 7    1  0.2973028E-011  0.5052886E+02  0.7816164E-02  0.1300439E+00
        -11   -1    0    0    0    0  0.00000000000E+00  0.00000000000E+00  0.45593999997E+02  0.45594000000E+02  0.51100000000E-03 0.  1.
         11   -1    0    0    0    0 -0.00000000000E+00 -0.00000000000E+00 -0.45593999997E+02  0.45594000000E+02  0.51100000000E-03 0. -1.
    9900012    2    1    2    0    0 -0.70296432508E+00  0.18903068798E+02  0.35990913013E+02  0.50528856030E+02  0.29999988390E+02 0.  0.
         12    1    1    2    0    0  0.70296432508E+00 -0.18903068798E+02 -0.35990913013E+02  0.40659143970E+02  0.00000000000E+00 0. -1.
         11    1    3    3    0    0 -0.17003323728E+01 -0.37780728474E+01 -0.22829970526E+01  0.47304376565E+01  0.51100000000E-03 0. -1.
        -11    1    3    3    0    0  0.38841162180E+01  0.19774718330E+02  0.26235482171E+02  0.33082115544E+02  0.51100000000E-03 0.  1.
         12    1    3    3    0    0 -0.28867481703E+01  0.29064233147E+01  0.12038427895E+02  0.12716302830E+02  0.00000000000E+00 0. -1.
</event>
<event>
 7    1  0.2973028E-011  0.5052885E+02  0.7816164E-02  0.1300439E+00
        -11   -1    0    0    0    0  0.00000000000E+00  0.00000000000E+00  0.45593999997E+02  0.45594000000E+02  0.51100000000E-03 0.  1.
         11   -1    0    0    0    0 -0.00000000000E+00 -0.00000000000E+00 -0.45593999997E+02  0.45594000000E+02  0.51100000000E-03 0. -1.
    9900012    2    1    2    0    0 -0.17180203248E+02 -0.17144419702E+02  0.32620175112E+02  0.50528851769E+02  0.29999975437E+02 0.  0.
         12    1    1    2    0    0  0.17180203248E+02  0.17144419702E+02 -0.32620175112E+02  0.40659148231E+02  0.00000000000E+00 0. -1.
         11    1    3    3    0    0  0.26220969577E+01  0.48965818542E+01  0.30776119471E+01  0.63500867607E+01  0.51100000000E-03 0. -1.
        -11    1    3    3    0    0 -0.94741930960E+01 -0.16565729232E+02  0.10358200282E+02  0.21713498869E+02  0.51100000000E-03 0.  1.
        -12    1    3    3    0    0 -0.10328107109E+02 -0.54752723248E+01  0.19184362882E+02  0.22465266139E+02  0.00000000000E+00 0.  1.
</event>
<event>
 7    1  0.2973028E-011  0.5052887E+02  0.7816164E-02  0.1300439E+00
        -11   -1    0    0    0    0  0.00000000000E+00  0.00000000000E+00  0.45593999997E+02  0.45594000000E+02  0.51100000000E-03 0.  1.
         11   -1    0    0    0    0 -0.00000000000E+00 -0.00000000000E+00 -0.45593999997E+02  0.45594000000E+02  0.51100000000E-03 0. -1.
    9900012    2    1    2    0    0 -0.15439184526E+02 -0.92356453921E+01  0.36462301339E+02  0.50528868386E+02  0.30000025947E+02 0.  0.
         12    1    1    2    0    0  0.15439184526E+02  0.92356453921E+01 -0.36462301339E+02  0.40659131614E+02  0.00000000000E+00 0. -1.
         11    1    3    3    0    0  0.23556073554E+01 -0.22850940761E+01  0.95443509967E+01  0.10092828006E+02  0.51100000000E-03 0. -1.
        -11    1    3    3    0    0 -0.15068489436E+02  0.62979520166E+01  0.17605992922E+02  0.24014465651E+02  0.51100000000E-03 0.  1.
        -12    1    3    3    0    0 -0.27263024461E+01 -0.13248503333E+02  0.93119574205E+01  0.16421574729E+02  0.00000000000E+00 0.  1.
</event>
<event>
 7    1  0.2973028E-011  0.5052886E+02  0.7816164E-02  0.1300439E+00
        -11   -1    0    0    0    0  0.00000000000E+00  0.00000000000E+00  0.45593999997E+02  0.45594000000E+02  0.51100000000E-03 0.  1.
         11   -1    0    0    0    0 -0.00000000000E+00 -0.00000000000E+00 -0.45593999997E+02  0.45594000000E+02  0.51100000000E-03 0. -1.
    9900012    2    1    2    0    0  0.29737847636E+01  0.10593959818E+02  0.39141920407E+02  0.50528864328E+02  0.30000013610E+02 0.  0.
         12    1    1    2    0    0 -0.29737847636E+01 -0.10593959818E+02 -0.39141920407E+02  0.40659135672E+02  0.00000000000E+00 0. -1.
         11    1    3    3    0    0 -0.82676342075E+01  0.49911310667E+01  0.13733166962E+01  0.97545457979E+01  0.51100000000E-03 0. -1.
        -11    1    3    3    0    0  0.17854017573E+01  0.55390864478E+01  0.12313354571E+02  0.13619392026E+02  0.51100000000E-03 0.  1.
         12    1    3    3    0    0  0.94560172138E+01  0.63742303699E-01  0.25455249140E+02  0.27154926504E+02  0.00000000000E+00 0. -1.
</event>
<event>
 7    1  0.2973028E-011  0.5052885E+02  0.7816164E-02  0.1300439E+00
        -11   -1    0    0    0    0  0.00000000000E+00  0.00000000000E+00  0.45593999997E+02  0.45594000000E+02  0.51100000000E-03 0.  1.
         11   -1    0    0    0    0 -0.00000000000E+00 -0.00000000000E+00 -0.45593999997E+02  0.45594000000E+02  0.51100000000E-03 0. -1.
    9900012    2    1    2    0    0 -0.32439414138E+02  0.24038520854E+02  0.47958347268E+01  0.50528854593E+02  0.29999984021E+02 0.  0.
         12    1    1    2    0    0  0.32439414138E+02 -0.24038520854E+02 -0.47958347268E+01  0.40659145407E+02  0.00000000000E+00 0. -1.
         11    1    3    3    0    0  0.17977368278E+01 -0.21315619938E+01  0.25622191830E+01  0.37868696357E+01  0.51100000000E-03 0. -1.
        -11    1    3    3    0    0 -0.24081039026E+02  0.27321182129E+02  0.26239068768E+01  0.36513399198E+02  0.51100000000E-03 0.  1.
        -12    1    3    3    0    0 -0.10156111941E+02 -0.11510992810E+01 -0.39029133294E+00  0.10228585759E+02  0.00000000000E+00 0.  1.
</event>
<event>
 7    1  0.2973028E-011  0.5052886E+02  0.7816164E-02  0.1300439E+00
        -11   -1    0    0    0    0  0.00000000000E+00  0.00000000000E+00  0.45593999997E+02  0.45594000000E+02  0.51100000000E-03 0. -1.
         11   -1    0    0    0    0 -0.00000000000E+00 -0.00000000000E+00 -0.45593999997E+02  0.45594000000E+02  0.51100000000E-03 0.  1.
    9900012    2    1    2    0    0  0.44858055982E+01  0.37281961785E+02 -0.15591624695E+02  0.50528857276E+02  0.29999992177E+02 0.  0.
         12    1    1    2    0    0 -0.44858055982E+01 -0.37281961785E+02  0.15591624695E+02  0.40659142724E+02  0.00000000000E+00 0. -1.
         11    1    3    3    0    0 -0.56703103633E+01  0.15836409924E+01  0.42405885272E+01  0.72555447574E+01  0.51100000000E-03 0. -1.
        -11    1    3    3    0    0  0.50166314292E+01  0.27822291450E+02 -0.10889393538E+02  0.30295633089E+02  0.51100000000E-03 0.  1.
         12    1    3    3    0    0  0.51394845323E+01  0.78760293431E+01 -0.89428196843E+01  0.12977679430E+02  0.00000000000E+00 0. -1.
</event>
<event>
 7    1  0.2973028E-011  0.5052882E+02  0.7816164E-02  0.1300439E+00
        -11   -1    0    0    0    0  0.00000000000E+00  0.00000000000E+00  0.45593999997E+02  0.45594000000E+02  0.51100000000E-03 0. -1.
         11   -1    0    0    0    0 -0.00000000000E+00 -0.00000000000E+00 -0.45593999997E+02  0.45594000000E+02  0.51100000000E-03 0.  1.
    9900012    2    1    2    0    0 -0.11456262036E+02  0.39322495838E+01 -0.38813152250E+02  0.50528815131E+02  0.29999864071E+02 0.  0.
         12    1    1    2    0    0  0.11456262036E+02 -0.39322495838E+01  0.38813152250E+02  0.40659184869E+02  0.00000000000E+00 0. -1.
         11    1    3    3    0    0 -0.15631246585E+02  0.11324366407E+02 -0.17787840803E+02  0.26248512815E+02  0.51100000000E-03 0. -1.
        -11    1    3    3    0    0  0.43646267642E+01 -0.92283223269E+01 -0.18764309494E+02  0.21361442152E+02  0.51100000000E-03 0.  1.
         12    1    3    3    0    0 -0.18964221542E+00  0.18362055033E+01 -0.22610019535E+01  0.29188601635E+01  0.00000000000E+00 0. -1.
</event>
<event>
 7    1  0.2973028E-011  0.5052886E+02  0.7816164E-02  0.1300439E+00
        -11   -1    0    0    0    0  0.00000000000E+00  0.00000000000E+00  0.45593999997E+02  0.45594000000E+02  0.51100000000E-03 0.  1.
         11   -1    0    0    0    0 -0.00000000000E+00 -0.00000000000E+00 -0.45593999997E+02  0.45594000000E+02  0.51100000000E-03 0. -1.
    9900012    2    1    2    0    0 -0.23742786110E+02  0.30681926292E+02  0.12168196412E+02  0.50528862070E+02  0.30000006749E+02 0.  0.
         12    1    1    2    0    0  0.23742786110E+02 -0.30681926292E+02 -0.12168196412E+02  0.40659137930E+02  0.00000000000E+00 0. -1.
         11    1    3    3    0    0 -0.11896097647E+02 -0.19169035809E+01  0.91141423491E+01  0.15108251043E+02  0.51100000000E-03 0. -1.
        -11    1    3    3    0    0 -0.11547186116E+02  0.23830479452E+02  0.16152439382E+01  0.26529950459E+02  0.51100000000E-03 0.  1.
         12    1    3    3    0    0 -0.29950234738E+00  0.87683504212E+01  0.14388101244E+01  0.88906605682E+01  0.00000000000E+00 0. -1.
</event>
<event>
 7    1  0.2973028E-011  0.5052886E+02  0.7816164E-02  0.1300439E+00
        -11   -1    0    0    0    0  0.00000000000E+00  0.00000000000E+00  0.45593999997E+02  0.45594000000E+02  0.51100000000E-03 0.  1.
         11   -1    0    0    0    0 -0.00000000000E+00 -0.00000000000E+00 -0.45593999997E+02  0.45594000000E+02  0.51100000000E-03 0. -1.
    9900012    2    1    2    0    0  0.93848779098E+01 -0.27335926991E+00  0.39560273253E+02  0.50528857381E+02  0.29999992495E+02 0.  0.
         12    1    1    2    0    0 -0.93848779098E+01  0.27335926991E+00 -0.39560273253E+02  0.40659142619E+02  0.00000000000E+00 0. -1.
         11    1    3    3    0    0  0.15181374844E+02 -0.73427573857E+01  0.10784465146E+02  0.20017365384E+02  0.51100000000E-03 0. -1.
        -11    1    3    3    0    0  0.22600686932E+00  0.76028736527E-02  0.47495166523E+01  0.47548970126E+01  0.51100000000E-03 0.  1.
         12    1    3    3    0    0 -0.60225038035E+01  0.70617952422E+01  0.24026291455E+02  0.25756594984E+02  0.00000000000E+00 0. -1.
</event>
<event>
 7    1  0.2973028E-011  0.5052886E+02  0.7816164E-02  0.1300439E+00
        -11   -1    0    0    0    0  0.00000000000E+00  0.00000000000E+00  0.45593999997E+02  0.45594000000E+02  0.51100000000E-03 0.  1.
         11   -1    0    0    0    0 -0.00000000000E+00 -0.00000000000E+00 -0.45593999997E+02  0.45594000000E+02  0.51100000000E-03 0. -1.
    9900012    2    1    2    0    0  0.40185918128E+02 -0.61683051388E+01  0.45782869531E+00  0.50528860669E+02  0.30000002489E+02 0.  0.
         12    1    1    2    0    0 -0.40185918128E+02  0.61683051388E+01 -0.45782869531E+00  0.40659139331E+02  0.00000000000E+00 0. -1.
         11    1    3    3    0    0  0.30977785636E+01  0.39475910706E+01 -0.74503886340E+00  0.50729469206E+01  0.51100000000E-03 0. -1.
        -11    1    3    3    0    0  0.40485650141E+02 -0.83681365763E+01  0.25106514309E+01  0.41417592252E+02  0.51100000000E-03 0.  1.
        -12    1    3    3    0    0 -0.33975105766E+01 -0.17477596331E+01 -0.13077838722E+01  0.40383214965E+01  0.00000000000E+00 0.  1.
</event>
<event>
 7    1  0.2973028E-011  0.5052886E+02  0.7816164E-02  0.1300439E+00
        -11   -1    0    0    0    0  0.00000000000E+00  0.00000000000E+00  0.45593999997E+02  0.45594000000E+02  0.51100000000E-03 0.  1.
         11   -1    0    0    0    0 -0.00000000000E+00 -0.00000000000E+00 -0.45593999997E+02  0.45594000000E+02  0.51100000000E-03 0. -1.
    9900012    2    1    2    0    0 -0.64373285669E+01 -0.14932286679E+02  0.37265976991E+02  0.50528862950E+02  0.30000009423E+02 0.  0.
         12    1    1    2    0    0  0.64373285669E+01  0.14932286679E+02 -0.37265976991E+02  0.40659137050E+02  0.00000000000E+00 0. -1.
         11    1    3    3    0    0 -0.27127774447E+01 -0.16348262091E+02  0.20265857154E+02  0.26178804429E+02  0.51100000000E-03 0.  1.
        -11    1    3    3    0    0  0.39096055311E+01  0.27619583844E+01 -0.87528554969E+00  0.48661642575E+01  0.51100000000E-03 0. -1.
        -12    1    3    3    0    0 -0.76341566534E+01 -0.13459829730E+01  0.17875405386E+02  0.19483894264E+02  0.00000000000E+00 0.  1.
</event>
<event>
 7    1  0.2973028E-011  0.5052886E+02  0.7816164E-02  0.1300439E+00
        -11   -1    0    0    0    0  0.00000000000E+00  0.00000000000E+00  0.45593999997E+02  0.45594000000E+02  0.51100000000E-03 0. -1.
         11   -1    0    0    0    0 -0.00000000000E+00 -0.00000000000E+00 -0.45593999997E+02  0.45594000000E+02  0.51100000000E-03 0.  1.
    9900012    2    1    2    0    0 -0.38924776386E+02  0.75877614001E+01 -0.89695593440E+01  0.50528864070E+02  0.30000012828E+02 0.  0.
         12    1    1    2    0    0  0.38924776386E+02 -0.75877614001E+01  0.89695593440E+01  0.40659135930E+02  0.00000000000E+00 0. -1.
         11    1    3    3    0    0 -0.21273122284E+02  0.47223310629E+01  0.26243416396E+01  0.21948423900E+02  0.51100000000E-03 0.  1.
        -11    1    3    3    0    0  0.33051620187E+01  0.86195390271E+00  0.15615146898E+01  0.37557141648E+01  0.51100000000E-03 0. -1.
        -12    1    3    3    0    0 -0.20956816120E+02  0.20034764344E+01 -0.13155415673E+02  0.24824726005E+02  0.00000000000E+00 0.  1.
</event>
<event>
 7    1  0.2973028E-011  0.5052885E+02  0.7816164E-02  0.1300439E+00
        -11   -1    0    0    0    0  0.00000000000E+00  0.00000000000E+00  0.45593999997E+02  0.45594000000E+02  0.51100000000E-03 0.  1.
         11   -1    0    0    0    0 -0.00000000000E+00 -0.00000000000E+00 -0.45593999997E+02  0.45594000000E+02  0.51100000000E-03 0. -1.
    9900012    2    1    2    0    0  0.35170054492E+02  0.13920444951E+02  0.14914922721E+02  0.50528850471E+02  0.29999971493E+02 0.  0.
         12    1    1    2    0    0 -0.35170054492E+02 -0.13920444951E+02 -0.14914922721E+02  0.40659149529E+02  0.00000000000E+00 0. -1.
         11    1    3    3    0    0  0.20212683497E+02  0.20999859591E+02  0.71696950390E+01  0.30015849217E+02  0.51100000000E-03 0. -1.
        -11    1    3    3    0    0  0.62221884289E+01 -0.57161458984E+01 -0.44555310453E+00  0.84609970220E+01  0.51100000000E-03 0.  1.
         12    1    3    3    0    0  0.87351825662E+01 -0.13632687419E+01  0.81907807863E+01  0.12052004232E+02  0.00000000000E+00 0. -1.
</event>
<event>
 7    1  0.2973028E-011  0.5052886E+02  0.7816164E-02  0.1300439E+00
        -11   -1    0    0    0    0  0.00000000000E+00  0.00000000000E+00  0.45593999997E+02  0.45594000000E+02  0.51100000000E-03 0. -1.
         11   -1    0    0    0    0 -0.00000000000E+00 -0.00000000000E+00 -0.45593999997E+02  0.45594000000E+02  0.51100000000E-03 0.  1.
    9900012    2    1    2    0    0 -0.28779636580E+02 -0.85055223052E+01 -0.27432727583E+02  0.50528856699E+02  0.29999990423E+02 0.  0.
         12    1    1    2    0    0  0.28779636580E+02  0.85055223052E+01  0.27432727583E+02  0.40659143301E+02  0.00000000000E+00 0. -1.
         11    1    3    3    0    0  0.43489953762E+01 -0.54416792176E+00 -0.12536056827E+02  0.13280158152E+02  0.51100000000E-03 0. -1.
        -11    1    3    3    0    0 -0.20041899824E+02 -0.52133168376E+01 -0.79752479290E+01  0.22191462340E+02  0.51100000000E-03 0.  1.
         12    1    3    3    0    0 -0.13086732132E+02 -0.27480375458E+01 -0.69214228261E+01  0.15057236206E+02  0.00000000000E+00 0. -1.
</event>
<event>
 7    1  0.2973028E-011  0.5052886E+02  0.7816164E-02  0.1300439E+00
        -11   -1    0    0    0    0  0.00000000000E+00  0.00000000000E+00  0.45593999997E+02  0.45594000000E+02  0.51100000000E-03 0.  1.
         11   -1    0    0    0    0 -0.00000000000E+00 -0.00000000000E+00 -0.45593999997E+02  0.45594000000E+02  0.51100000000E-03 0. -1.
    9900012    2    1    2    0    0 -0.25312698421E+02  0.27527120918E+02  0.15959038550E+02  0.50528855901E+02  0.29999987997E+02 0.  0.
         12    1    1    2    0    0  0.25312698421E+02 -0.27527120918E+02 -0.15959038550E+02  0.40659144099E+02  0.00000000000E+00 0. -1.
         11    1    3    3    0    0 -0.15461402316E+02  0.19622900211E+00  0.75303856534E+01  0.17198842279E+02  0.51100000000E-03 0. -1.
        -11    1    3    3    0    0 -0.49399846844E+00  0.14991606712E+02  0.95853048710E+01  0.17800853238E+02  0.51100000000E-03 0.  1.
         12    1    3    3    0    0 -0.93572976373E+01  0.12339285205E+02 -0.11566519746E+01  0.15529160384E+02  0.00000000000E+00 0. -1.
</event>
<event>
 7    1  0.2973028E-011  0.5052879E+02  0.7816164E-02  0.1300439E+00
        -11   -1    0    0    0    0  0.00000000000E+00  0.00000000000E+00  0.45593999997E+02  0.45594000000E+02  0.51100000000E-03 0. -1.
         11   -1    0    0    0    0 -0.00000000000E+00 -0.00000000000E+00 -0.45593999997E+02  0.45594000000E+02  0.51100000000E-03 0.  1.
    9900012    2    1    2    0    0 -0.22682111198E+02  0.74757907135E+01 -0.32906018429E+02  0.50528786234E+02  0.29999776235E+02 0.  0.
         12    1    1    2    0    0  0.22682111198E+02 -0.74757907135E+01  0.32906018429E+02  0.40659213766E+02  0.00000000000E+00 0. -1.
         11    1    3    3    0    0 -0.60636843067E+01 -0.66806322410E+01 -0.16247103472E+02  0.18584065379E+02  0.51100000000E-03 0. -1.
        -11    1    3    3    0    0 -0.64667203265E+01  0.15654470973E+02 -0.93569986407E+01  0.19350306381E+02  0.51100000000E-03 0.  1.
         12    1    3    3    0    0 -0.10151706565E+02 -0.14980480180E+01 -0.73019163165E+01  0.12594414474E+02  0.00000000000E+00 0. -1.
</event>
<event>
 7    1  0.2973028E-011  0.5052888E+02  0.7816164E-02  0.1300439E+00
        -11   -1    0    0    0    0  0.00000000000E+00  0.00000000000E+00  0.45593999997E+02  0.45594000000E+02  0.51100000000E-03 0.  1.
         11   -1    0    0    0    0 -0.00000000000E+00 -0.00000000000E+00 -0.45593999997E+02  0.45594000000E+02  0.51100000000E-03 0. -1.
    9900012    2    1    2    0    0 -0.18065137315E+02 -0.29990543581E+02  0.20673222373E+02  0.50528880312E+02  0.30000062195E+02 0.  0.
         12    1    1    2    0    0  0.18065137315E+02  0.29990543581E+02 -0.20673222373E+02  0.40659119688E+02  0.00000000000E+00 0. -1.
         11    1    3    3    0    0 -0.10052135879E+01  0.21763934232E+01  0.53806167004E+01  0.58905160238E+01  0.51100000000E-03 0. -1.
        -11    1    3    3    0    0 -0.20081349881E+02 -0.31259816012E+02  0.17210162905E+02  0.40946628892E+02  0.51100000000E-03 0.  1.
        -12    1    3    3    0    0  0.30214261537E+01 -0.90712099296E+00 -0.19175572317E+01  0.36917353961E+01  0.00000000000E+00 0.  1.
</event>
<event>
 7    1  0.2973028E-011  0.5052886E+02  0.7816164E-02  0.1300439E+00
        -11   -1    0    0    0    0  0.00000000000E+00  0.00000000000E+00  0.45593999997E+02  0.45594000000E+02  0.51100000000E-03 0. -1.
         11   -1    0    0    0    0 -0.00000000000E+00 -0.00000000000E+00 -0.45593999997E+02  0.45594000000E+02  0.51100000000E-03 0.  1.
    9900012    2    1    2    0    0  0.37016523171E+01 -0.40070598943E+02 -0.58146509451E+01  0.50528864555E+02  0.30000014301E+02 0.  0.
         12    1    1    2    0    0 -0.37016523171E+01  0.40070598943E+02  0.58146509451E+01  0.40659135445E+02  0.00000000000E+00 0. -1.
         11    1    3    3    0    0  0.62627248915E+01 -0.27193238723E+01 -0.22736181321E+01  0.71962340888E+01  0.51100000000E-03 0. -1.
        -11    1    3    3    0    0 -0.11401276915E+02 -0.13318155149E+02 -0.24485556022E+01  0.17701915057E+02  0.51100000000E-03 0.  1.
        -12    1    3    3    0    0  0.88402043407E+01 -0.24033119922E+02 -0.10924772108E+01  0.25630715410E+02  0.00000000000E+00 0.  1.
</event>
<event>
 7    1  0.2973028E-011  0.5052886E+02  0.7816164E-02  0.1300439E+00
        -11   -1    0    0    0    0  0.00000000000E+00  0.00000000000E+00  0.45593999997E+02  0.45594000000E+02  0.51100000000E-03 0.  1.
         11   -1    0    0    0    0 -0.00000000000E+00 -0.00000000000E+00 -0.45593999997E+02  0.45594000000E+02  0.51100000000E-03 0. -1.
    9900012    2    1    2    0    0 -0.34775827658E+02 -0.20605607024E+02  0.43836830621E+01  0.50528857027E+02  0.29999991420E+02 0.  0.
         12    1    1    2    0    0  0.34775827658E+02  0.20605607024E+02 -0.43836830621E+01  0.40659142973E+02  0.00000000000E+00 0. -1.
         11    1    3    3    0    0 -0.10807198681E+02  0.11012725982E+01 -0.10337976923E+02  0.14996069878E+02  0.51100000000E-03 0. -1.
        -11    1    3    3    0    0 -0.17275365056E+02 -0.15398544407E+02  0.10504840172E+02  0.25414662598E+02  0.51100000000E-03 0.  1.
         12    1    3    3    0    0 -0.66932639205E+01 -0.63083352148E+01  0.42168198133E+01  0.10118124551E+02  0.00000000000E+00 0. -1.
</event>
<event>
 7    1  0.2973028E-011  0.5052884E+02  0.7816164E-02  0.1300439E+00
        -11   -1    0    0    0    0  0.00000000000E+00  0.00000000000E+00  0.45593999997E+02  0.45594000000E+02  0.51100000000E-03 0.  1.
         11   -1    0    0    0    0 -0.00000000000E+00 -0.00000000000E+00 -0.45593999997E+02  0.45594000000E+02  0.51100000000E-03 0. -1.
    9900012    2    1    2    0    0  0.22920307335E+02  0.32138064647E+02  0.97453347435E+01  0.50528840677E+02  0.29999941722E+02 0.  0.
         12    1    1    2    0    0 -0.22920307335E+02 -0.32138064647E+02 -0.97453347435E+01  0.40659159323E+02  0.00000000000E+00 0. -1.
         11    1    3    3    0    0  0.41637964044E-01 -0.14001194783E+01 -0.29798154703E+00  0.14320829366E+01  0.51100000000E-03 0. -1.
        -11    1    3    3    0    0  0.13348541035E+02  0.35847504338E+02  0.79076415496E+01  0.39060951219E+02  0.51100000000E-03 0.  1.
        -12    1    3    3    0    0  0.95301283356E+01 -0.23093202123E+01  0.21356747410E+01  0.10035806521E+02  0.00000000000E+00 0.  1.
</event>
<event>
 7    1  0.2973028E-011  0.5052885E+02  0.7816164E-02  0.1300439E+00
        -11   -1    0    0    0    0  0.00000000000E+00  0.00000000000E+00  0.45593999997E+02  0.45594000000E+02  0.51100000000E-03 0. -1.
         11   -1    0    0    0    0 -0.00000000000E+00 -0.00000000000E+00 -0.45593999997E+02  0.45594000000E+02  0.51100000000E-03 0.  1.
    9900012    2    1    2    0    0  0.12194501688E+02 -0.36989929984E+02  0.11670704482E+02  0.50528854230E+02  0.29999982918E+02 0.  0.
         12    1    1    2    0    0 -0.12194501688E+02  0.36989929984E+02 -0.11670704482E+02  0.40659145770E+02  0.00000000000E+00 0. -1.
         11    1    3    3    0    0  0.15123174809E+02 -0.23550824906E+02  0.96312028824E+01  0.29599186463E+02  0.51100000000E-03 0. -1.
        -11    1    3    3    0    0 -0.38696201106E+01 -0.66613260080E+01  0.85331419413E+01  0.11496161778E+02  0.51100000000E-03 0.  1.
         12    1    3    3    0    0  0.94094698977E+00 -0.67777790701E+01 -0.64936403413E+01  0.94335059890E+01  0.00000000000E+00 0. -1.
</event>
<event>
 7    1  0.2973028E-011  0.5052886E+02  0.7816164E-02  0.1300439E+00
        -11   -1    0    0    0    0  0.00000000000E+00  0.00000000000E+00  0.45593999997E+02  0.45594000000E+02  0.51100000000E-03 0.  1.
         11   -1    0    0    0    0 -0.00000000000E+00 -0.00000000000E+00 -0.45593999997E+02  0.45594000000E+02  0.51100000000E-03 0. -1.
    9900012    2    1    2    0    0 -0.16925707610E+02 -0.30492484120E+02  0.20902022825E+02  0.50528859280E+02  0.29999998266E+02 0.  0.
         12    1    1    2    0    0  0.16925707610E+02  0.30492484120E+02 -0.20902022825E+02  0.40659140720E+02  0.00000000000E+00 0. -1.
         11    1    3    3    0    0  0.31939756160E+01 -0.44561702811E+01 -0.11284095862E+01  0.55975210821E+01  0.51100000000E-03 0. -1.
        -11    1    3    3    0    0 -0.12180027971E+02 -0.27671994570E+02  0.20881090451E+02  0.36743874367E+02  0.51100000000E-03 0.  1.
        -12    1    3    3    0    0 -0.79396552553E+01  0.16356807307E+01  0.11493419605E+01  0.81874638300E+01  0.00000000000E+00 0.  1.
</event>
<event>
 7    1  0.2973028E-011  0.5052885E+02  0.7816164E-02  0.1300439E+00
        -11   -1    0    0    0    0  0.00000000000E+00  0.00000000000E+00  0.45593999997E+02  0.45594000000E+02  0.51100000000E-03 0.  1.
         11   -1    0    0    0    0 -0.00000000000E+00 -0.00000000000E+00 -0.45593999997E+02  0.45594000000E+02  0.51100000000E-03 0. -1.
    9900012    2    1    2    0    0 -0.12676097033E+02 -0.28709255659E+02  0.25850754589E+02  0.50528852083E+02  0.29999976391E+02 0.  0.
         12    1    1    2    0    0  0.12676097033E+02  0.28709255659E+02 -0.25850754589E+02  0.40659147917E+02  0.00000000000E+00 0. -1.
         11    1    3    3    0    0 -0.44266086699E+01 -0.26548039066E+02  0.11147461911E+02  0.29131755009E+02  0.51100000000E-03 0. -1.
        -11    1    3    3    0    0 -0.37592731433E+01  0.52444093884E+01  0.88154476018E+01  0.10924654735E+02  0.51100000000E-03 0.  1.
        -12    1    3    3    0    0 -0.44902152202E+01 -0.74056259809E+01  0.58878450771E+01  0.10472442339E+02  0.00000000000E+00 0.  1.
</event>
<event>
 7    1  0.2973028E-011  0.5052886E+02  0.7816164E-02  0.1300439E+00
        -11   -1    0    0    0    0  0.00000000000E+00  0.00000000000E+00  0.45593999997E+02  0.45594000000E+02  0.51100000000E-03 0. -1.
         11   -1    0    0    0    0 -0.00000000000E+00 -0.00000000000E+00 -0.45593999997E+02  0.45594000000E+02  0.51100000000E-03 0.  1.
    9900012    2    1    2    0    0  0.16175942820E+02 -0.25485804162E+02 -0.27239284842E+02  0.50528856150E+02  0.29999988753E+02 0.  0.
         12    1    1    2    0    0 -0.16175942820E+02  0.25485804162E+02  0.27239284842E+02  0.40659143850E+02  0.00000000000E+00 0. -1.
         11    1    3    3    0    0  0.48912832652E+00 -0.24839232488E+02 -0.13706471656E+02  0.28374179858E+02  0.51100000000E-03 0. -1.
        -11    1    3    3    0    0  0.44298180374E+01 -0.56229127310E+00  0.11037233790E+00  0.44667260532E+01  0.51100000000E-03 0.  1.
         12    1    3    3    0    0  0.11256996456E+02 -0.84280401795E-01 -0.13643185524E+02  0.17687950239E+02  0.00000000000E+00 0. -1.
</event>
<event>
 7    1  0.2973028E-011  0.5052886E+02  0.7816164E-02  0.1300439E+00
        -11   -1    0    0    0    0  0.00000000000E+00  0.00000000000E+00  0.45593999997E+02  0.45594000000E+02  0.51100000000E-03 0.  1.
         11   -1    0    0    0    0 -0.00000000000E+00 -0.00000000000E+00 -0.45593999997E+02  0.45594000000E+02  0.51100000000E-03 0. -1.
    9900012    2    1    2    0    0 -0.14164435786E+02 -0.35618321460E+02  0.13559842867E+02  0.50528863224E+02  0.30000010255E+02 0.  0.
         12    1    1    2    0    0  0.14164435786E+02  0.35618321460E+02 -0.13559842867E+02  0.40659136776E+02  0.00000000000E+00 0. -1.
         11    1    3    3    0    0 -0.42445302821E+01 -0.36758371748E+02  0.78308027439E+01  0.37822154919E+02  0.51100000000E-03 0. -1.
        -11    1    3    3    0    0 -0.51755909993E+01 -0.71983951228E+00  0.55281060639E+01  0.76068960838E+01  0.51100000000E-03 0.  1.
         12    1    3    3    0    0 -0.47443145050E+01  0.18598897998E+01  0.20093405918E+00  0.50998122207E+01  0.00000000000E+00 0. -1.
</event>
<event>
 7    1  0.2973028E-011  0.5052886E+02  0.7816164E-02  0.1300439E+00
        -11   -1    0    0    0    0  0.00000000000E+00  0.00000000000E+00  0.45593999997E+02  0.45594000000E+02  0.51100000000E-03 0. -1.
         11   -1    0    0    0    0 -0.00000000000E+00 -0.00000000000E+00 -0.45593999997E+02  0.45594000000E+02  0.51100000000E-03 0.  1.
    9900012    2    1    2    0    0  0.16500917483E+02  0.32407971393E+02 -0.18182649066E+02  0.50528860626E+02  0.30000002358E+02 0.  0.
         12    1    1    2    0    0 -0.16500917483E+02 -0.32407971393E+02  0.18182649066E+02  0.40659139374E+02  0.00000000000E+00 0. -1.
         11    1    3    3    0    0 -0.16060028074E+01 -0.34189836941E+00  0.14292938115E+01  0.21769291613E+01  0.51100000000E-03 0. -1.
        -11    1    3    3    0    0  0.41393683452E+01  0.18654921500E+02 -0.21083040954E+02  0.28454087274E+02  0.51100000000E-03 0.  1.
        -12    1    3    3    0    0  0.13967551946E+02  0.14094948262E+02  0.14710980769E+01  0.19897844190E+02  0.00000000000E+00 0.  1.
</event>
<event>
 7    1  0.2973028E-011  0.5052887E+02  0.7816164E-02  0.1300439E+00
        -11   -1    0    0    0    0  0.00000000000E+00  0.00000000000E+00  0.45593999997E+02  0.45594000000E+02  0.51100000000E-03 0. -1.
         11   -1    0    0    0    0 -0.00000000000E+00 -0.00000000000E+00 -0.45593999997E+02  0.45594000000E+02  0.51100000000E-03 0.  1.
    9900012    2    1    2    0    0 -0.54653799421E+01 -0.39055076700E+02  0.98992822270E+01  0.50528865940E+02  0.30000018510E+02 0.  0.
         12    1    1    2    0    0  0.54653799421E+01  0.39055076700E+02 -0.98992822270E+01  0.40659134060E+02  0.00000000000E+00 0. -1.
         11    1    3    3    0    0  0.21598847592E+01 -0.14334354297E+02 -0.16749731446E+01  0.14592612877E+02  0.51100000000E-03 0. -1.
        -11    1    3    3    0    0 -0.97170737657E+01 -0.23216794062E+02  0.16696299365E+02  0.30202772420E+02  0.51100000000E-03 0.  1.
        -12    1    3    3    0    0  0.20918090644E+01 -0.15039283406E+01 -0.51220439932E+01  0.57334806431E+01  0.00000000000E+00 0.  1.
</event>
<event>
 7    1  0.2973028E-011  0.5052886E+02  0.7816164E-02  0.1300439E+00
        -11   -1    0    0    0    0  0.00000000000E+00  0.00000000000E+00  0.45593999997E+02  0.45594000000E+02  0.51100000000E-03 0.  1.
         11   -1    0    0    0    0 -0.00000000000E+00 -0.00000000000E+00 -0.45593999997E+02  0.45594000000E+02  0.51100000000E-03 0. -1.
    9900012    2    1    2    0    0 -0.96841399388E+01  0.47312192354E+01  0.39204569595E+02  0.50528864754E+02  0.30000014905E+02 0.  0.
         12    1    1    2    0    0  0.96841399388E+01 -0.47312192354E+01 -0.39204569595E+02  0.40659135246E+02  0.00000000000E+00 0. -1.
         11    1    3    3    0    0 -0.10337781995E+02  0.10937921752E+02  0.10656921069E+02  0.18441199412E+02  0.51100000000E-03 0. -1.
        -11    1    3    3    0    0 -0.29242615588E+01 -0.57125695455E+01  0.46661741328E+01  0.79346038196E+01  0.51100000000E-03 0.  1.
        -12    1    3    3    0    0  0.35779036150E+01 -0.49413297118E+00  0.23881474393E+02  0.24153061522E+02  0.00000000000E+00 0.  1.
</event>
<event>
 7    1  0.2973028E-011  0.5052886E+02  0.7816164E-02  0.1300439E+00
        -11   -1    0    0    0    0  0.00000000000E+00  0.00000000000E+00  0.45593999997E+02  0.45594000000E+02  0.51100000000E-03 0.  1.
         11   -1    0    0    0    0 -0.00000000000E+00 -0.00000000000E+00 -0.45593999997E+02  0.45594000000E+02  0.51100000000E-03 0. -1.
    9900012    2    1    2    0    0 -0.19565822080E+02  0.88002271701E+01  0.34538390575E+02  0.50528858157E+02  0.29999994853E+02 0.  0.
         12    1    1    2    0    0  0.19565822080E+02 -0.88002271701E+01 -0.34538390575E+02  0.40659141843E+02  0.00000000000E+00 0. -1.
         11    1    3    3    0    0  0.24660959398E+01  0.16500533606E+01 -0.29823619588E+01  0.42069927967E+01  0.51100000000E-03 0. -1.
        -11    1    3    3    0    0 -0.14582678302E+02  0.11440186337E+02  0.26687319968E+02  0.32492236260E+02  0.51100000000E-03 0.  1.
        -12    1    3    3    0    0 -0.74492397181E+01 -0.42900125275E+01  0.10833432566E+02  0.13829629100E+02  0.00000000000E+00 0.  1.
</event>
<event>
 7    1  0.2973028E-011  0.5052886E+02  0.7816164E-02  0.1300439E+00
        -11   -1    0    0    0    0  0.00000000000E+00  0.00000000000E+00  0.45593999997E+02  0.45594000000E+02  0.51100000000E-03 0.  1.
         11   -1    0    0    0    0 -0.00000000000E+00 -0.00000000000E+00 -0.45593999997E+02  0.45594000000E+02  0.51100000000E-03 0. -1.
    9900012    2    1    2    0    0  0.24721950322E+01 -0.22490279759E+02  0.33782259179E+02  0.50528862440E+02  0.30000007872E+02 0.  0.
         12    1    1    2    0    0 -0.24721950322E+01  0.22490279759E+02 -0.33782259179E+02  0.40659137560E+02  0.00000000000E+00 0. -1.
         11    1    3    3    0    0  0.10841156305E+02 -0.50005862984E+01  0.42283564448E+01  0.12665525329E+02  0.51100000000E-03 0. -1.
        -11    1    3    3    0    0 -0.16323764074E+01 -0.11130955967E+02  0.25261953840E+02  0.27653736557E+02  0.51100000000E-03 0.  1.
         12    1    3    3    0    0 -0.67365848659E+01 -0.63587374935E+01  0.42919488938E+01  0.10209600554E+02  0.00000000000E+00 0. -1.
</event>
<event>
 7    1  0.2973028E-011  0.5052886E+02  0.7816164E-02  0.1300439E+00
        -11   -1    0    0    0    0  0.00000000000E+00  0.00000000000E+00  0.45593999997E+02  0.45594000000E+02  0.51100000000E-03 0. -1.
         11   -1    0    0    0    0 -0.00000000000E+00 -0.00000000000E+00 -0.45593999997E+02  0.45594000000E+02  0.51100000000E-03 0.  1.
    9900012    2    1    2    0    0  0.53045052729E+01  0.31821754352E+02 -0.24746792002E+02  0.50528861536E+02  0.30000005125E+02 0.  0.
         12    1    1    2    0    0 -0.53045052729E+01 -0.31821754352E+02  0.24746792002E+02  0.40659138464E+02  0.00000000000E+00 0. -1.
         11    1    3    3    0    0  0.23585398958E+01 -0.42023184084E+01 -0.37809765068E+00  0.48337509804E+01  0.51100000000E-03 0. -1.
        -11    1    3    3    0    0  0.36743078438E+01  0.34029635251E+02 -0.17372574578E+02  0.38383889344E+02  0.51100000000E-03 0.  1.
        -12    1    3    3    0    0 -0.72834246671E+00  0.19944375103E+01 -0.69961197728E+01  0.73112212117E+01  0.00000000000E+00 0.  1.
</event>
<event>
 7    1  0.2973028E-011  0.5052887E+02  0.7816164E-02  0.1300439E+00
        -11   -1    0    0    0    0  0.00000000000E+00  0.00000000000E+00  0.45593999997E+02  0.45594000000E+02  0.51100000000E-03 0. -1.
         11   -1    0    0    0    0 -0.00000000000E+00 -0.00000000000E+00 -0.45593999997E+02  0.45594000000E+02  0.51100000000E-03 0.  1.
    9900012    2    1    2    0    0  0.23712979468E+02  0.25787571871E+02 -0.20636388490E+02  0.50528870789E+02  0.30000033251E+02 0.  0.
         12    1    1    2    0    0 -0.23712979468E+02 -0.25787571871E+02  0.20636388490E+02  0.40659129211E+02  0.00000000000E+00 0. -1.
         11    1    3    3    0    0 -0.53468927243E+01  0.53611913903E+01 -0.64375312741E+01  0.99384829876E+01  0.51100000000E-03 0. -1.
        -11    1    3    3    0    0  0.10722029904E+02  0.32773521790E+00 -0.52994293419E+01  0.11964668288E+02  0.51100000000E-03 0.  1.
         12    1    3    3    0    0  0.18337842288E+02  0.20098645263E+02 -0.88994278737E+01  0.28625719514E+02  0.00000000000E+00 0. -1.
</event>
<event>
 7    1  0.2973028E-011  0.5052886E+02  0.7816164E-02  0.1300439E+00
        -11   -1    0    0    0    0  0.00000000000E+00  0.00000000000E+00  0.45593999997E+02  0.45594000000E+02  0.51100000000E-03 0.  1.
         11   -1    0    0    0    0 -0.00000000000E+00 -0.00000000000E+00 -0.45593999997E+02  0.45594000000E+02  0.51100000000E-03 0. -1.
    9900012    2    1    2    0    0 -0.60133720379E+01  0.40147524449E+02  0.22762331214E+01  0.50528860808E+02  0.30000002912E+02 0.  0.
         12    1    1    2    0    0  0.60133720379E+01 -0.40147524449E+02 -0.22762331214E+01  0.40659139192E+02  0.00000000000E+00 0. -1.
         11    1    3    3    0    0 -0.18219711151E+01  0.81172756086E+01  0.84607428380E+01  0.11865661030E+02  0.51100000000E-03 0. -1.
        -11    1    3    3    0    0 -0.13264782598E+01  0.33004405346E+02 -0.93047862022E+01  0.34316604776E+02  0.51100000000E-03 0.  1.
        -12    1    3    3    0    0 -0.28649226629E+01 -0.97415650620E+00  0.31202764856E+01  0.43465950018E+01  0.00000000000E+00 0.  1.
</event>
<event>
 7    1  0.2973028E-011  0.5052885E+02  0.7816164E-02  0.1300439E+00
        -11   -1    0    0    0    0  0.00000000000E+00  0.00000000000E+00  0.45593999997E+02  0.45594000000E+02  0.51100000000E-03 0.  1.
         11   -1    0    0    0    0 -0.00000000000E+00 -0.00000000000E+00 -0.45593999997E+02  0.45594000000E+02  0.51100000000E-03 0. -1.
    9900012    2    1    2    0    0 -0.69360992637E+01 -0.37974402607E+02  0.12767203329E+02  0.50528853339E+02  0.29999980210E+02 0.  0.
         12    1    1    2    0    0  0.69360992637E+01  0.37974402607E+02 -0.12767203329E+02  0.40659146661E+02  0.00000000000E+00 0. -1.
         11    1    3    3    0    0  0.10570975103E+02 -0.11864531229E+02  0.74629411358E+01  0.17555856759E+02  0.51100000000E-03 0. -1.
        -11    1    3    3    0    0 -0.20593606243E+01 -0.73247473838E+01  0.40503915608E+01  0.86196613897E+01  0.51100000000E-03 0.  1.
         12    1    3    3    0    0 -0.15447713742E+02 -0.18785123994E+02  0.12538706323E+01  0.24353335190E+02  0.00000000000E+00 0. -1.
</event>
<event>
 7    1  0.2973028E-011  0.5052886E+02  0.7816164E-02  0.1300439E+00
        -11   -1    0    0    0    0  0.00000000000E+00  0.00000000000E+00  0.45593999997E+02  0.45594000000E+02  0.51100000000E-03 0. -1.
         11   -1    0    0    0    0 -0.00000000000E+00 -0.00000000000E+00 -0.45593999997E+02  0.45594000000E+02  0.51100000000E-03 0.  1.
    9900012    2    1    2    0    0 -0.16464695914E+02  0.19278154404E+02 -0.31787300296E+02  0.50528857007E+02  0.29999991358E+02 0.  0.
         12    1    1    2    0    0  0.16464695914E+02 -0.19278154404E+02  0.31787300296E+02  0.40659142993E+02  0.00000000000E+00 0. -1.
         11    1    3    3    0    0 -0.11151133932E+02  0.20597502623E+02 -0.63952388838E+01  0.24279703106E+02  0.51100000000E-03 0. -1.
        -11    1    3    3    0    0 -0.16142763302E+01  0.77741804632E+00 -0.33336963037E+01  0.37846794045E+01  0.51100000000E-03 0.  1.
         12    1    3    3    0    0 -0.36992856518E+01 -0.20967662652E+01 -0.22058365109E+02  0.22464474496E+02  0.00000000000E+00 0. -1.
</event>
<event>
 7    1  0.2973028E-011  0.5052882E+02  0.7816164E-02  0.1300439E+00
        -11   -1    0    0    0    0  0.00000000000E+00  0.00000000000E+00  0.45593999997E+02  0.45594000000E+02  0.51100000000E-03 0. -1.
         11   -1    0    0    0    0 -0.00000000000E+00 -0.00000000000E+00 -0.45593999997E+02  0.45594000000E+02  0.51100000000E-03 0.  1.
    9900012    2    1    2    0    0  0.32234801644E+02  0.87917292536E+01 -0.23168772856E+02  0.50528819291E+02  0.29999876715E+02 0.  0.
         12    1    1    2    0    0 -0.32234801644E+02 -0.87917292536E+01  0.23168772856E+02  0.40659180709E+02  0.00000000000E+00 0. -1.
         11    1    3    3    0    0  0.20797545926E+02  0.17644860786E+02 -0.19678645054E+02  0.33632247919E+02  0.51100000000E-03 0. -1.
        -11    1    3    3    0    0  0.43676684359E+01 -0.82831331335E+01 -0.11847455865E+01  0.94387734606E+01  0.51100000000E-03 0.  1.
         12    1    3    3    0    0  0.70695872823E+01 -0.56999839870E+00 -0.23053822159E+01  0.74577979107E+01  0.00000000000E+00 0. -1.
</event>
<event>
 7    1  0.2973028E-011  0.5052886E+02  0.7816164E-02  0.1300439E+00
        -11   -1    0    0    0    0  0.00000000000E+00  0.00000000000E+00  0.45593999997E+02  0.45594000000E+02  0.51100000000E-03 0. -1.
         11   -1    0    0    0    0 -0.00000000000E+00 -0.00000000000E+00 -0.45593999997E+02  0.45594000000E+02  0.51100000000E-03 0.  1.
    9900012    2    1    2    0    0  0.21774128584E+02  0.17656685767E+02 -0.29449862240E+02  0.50528860636E+02  0.30000002389E+02 0.  0.
         12    1    1    2    0    0 -0.21774128584E+02 -0.17656685767E+02  0.29449862240E+02  0.40659139364E+02  0.00000000000E+00 0. -1.
         11    1    3    3    0    0  0.53614472251E+01  0.14423570135E+02  0.46052897379E+00  0.15394693208E+02  0.51100000000E-03 0. -1.
        -11    1    3    3    0    0  0.16374395879E+02  0.42260013349E+01 -0.25392781486E+02  0.30508577147E+02  0.51100000000E-03 0.  1.
        -12    1    3    3    0    0  0.38285480453E-01 -0.99288570254E+00 -0.45176097275E+01  0.46255902809E+01  0.00000000000E+00 0.  1.
</event>
<event>
 7    1  0.2973028E-011  0.5052886E+02  0.7816164E-02  0.1300439E+00
        -11   -1    0    0    0    0  0.00000000000E+00  0.00000000000E+00  0.45593999997E+02  0.45594000000E+02  0.51100000000E-03 0.  1.
         11   -1    0    0    0    0 -0.00000000000E+00 -0.00000000000E+00 -0.45593999997E+02  0.45594000000E+02  0.51100000000E-03 0. -1.
    9900012    2    1    2    0    0  0.28832849701E+02 -0.27477519216E+02 -0.81742497803E+01  0.50528860270E+02  0.30000001277E+02 0.  0.
         12    1    1    2    0    0 -0.28832849701E+02  0.27477519216E+02  0.81742497803E+01  0.40659139730E+02  0.00000000000E+00 0. -1.
         11    1    3    3    0    0 -0.10455946479E+01 -0.73979958149E+01  0.17191517352E-01  0.74715397379E+01  0.51100000000E-03 0. -1.
        -11    1    3    3    0    0  0.19922342414E+02 -0.67669321323E+00 -0.73083479736E+01  0.21231335129E+02  0.51100000000E-03 0.  1.
        -12    1    3    3    0    0  0.99561019344E+01 -0.19402830188E+02 -0.88309332403E+00  0.21825985404E+02  0.00000000000E+00 0.  1.
</event>
<event>
 7    1  0.2973028E-011  0.5052886E+02  0.7816164E-02  0.1300439E+00
        -11   -1    0    0    0    0  0.00000000000E+00  0.00000000000E+00  0.45593999997E+02  0.45594000000E+02  0.51100000000E-03 0.  1.
         11   -1    0    0    0    0 -0.00000000000E+00 -0.00000000000E+00 -0.45593999997E+02  0.45594000000E+02  0.51100000000E-03 0. -1.
    9900012    2    1    2    0    0  0.16937736368E+02 -0.30835881164E+02 -0.20382023646E+02  0.50528863654E+02  0.30000011564E+02 0.  0.
         12    1    1    2    0    0 -0.16937736368E+02  0.30835881164E+02  0.20382023646E+02  0.40659136346E+02  0.00000000000E+00 0. -1.
         11    1    3    3    0    0  0.14419974553E+02 -0.13180178220E+02 -0.21760695767E+02  0.29243471828E+02  0.51100000000E-03 0. -1.
        -11    1    3    3    0    0 -0.13188915073E+01 -0.11758742339E+02 -0.39342870583E+01  0.12469407008E+02  0.51100000000E-03 0.  1.
         12    1    3    3    0    0  0.38366533230E+01 -0.58969606046E+01  0.53129591788E+01  0.88159848190E+01  0.00000000000E+00 0. -1.
</event>
<event>
 7    1  0.2973028E-011  0.5052886E+02  0.7816164E-02  0.1300439E+00
        -11   -1    0    0    0    0  0.00000000000E+00  0.00000000000E+00  0.45593999997E+02  0.45594000000E+02  0.51100000000E-03 0.  1.
         11   -1    0    0    0    0 -0.00000000000E+00 -0.00000000000E+00 -0.45593999997E+02  0.45594000000E+02  0.51100000000E-03 0. -1.
    9900012    2    1    2    0    0 -0.25952560898E+02  0.10513223133E+01  0.31281380722E+02  0.50528862335E+02  0.30000007555E+02 0.  0.
         12    1    1    2    0    0  0.25952560898E+02 -0.10513223133E+01 -0.31281380722E+02  0.40659137665E+02  0.00000000000E+00 0. -1.
         11    1    3    3    0    0 -0.35371152411E+01  0.96964335547E+01  0.35279781588E+01  0.10907732948E+02  0.51100000000E-03 0. -1.
        -11    1    3    3    0    0 -0.21385417042E+02 -0.98716709914E+01  0.17757475417E+02  0.29497692853E+02  0.51100000000E-03 0.  1.
        -12    1    3    3    0    0 -0.10300286151E+01  0.12265597501E+01  0.99959271454E+01  0.10123436534E+02  0.00000000000E+00 0.  1.
</event>
<event>
 7    1  0.2973028E-011  0.5052886E+02  0.7816164E-02  0.1300439E+00
        -11   -1    0    0    0    0  0.00000000000E+00  0.00000000000E+00  0.45593999997E+02  0.45594000000E+02  0.51100000000E-03 0.  1.
         11   -1    0    0    0    0 -0.00000000000E+00 -0.00000000000E+00 -0.45593999997E+02  0.45594000000E+02  0.51100000000E-03 0. -1.
    9900012    2    1    2    0    0  0.72524026248E+01 -0.37609841532E+02  0.13640686006E+02  0.50528857872E+02  0.29999993988E+02 0.  0.
         12    1    1    2    0    0 -0.72524026248E+01  0.37609841532E+02 -0.13640686006E+02  0.40659142128E+02  0.00000000000E+00 0. -1.
         11    1    3    3    0    0 -0.95578762730E+01 -0.22916225070E+02  0.10833749401E+02  0.27090154977E+02  0.51100000000E-03 0. -1.
        -11    1    3    3    0    0  0.14900000441E+01 -0.47095980494E+01  0.10155393610E-01  0.49396879771E+01  0.51100000000E-03 0.  1.
         12    1    3    3    0    0  0.15320278854E+02 -0.99840184120E+01  0.27967812116E+01  0.18499014918E+02  0.00000000000E+00 0. -1.
</event>
<event>
 7    1  0.2973028E-011  0.5052886E+02  0.7816164E-02  0.1300439E+00
        -11   -1    0    0    0    0  0.00000000000E+00  0.00000000000E+00  0.45593999997E+02  0.45594000000E+02  0.51100000000E-03 0.  1.
         11   -1    0    0    0    0 -0.00000000000E+00 -0.00000000000E+00 -0.45593999997E+02  0.45594000000E+02  0.51100000000E-03 0. -1.
    9900012    2    1    2    0    0 -0.21482502722E+02 -0.18467730772E+02  0.29165232540E+02  0.50528858443E+02  0.29999995723E+02 0.  0.
         12    1    1    2    0    0  0.21482502722E+02  0.18467730772E+02 -0.29165232540E+02  0.40659141557E+02  0.00000000000E+00 0. -1.
         11    1    3    3    0    0 -0.10636402994E+01 -0.14872036284E+02  0.48345896022E+01  0.15674248014E+02  0.51100000000E-03 0.  1.
        -11    1    3    3    0    0 -0.35414721739E+01  0.30665294550E+01  0.12093193621E+02  0.12968845757E+02  0.51100000000E-03 0. -1.
        -12    1    3    3    0    0 -0.16877390249E+02 -0.66622239425E+01  0.12237449317E+02  0.21885764671E+02  0.00000000000E+00 0.  1.
</event>
<event>
 7    1  0.2973028E-011  0.5052887E+02  0.7816164E-02  0.1300439E+00
        -11   -1    0    0    0    0  0.00000000000E+00  0.00000000000E+00  0.45593999997E+02  0.45594000000E+02  0.51100000000E-03 0.  1.
         11   -1    0    0    0    0 -0.00000000000E+00 -0.00000000000E+00 -0.45593999997E+02  0.45594000000E+02  0.51100000000E-03 0. -1.
    9900012    2    1    2    0    0  0.45647310492E+01  0.30089896933E+02  0.26961565590E+02  0.50528872045E+02  0.30000037067E+02 0.  0.
         12    1    1    2    0    0 -0.45647310492E+01 -0.30089896933E+02 -0.26961565590E+02  0.40659127955E+02  0.00000000000E+00 0. -1.
         11    1    3    3    0    0 -0.44154493520E+01  0.12182562512E+02  0.12894320954E+02  0.18280441336E+02  0.51100000000E-03 0. -1.
        -11    1    3    3    0    0  0.14269175349E+02  0.75943915219E+01  0.34456052732E+01  0.16527442140E+02  0.51100000000E-03 0.  1.
        -12    1    3    3    0    0 -0.52889949479E+01  0.10312942900E+02  0.10621639363E+02  0.15720988568E+02  0.00000000000E+00 0.  1.
</event>
<event>
 7    1  0.2973028E-011  0.5052885E+02  0.7816164E-02  0.1300439E+00
        -11   -1    0    0    0    0  0.00000000000E+00  0.00000000000E+00  0.45593999997E+02  0.45594000000E+02  0.51100000000E-03 0.  1.
         11   -1    0    0    0    0 -0.00000000000E+00 -0.00000000000E+00 -0.45593999997E+02  0.45594000000E+02  0.51100000000E-03 0. -1.
    9900012    2    1    2    0    0  0.20401848523E+02  0.24796238063E+02  0.24941489551E+02  0.50528846710E+02  0.29999960061E+02 0.  0.
         12    1    1    2    0    0 -0.20401848523E+02 -0.24796238063E+02 -0.24941489551E+02  0.40659153290E+02  0.00000000000E+00 0. -1.
         11    1    3    3    0    0  0.77177739829E+01 -0.20412417939E+00 -0.72942917460E+00  0.77548545514E+01  0.51100000000E-03 0. -1.
        -11    1    3    3    0    0 -0.21035696293E+01  0.17240705516E+02  0.11113044175E+02  0.20619570387E+02  0.51100000000E-03 0.  1.
        -12    1    3    3    0    0  0.14787644170E+02  0.77596567262E+01  0.14557874551E+02  0.22154421772E+02  0.00000000000E+00 0.  1.
</event>
<event>
 7    1  0.2973028E-011  0.5052884E+02  0.7816164E-02  0.1300439E+00
        -11   -1    0    0    0    0  0.00000000000E+00  0.00000000000E+00  0.45593999997E+02  0.45594000000E+02  0.51100000000E-03 0.  1.
         11   -1    0    0    0    0 -0.00000000000E+00 -0.00000000000E+00 -0.45593999997E+02  0.45594000000E+02  0.51100000000E-03 0. -1.
    9900012    2    1    2    0    0 -0.65232598484E+01 -0.26845089673E+02  0.29832117263E+02  0.50528843848E+02  0.29999951362E+02 0.  0.
         12    1    1    2    0    0  0.65232598484E+01  0.26845089673E+02 -0.29832117263E+02  0.40659156152E+02  0.00000000000E+00 0. -1.
         11    1    3    3    0    0  0.10979058539E+01 -0.42746450131E+01 -0.48147046790E+01  0.65314139862E+01  0.51100000000E-03 0. -1.
        -11    1    3    3    0    0  0.22508158802E+01 -0.13965298279E+01  0.86461468758E+01  0.90428050817E+01  0.51100000000E-03 0.  1.
         12    1    3    3    0    0 -0.98719815824E+01 -0.21173914832E+02  0.26000675066E+02  0.34954624781E+02  0.00000000000E+00 0. -1.
</event>
<event>
 7    1  0.2973028E-011  0.5052886E+02  0.7816164E-02  0.1300439E+00
        -11   -1    0    0    0    0  0.00000000000E+00  0.00000000000E+00  0.45593999997E+02  0.45594000000E+02  0.51100000000E-03 0.  1.
         11   -1    0    0    0    0 -0.00000000000E+00 -0.00000000000E+00 -0.45593999997E+02  0.45594000000E+02  0.51100000000E-03 0. -1.
    9900012    2    1    2    0    0  0.60795071572E+01 -0.60704818467E+01  0.39741089872E+02  0.50528863495E+02  0.30000011080E+02 0.  0.
         12    1    1    2    0    0 -0.60795071572E+01  0.60704818467E+01 -0.39741089872E+02  0.40659136505E+02  0.00000000000E+00 0. -1.
         11    1    3    3    0    0 -0.41649534196E+01 -0.21045961984E+01 -0.29231675676E+01  0.55064572127E+01  0.51100000000E-03 0. -1.
        -11    1    3    3    0    0  0.79077098474E+01  0.10684636054E+01  0.17207767988E+02  0.18967887835E+02  0.51100000000E-03 0.  1.
         12    1    3    3    0    0  0.23367507294E+01 -0.50343492537E+01  0.25456489451E+02  0.26054518448E+02  0.00000000000E+00 0. -1.
</event>
<event>
 7    1  0.2973028E-011  0.5052886E+02  0.7816164E-02  0.1300439E+00
        -11   -1    0    0    0    0  0.00000000000E+00  0.00000000000E+00  0.45593999997E+02  0.45594000000E+02  0.51100000000E-03 0.  1.
         11   -1    0    0    0    0 -0.00000000000E+00 -0.00000000000E+00 -0.45593999997E+02  0.45594000000E+02  0.51100000000E-03 0. -1.
    9900012    2    1    2    0    0 -0.26638914298E+02 -0.11434180539E+02  0.28509528266E+02  0.50528862755E+02  0.30000008829E+02 0.  0.
         12    1    1    2    0    0  0.26638914298E+02  0.11434180539E+02 -0.28509528266E+02  0.40659137245E+02  0.00000000000E+00 0. -1.
         11    1    3    3    0    0  0.22747686651E+01  0.10859993614E+01  0.14309437539E+02  0.14529761527E+02  0.51100000000E-03 0. -1.
        -11    1    3    3    0    0 -0.28870610527E+02 -0.10659781121E+02  0.14649859189E+02  0.34084622050E+02  0.51100000000E-03 0.  1.
        -12    1    3    3    0    0 -0.43072435613E-01 -0.18603987794E+01 -0.44976846128E+00  0.19144791777E+01  0.00000000000E+00 0.  1.
</event>
<event>
 7    1  0.2973028E-011  0.5052887E+02  0.7816164E-02  0.1300439E+00
        -11   -1    0    0    0    0  0.00000000000E+00  0.00000000000E+00  0.45593999997E+02  0.45594000000E+02  0.51100000000E-03 0.  1.
         11   -1    0    0    0    0 -0.00000000000E+00 -0.00000000000E+00 -0.45593999997E+02  0.45594000000E+02  0.51100000000E-03 0. -1.
    9900012    2    1    2    0    0 -0.76729715470E+01 -0.82746363370E+01  0.39061759603E+02  0.50528866190E+02  0.30000019272E+02 0.  0.
         12    1    1    2    0    0  0.76729715470E+01  0.82746363370E+01 -0.39061759603E+02  0.40659133810E+02  0.00000000000E+00 0. -1.
         11    1    3    3    0    0 -0.10317162596E+02 -0.16813485847E+02  0.20996245240E+02  0.28809364186E+02  0.51100000000E-03 0.  1.
        -11    1    3    3    0    0  0.49214083519E+01  0.60067657713E+01  0.82489423544E+01  0.11329013436E+02  0.51100000000E-03 0. -1.
        -12    1    3    3    0    0 -0.22772173030E+01  0.25320837385E+01  0.98165720081E+01  0.10390488569E+02  0.00000000000E+00 0.  1.
</event>
<event>
 7    1  0.2973028E-011  0.5052893E+02  0.7816164E-02  0.1300439E+00
        -11   -1    0    0    0    0  0.00000000000E+00  0.00000000000E+00  0.45593999997E+02  0.45594000000E+02  0.51100000000E-03 0.  1.
         11   -1    0    0    0    0 -0.00000000000E+00 -0.00000000000E+00 -0.45593999997E+02  0.45594000000E+02  0.51100000000E-03 0. -1.
    9900012    2    1    2    0    0  0.10708185202E+02 -0.32026497386E+02  0.22645043244E+02  0.50528932762E+02  0.30000221623E+02 0.  0.
         12    1    1    2    0    0 -0.10708185202E+02  0.32026497386E+02 -0.22645043244E+02  0.40659067238E+02  0.00000000000E+00 0. -1.
         11    1    3    3    0    0 -0.65181080926E+00  0.21544113303E+01  0.44074516730E+00  0.22936002430E+01  0.51100000000E-03 0. -1.
        -11    1    3    3    0    0  0.18538061481E+02 -0.25976893941E+02  0.16915564353E+02  0.36119178561E+02  0.51100000000E-03 0.  1.
        -12    1    3    3    0    0 -0.71780654703E+01 -0.82040147754E+01  0.52887337234E+01  0.12116153958E+02  0.00000000000E+00 0.  1.
</event>
<event>
 7    1  0.2973028E-011  0.5052882E+02  0.7816164E-02  0.1300439E+00
        -11   -1    0    0    0    0  0.00000000000E+00  0.00000000000E+00  0.45593999997E+02  0.45594000000E+02  0.51100000000E-03 0.  1.
         11   -1    0    0    0    0 -0.00000000000E+00 -0.00000000000E+00 -0.45593999997E+02  0.45594000000E+02  0.51100000000E-03 0. -1.
    9900012    2    1    2    0    0  0.26198407049E+02 -0.30970310834E+02  0.27663166301E+01  0.50528816625E+02  0.29999868612E+02 0.  0.
         12    1    1    2    0    0 -0.26198407049E+02  0.30970310834E+02 -0.27663166301E+01  0.40659183375E+02  0.00000000000E+00 0. -1.
         11    1    3    3    0    0  0.22218934670E+02 -0.23897493700E+02 -0.14341408341E+01  0.32662333401E+02  0.51100000000E-03 0. -1.
        -11    1    3    3    0    0 -0.20061071024E+01  0.20734462847E+01  0.61223390332E+01  0.67680632902E+01  0.51100000000E-03 0.  1.
        -12    1    3    3    0    0  0.59855794814E+01 -0.91462634187E+01 -0.19218815689E+01  0.11098419933E+02  0.00000000000E+00 0.  1.
</event>
<event>
 7    1  0.2973028E-011  0.5052886E+02  0.7816164E-02  0.1300439E+00
        -11   -1    0    0    0    0  0.00000000000E+00  0.00000000000E+00  0.45593999997E+02  0.45594000000E+02  0.51100000000E-03 0.  1.
         11   -1    0    0    0    0 -0.00000000000E+00 -0.00000000000E+00 -0.45593999997E+02  0.45594000000E+02  0.51100000000E-03 0. -1.
    9900012    2    1    2    0    0  0.26496008271E+01 -0.26496993674E+02  0.30725471474E+02  0.50528860122E+02  0.30000000828E+02 0.  0.
         12    1    1    2    0    0 -0.26496008271E+01  0.26496993674E+02 -0.30725471474E+02  0.40659139878E+02  0.00000000000E+00 0. -1.
         11    1    3    3    0    0  0.11464719649E+02 -0.94082240228E+00  0.10161032617E+02  0.15348339569E+02  0.51100000000E-03 0. -1.
        -11    1    3    3    0    0  0.17331889423E+01 -0.68631731046E+01  0.49308264699E+01  0.86267107817E+01  0.51100000000E-03 0.  1.
         12    1    3    3    0    0 -0.10548307764E+02 -0.18692998167E+02  0.15633612387E+02  0.26553809772E+02  0.00000000000E+00 0. -1.
</event>
<event>
 7    1  0.2973028E-011  0.5052886E+02  0.7816164E-02  0.1300439E+00
        -11   -1    0    0    0    0  0.00000000000E+00  0.00000000000E+00  0.45593999997E+02  0.45594000000E+02  0.51100000000E-03 0. -1.
         11   -1    0    0    0    0 -0.00000000000E+00 -0.00000000000E+00 -0.45593999997E+02  0.45594000000E+02  0.51100000000E-03 0.  1.
    9900012    2    1    2    0    0 -0.18588732687E+02 -0.33610107395E+02 -0.13341119194E+02  0.50528858797E+02  0.29999996800E+02 0.  0.
         12    1    1    2    0    0  0.18588732687E+02  0.33610107395E+02  0.13341119194E+02  0.40659141203E+02  0.00000000000E+00 0. -1.
         11    1    3    3    0    0 -0.11507580815E+02 -0.64641405066E+01 -0.11814934867E+02  0.17714463437E+02  0.51100000000E-03 0.  1.
        -11    1    3    3    0    0 -0.98726224759E+01 -0.26152762447E+02 -0.48389966549E+01  0.28369905658E+02  0.51100000000E-03 0. -1.
         12    1    3    3    0    0  0.27914706030E+01 -0.99320444067E+00  0.33128123278E+01  0.44444897016E+01  0.00000000000E+00 0. -1.
</event>
<event>
 7    1  0.2973028E-011  0.5052888E+02  0.7816164E-02  0.1300439E+00
        -11   -1    0    0    0    0  0.00000000000E+00  0.00000000000E+00  0.45593999997E+02  0.45594000000E+02  0.51100000000E-03 0.  1.
         11   -1    0    0    0    0 -0.00000000000E+00 -0.00000000000E+00 -0.45593999997E+02  0.45594000000E+02  0.51100000000E-03 0. -1.
    9900012    2    1    2    0    0  0.14616754156E+02 -0.12336289638E+01  0.37920878871E+02  0.50528875602E+02  0.30000047879E+02 0.  0.
         12    1    1    2    0    0 -0.14616754156E+02  0.12336289638E+01 -0.37920878871E+02  0.40659124398E+02  0.00000000000E+00 0. -1.
         11    1    3    3    0    0 -0.87092766426E+01 -0.36419748878E+01  0.13590465647E+02  0.16547393677E+02  0.51100000000E-03 0. -1.
        -11    1    3    3    0    0  0.70005260200E+01  0.14825792923E+01  0.95975547164E+01  0.11971568933E+02  0.51100000000E-03 0.  1.
         12    1    3    3    0    0  0.16325504779E+02  0.92576663157E+00  0.14732858507E+02  0.22009912992E+02  0.00000000000E+00 0. -1.
</event>
<event>
 7    1  0.2973028E-011  0.5052886E+02  0.7816164E-02  0.1300439E+00
        -11   -1    0    0    0    0  0.00000000000E+00  0.00000000000E+00  0.45593999997E+02  0.45594000000E+02  0.51100000000E-03 0.  1.
         11   -1    0    0    0    0 -0.00000000000E+00 -0.00000000000E+00 -0.45593999997E+02  0.45594000000E+02  0.51100000000E-03 0. -1.
    9900012    2    1    2    0    0  0.18844096504E+02 -0.12934760783E+01  0.36005447877E+02  0.50528864123E+02  0.30000012989E+02 0.  0.
         12    1    1    2    0    0 -0.18844096504E+02  0.12934760783E+01 -0.36005447877E+02  0.40659135877E+02  0.00000000000E+00 0. -1.
         11    1    3    3    0    0  0.18563526610E+01 -0.60615776302E+01  0.84537530667E+00  0.63955788041E+01  0.51100000000E-03 0. -1.
        -11    1    3    3    0    0  0.17092121011E+02 -0.31690539322E+01  0.17000466955E+02  0.24314591924E+02  0.51100000000E-03 0.  1.
         12    1    3    3    0    0 -0.10437716855E+00  0.79371554841E+01  0.18159605616E+02  0.19818693395E+02  0.00000000000E+00 0. -1.
</event>
<event>
 7    1  0.2973028E-011  0.5052886E+02  0.7816164E-02  0.1300439E+00
        -11   -1    0    0    0    0  0.00000000000E+00  0.00000000000E+00  0.45593999997E+02  0.45594000000E+02  0.51100000000E-03 0.  1.
         11   -1    0    0    0    0 -0.00000000000E+00 -0.00000000000E+00 -0.45593999997E+02  0.45594000000E+02  0.51100000000E-03 0. -1.
    9900012    2    1    2    0    0 -0.78842009566E+01  0.24919768862E+02  0.31144989446E+02  0.50528857456E+02  0.29999992722E+02 0.  0.
         12    1    1    2    0    0  0.78842009566E+01 -0.24919768862E+02 -0.31144989446E+02  0.40659142544E+02  0.00000000000E+00 0. -1.
         11    1    3    3    0    0  0.24753633770E+01 -0.36123023779E+01 -0.12319467544E+01  0.45490488439E+01  0.51100000000E-03 0. -1.
        -11    1    3    3    0    0 -0.10219457030E+02  0.14987028232E+02  0.23884737531E+02  0.29992149046E+02  0.51100000000E-03 0.  1.
        -12    1    3    3    0    0 -0.14010730331E+00  0.13545043008E+02  0.84921986696E+01  0.15987659566E+02  0.00000000000E+00 0.  1.
</event>
<event>
 7    1  0.2973028E-011  0.5052886E+02  0.7816164E-02  0.1300439E+00
        -11   -1    0    0    0    0  0.00000000000E+00  0.00000000000E+00  0.45593999997E+02  0.45594000000E+02  0.51100000000E-03 0.  1.
         11   -1    0    0    0    0 -0.00000000000E+00 -0.00000000000E+00 -0.45593999997E+02  0.45594000000E+02  0.51100000000E-03 0. -1.
    9900012    2    1    2    0    0 -0.30459446818E+01  0.93755788223E+01  0.39445993614E+02  0.50528859952E+02  0.30000000311E+02 0.  0.
         12    1    1    2    0    0  0.30459446818E+01 -0.93755788223E+01 -0.39445993614E+02  0.40659140048E+02  0.00000000000E+00 0. -1.
         11    1    3    3    0    0 -0.90536817761E+01  0.15489414158E+02  0.15690144193E+02  0.23834255385E+02  0.51100000000E-03 0. -1.
        -11    1    3    3    0    0  0.18590763691E+01 -0.40117170723E+01  0.20611901778E+02  0.21080809614E+02  0.51100000000E-03 0.  1.
         12    1    3    3    0    0  0.41486607252E+01 -0.21021182638E+01  0.31439476429E+01  0.56137949543E+01  0.00000000000E+00 0. -1.
</event>
<event>
 7    1  0.2973028E-011  0.5052888E+02  0.7816164E-02  0.1300439E+00
        -11   -1    0    0    0    0  0.00000000000E+00  0.00000000000E+00  0.45593999997E+02  0.45594000000E+02  0.51100000000E-03 0.  1.
         11   -1    0    0    0    0 -0.00000000000E+00 -0.00000000000E+00 -0.45593999997E+02  0.45594000000E+02  0.51100000000E-03 0. -1.
    9900012    2    1    2    0    0 -0.10504824603E+02 -0.72744265706E+01  0.38599163292E+02  0.50528880128E+02  0.30000061638E+02 0.  0.
         12    1    1    2    0    0  0.10504824603E+02  0.72744265706E+01 -0.38599163292E+02  0.40659119872E+02  0.00000000000E+00 0. -1.
         11    1    3    3    0    0 -0.13411815384E+02 -0.94541969354E+01  0.12675504495E+02  0.20734682202E+02  0.51100000000E-03 0. -1.
        -11    1    3    3    0    0  0.23937236214E+01  0.68869940830E+01  0.63905404632E+01  0.96953394963E+01  0.51100000000E-03 0.  1.
        -12    1    3    3    0    0  0.51326715916E+00 -0.47072237182E+01  0.19533118334E+02  0.20098858430E+02  0.00000000000E+00 0.  1.
</event>
<event>
 7    1  0.2973028E-011  0.5052886E+02  0.7816164E-02  0.1300439E+00
        -11   -1    0    0    0    0  0.00000000000E+00  0.00000000000E+00  0.45593999997E+02  0.45594000000E+02  0.51100000000E-03 0.  1.
         11   -1    0    0    0    0 -0.00000000000E+00 -0.00000000000E+00 -0.45593999997E+02  0.45594000000E+02  0.51100000000E-03 0. -1.
    9900012    2    1    2    0    0  0.21733271544E+02 -0.14345479945E+02  0.31225589968E+02  0.50528863810E+02  0.30000012036E+02 0.  0.
         12    1    1    2    0    0 -0.21733271544E+02  0.14345479945E+02 -0.31225589968E+02  0.40659136190E+02  0.00000000000E+00 0. -1.
         11    1    3    3    0    0  0.14411568191E+02 -0.10010079821E+02  0.69588484578E+01  0.18876455384E+02  0.51100000000E-03 0. -1.
        -11    1    3    3    0    0 -0.29656506726E+01  0.21660963528E+01  0.17183415173E+02  0.17571477303E+02  0.51100000000E-03 0.  1.
        -12    1    3    3    0    0  0.10287354026E+02 -0.65014964767E+01  0.70833263371E+01  0.14080931123E+02  0.00000000000E+00 0.  1.
</event>
<event>
 7    1  0.2973028E-011  0.5052887E+02  0.7816164E-02  0.1300439E+00
        -11   -1    0    0    0    0  0.00000000000E+00  0.00000000000E+00  0.45593999997E+02  0.45594000000E+02  0.51100000000E-03 0.  1.
         11   -1    0    0    0    0 -0.00000000000E+00 -0.00000000000E+00 -0.45593999997E+02  0.45594000000E+02  0.51100000000E-03 0. -1.
    9900012    2    1    2    0    0 -0.19522853517E+02 -0.35226519058E+02  0.55781384794E+01  0.50528867160E+02  0.30000022221E+02 0.  0.
         12    1    1    2    0    0  0.19522853517E+02  0.35226519058E+02 -0.55781384794E+01  0.40659132840E+02  0.00000000000E+00 0. -1.
         11    1    3    3    0    0 -0.12785569155E+02 -0.15579850439E+02  0.14569208089E+02  0.24868943341E+02  0.51100000000E-03 0.  1.
        -11    1    3    3    0    0 -0.32083401419E+00 -0.17060254443E+02 -0.71520886959E+01  0.18501556397E+02  0.51100000000E-03 0. -1.
         12    1    3    3    0    0 -0.64164503474E+01 -0.25864141759E+01 -0.18389809135E+01  0.71583674221E+01  0.00000000000E+00 0. -1.
</event>
<event>
 7    1  0.2973028E-011  0.5052887E+02  0.7816164E-02  0.1300439E+00
        -11   -1    0    0    0    0  0.00000000000E+00  0.00000000000E+00  0.45593999997E+02  0.45594000000E+02  0.51100000000E-03 0.  1.
         11   -1    0    0    0    0 -0.00000000000E+00 -0.00000000000E+00 -0.45593999997E+02  0.45594000000E+02  0.51100000000E-03 0. -1.
    9900012    2    1    2    0    0  0.10562363551E+02 -0.22898352088E+02  0.31894619406E+02  0.50528870654E+02  0.30000032839E+02 0.  0.
         12    1    1    2    0    0 -0.10562363551E+02  0.22898352088E+02 -0.31894619406E+02  0.40659129346E+02  0.00000000000E+00 0. -1.
         11    1    3    3    0    0  0.82592785020E+00  0.40652921189E+01 -0.29045639874E+00  0.41584999707E+01  0.51100000000E-03 0. -1.
        -11    1    3    3    0    0  0.10630003950E+02 -0.22761935109E+02  0.33504477732E+02  0.41876636712E+02  0.51100000000E-03 0.  1.
        -12    1    3    3    0    0 -0.89356824851E+00 -0.42017090979E+01 -0.13194019276E+01  0.44937339713E+01  0.00000000000E+00 0.  1.
</event>
<event>
 7    1  0.2973028E-011  0.5052886E+02  0.7816164E-02  0.1300439E+00
        -11   -1    0    0    0    0  0.00000000000E+00  0.00000000000E+00  0.45593999997E+02  0.45594000000E+02  0.51100000000E-03 0.  1.
         11   -1    0    0    0    0 -0.00000000000E+00 -0.00000000000E+00 -0.45593999997E+02  0.45594000000E+02  0.51100000000E-03 0. -1.
    9900012    2    1    2    0    0 -0.37045162172E+02  0.14376262951E+02 -0.86107435294E+01  0.50528857352E+02  0.29999992406E+02 0.  0.
         12    1    1    2    0    0  0.37045162172E+02 -0.14376262951E+02  0.86107435294E+01  0.40659142648E+02  0.00000000000E+00 0. -1.
         11    1    3    3    0    0 -0.65168430596E+00 -0.10993460064E+01 -0.29873707823E+01  0.32492519953E+01  0.51100000000E-03 0. -1.
        -11    1    3    3    0    0 -0.37659171866E+02  0.18975158499E+02 -0.79196485287E+01  0.42906767518E+02  0.51100000000E-03 0.  1.
        -12    1    3    3    0    0  0.12656940005E+01 -0.34995495419E+01  0.22962757816E+01  0.43728378388E+01  0.00000000000E+00 0.  1.
</event>
<event>
 7    1  0.2973028E-011  0.5052886E+02  0.7816164E-02  0.1300439E+00
        -11   -1    0    0    0    0  0.00000000000E+00  0.00000000000E+00  0.45593999997E+02  0.45594000000E+02  0.51100000000E-03 0. -1.
         11   -1    0    0    0    0 -0.00000000000E+00 -0.00000000000E+00 -0.45593999997E+02  0.45594000000E+02  0.51100000000E-03 0.  1.
    9900012    2    1    2    0    0 -0.34769266573E+02 -0.19476954775E+02 -0.80568178702E+01  0.50528856139E+02  0.29999988720E+02 0.  0.
         12    1    1    2    0    0  0.34769266573E+02  0.19476954775E+02  0.80568178702E+01  0.40659143861E+02  0.00000000000E+00 0. -1.
         11    1    3    3    0    0 -0.19576237747E+02  0.38346715806E+01  0.25632705899E+00  0.19949924669E+02  0.51100000000E-03 0. -1.
        -11    1    3    3    0    0 -0.31132206131E+01 -0.63833060606E+01 -0.66280047702E+01  0.97143803891E+01  0.51100000000E-03 0.  1.
         12    1    3    3    0    0 -0.12079808213E+02 -0.16928320295E+02 -0.16851401590E+01  0.20864551081E+02  0.00000000000E+00 0. -1.
</event>
<event>
 7    1  0.2973028E-011  0.5052886E+02  0.7816164E-02  0.1300439E+00
        -11   -1    0    0    0    0  0.00000000000E+00  0.00000000000E+00  0.45593999997E+02  0.45594000000E+02  0.51100000000E-03 0.  1.
         11   -1    0    0    0    0 -0.00000000000E+00 -0.00000000000E+00 -0.45593999997E+02  0.45594000000E+02  0.51100000000E-03 0. -1.
    9900012    2    1    2    0    0 -0.11357294050E+02  0.39030101928E+02  0.91039758028E+00  0.50528858243E+02  0.29999995116E+02 0.  0.
         12    1    1    2    0    0  0.11357294050E+02 -0.39030101928E+02 -0.91039758028E+00  0.40659141757E+02  0.00000000000E+00 0. -1.
         11    1    3    3    0    0 -0.18335254089E+02  0.25530047825E+02 -0.57347502991E+01  0.31950778483E+02  0.51100000000E-03 0. -1.
        -11    1    3    3    0    0  0.60168614431E+01  0.13843224314E+02  0.38141055227E+01  0.15568714855E+02  0.51100000000E-03 0.  1.
         12    1    3    3    0    0  0.96109859592E+00 -0.34317021083E+00  0.28310423567E+01  0.30093649048E+01  0.00000000000E+00 0. -1.
</event>
<event>
 7    1  0.2973028E-011  0.5052886E+02  0.7816164E-02  0.1300439E+00
        -11   -1    0    0    0    0  0.00000000000E+00  0.00000000000E+00  0.45593999997E+02  0.45594000000E+02  0.51100000000E-03 0. -1.
         11   -1    0    0    0    0 -0.00000000000E+00 -0.00000000000E+00 -0.45593999997E+02  0.45594000000E+02  0.51100000000E-03 0.  1.
    9900012    2    1    2    0    0 -0.99551889254E+01 -0.25159414715E+02 -0.30349029856E+02  0.50528861439E+02  0.30000004829E+02 0.  0.
         12    1    1    2    0    0  0.99551889254E+01  0.25159414715E+02  0.30349029856E+02  0.40659138561E+02  0.00000000000E+00 0. -1.
         11    1    3    3    0    0  0.98856206672E+00  0.60106392182E+01 -0.27999466496E+01  0.67040838504E+01  0.51100000000E-03 0. -1.
        -11    1    3    3    0    0 -0.11897565006E+02 -0.30772861058E+02 -0.26228380146E+02  0.42147941303E+02  0.51100000000E-03 0.  1.
        -12    1    3    3    0    0  0.95381401347E+00 -0.39719287500E+00 -0.13207030611E+01  0.16768362853E+01  0.00000000000E+00 0.  1.
</event>
<event>
 7    1  0.2973028E-011  0.5052887E+02  0.7816164E-02  0.1300439E+00
        -11   -1    0    0    0    0  0.00000000000E+00  0.00000000000E+00  0.45593999997E+02  0.45594000000E+02  0.51100000000E-03 0. -1.
         11   -1    0    0    0    0 -0.00000000000E+00 -0.00000000000E+00 -0.45593999997E+02  0.45594000000E+02  0.51100000000E-03 0.  1.
    9900012    2    1    2    0    0 -0.33224680639E+02 -0.33434244413E+01 -0.23197125518E+02  0.50528874051E+02  0.30000043167E+02 0.  0.
         12    1    1    2    0    0  0.33224680639E+02  0.33434244413E+01  0.23197125518E+02  0.40659125949E+02  0.00000000000E+00 0. -1.
         11    1    3    3    0    0 -0.12482222152E+02 -0.64170533990E+01 -0.19920365603E+02  0.24368122828E+02  0.51100000000E-03 0. -1.
        -11    1    3    3    0    0 -0.15996420344E+02  0.89263123493E+01 -0.33657398811E+01  0.18625056273E+02  0.51100000000E-03 0.  1.
         12    1    3    3    0    0 -0.47460381435E+01 -0.58526833916E+01  0.88979965124E-01  0.75356949498E+01  0.00000000000E+00 0. -1.
</event>
<event>
 7    1  0.2973028E-011  0.5052887E+02  0.7816164E-02  0.1300439E+00
        -11   -1    0    0    0    0  0.00000000000E+00  0.00000000000E+00  0.45593999997E+02  0.45594000000E+02  0.51100000000E-03 0.  1.
         11   -1    0    0    0    0 -0.00000000000E+00 -0.00000000000E+00 -0.45593999997E+02  0.45594000000E+02  0.51100000000E-03 0. -1.
    9900012    2    1    2    0    0 -0.17788238134E+02  0.33491928446E+02 -0.14664048974E+02  0.50528867947E+02  0.30000024612E+02 0.  0.
         12    1    1    2    0    0  0.17788238134E+02 -0.33491928446E+02  0.14664048974E+02  0.40659132053E+02  0.00000000000E+00 0. -1.
         11    1    3    3    0    0 -0.18885762086E+02  0.17865830315E+02 -0.80385294155E+01  0.27211722802E+02  0.51100000000E-03 0.  1.
        -11    1    3    3    0    0  0.43890857412E+01  0.60616624170E+01  0.41339065746E+01  0.85496788671E+01  0.51100000000E-03 0. -1.
         12    1    3    3    0    0 -0.32915617890E+01  0.95644357142E+01 -0.10759426133E+02  0.14767466278E+02  0.00000000000E+00 0. -1.
</event>
<event>
 7    1  0.2973028E-011  0.5052886E+02  0.7816164E-02  0.1300439E+00
        -11   -1    0    0    0    0  0.00000000000E+00  0.00000000000E+00  0.45593999997E+02  0.45594000000E+02  0.51100000000E-03 0.  1.
         11   -1    0    0    0    0 -0.00000000000E+00 -0.00000000000E+00 -0.45593999997E+02  0.45594000000E+02  0.51100000000E-03 0. -1.
    9900012    2    1    2    0    0  0.19273680108E+02 -0.16779974670E+02  0.31624725331E+02  0.50528861457E+02  0.30000004885E+02 0.  0.
         12    1    1    2    0    0 -0.19273680108E+02  0.16779974670E+02 -0.31624725331E+02  0.40659138543E+02  0.00000000000E+00 0. -1.
         11    1    3    3    0    0  0.52944161020E+01  0.73626287521E+01  0.80909874041E+01  0.12153321416E+02  0.51100000000E-03 0. -1.
        -11    1    3    3    0    0  0.14746999444E+02 -0.17348266511E+02  0.21309127262E+02  0.31185176743E+02  0.51100000000E-03 0.  1.
         12    1    3    3    0    0 -0.76773543857E+00 -0.67943369104E+01  0.22246106649E+01  0.71903632986E+01  0.00000000000E+00 0. -1.
</event>
<event>
 7    1  0.2973028E-011  0.5052887E+02  0.7816164E-02  0.1300439E+00
        -11   -1    0    0    0    0  0.00000000000E+00  0.00000000000E+00  0.45593999997E+02  0.45594000000E+02  0.51100000000E-03 0. -1.
         11   -1    0    0    0    0 -0.00000000000E+00 -0.00000000000E+00 -0.45593999997E+02  0.45594000000E+02  0.51100000000E-03 0.  1.
    9900012    2    1    2    0    0 -0.11014084077E+01 -0.35102008171E+01 -0.40492344362E+02  0.50528873568E+02  0.30000041697E+02 0.  0.
         12    1    1    2    0    0  0.11014084077E+01  0.35102008171E+01  0.40492344362E+02  0.40659126432E+02  0.00000000000E+00 0. -1.
         11    1    3    3    0    0 -0.57027093814E+01 -0.82893641075E+01 -0.32689786859E+02  0.34203166765E+02  0.51100000000E-03 0. -1.
        -11    1    3    3    0    0  0.46147611987E+01  0.31783395326E+01 -0.11225833712E+02  0.12546601369E+02  0.51100000000E-03 0.  1.
         12    1    3    3    0    0 -0.13460224894E-01  0.16008237579E+01  0.34232762090E+01  0.37791054345E+01  0.00000000000E+00 0. -1.
</event>
<event>
 7    1  0.2973028E-011  0.5052886E+02  0.7816164E-02  0.1300439E+00
        -11   -1    0    0    0    0  0.00000000000E+00  0.00000000000E+00  0.45593999997E+02  0.45594000000E+02  0.51100000000E-03 0.  1.
         11   -1    0    0    0    0 -0.00000000000E+00 -0.00000000000E+00 -0.45593999997E+02  0.45594000000E+02  0.51100000000E-03 0. -1.
    9900012    2    1    2    0    0  0.99647860535E+00  0.40156981630E+02  0.62920385898E+01  0.50528857204E+02  0.29999991959E+02 0.  0.
         12    1    1    2    0    0 -0.99647860535E+00 -0.40156981630E+02 -0.62920385898E+01  0.40659142796E+02  0.00000000000E+00 0. -1.
         11    1    3    3    0    0  0.13708122402E+02  0.23781694828E+02  0.35463100005E+01  0.27677751779E+02  0.51100000000E-03 0. -1.
        -11    1    3    3    0    0 -0.12045298822E+02  0.95295421279E+01  0.39724231562E+01  0.15864474239E+02  0.51100000000E-03 0.  1.
         12    1    3    3    0    0 -0.66634497496E+00  0.68457446744E+01 -0.12266945669E+01  0.69866311863E+01  0.00000000000E+00 0. -1.
</event>
<event>
 7    1  0.2973028E-011  0.5052887E+02  0.7816164E-02  0.1300439E+00
        -11   -1    0    0    0    0  0.00000000000E+00  0.00000000000E+00  0.45593999997E+02  0.45594000000E+02  0.51100000000E-03 0. -1.
         11   -1    0    0    0    0 -0.00000000000E+00 -0.00000000000E+00 -0.45593999997E+02  0.45594000000E+02  0.51100000000E-03 0.  1.
    9900012    2    1    2    0    0  0.40141543274E+02 -0.46680874591E+01 -0.44754997136E+01  0.50528872677E+02  0.30000038989E+02 0.  0.
         12    1    1    2    0    0 -0.40141543274E+02  0.46680874591E+01  0.44754997136E+01  0.40659127323E+02  0.00000000000E+00 0. -1.
         11    1    3    3    0    0  0.84789455285E+01  0.59907244170E+01  0.65432069916E+01  0.12271709511E+02  0.51100000000E-03 0. -1.
        -11    1    3    3    0    0  0.29423658395E+02 -0.13324507220E+02 -0.12278369243E+02  0.34555065006E+02  0.51100000000E-03 0.  1.
        -12    1    3    3    0    0  0.22389393506E+01  0.26656953442E+01  0.12596625376E+01  0.37020981609E+01  0.00000000000E+00 0.  1.
</event>
<event>
 7    1  0.2973028E-011  0.5052886E+02  0.7816164E-02  0.1300439E+00
        -11   -1    0    0    0    0  0.00000000000E+00  0.00000000000E+00  0.45593999997E+02  0.45594000000E+02  0.51100000000E-03 0.  1.
         11   -1    0    0    0    0 -0.00000000000E+00 -0.00000000000E+00 -0.45593999997E+02  0.45594000000E+02  0.51100000000E-03 0. -1.
    9900012    2    1    2    0    0  0.80784642234E+01 -0.20334952978E+01  0.39796597450E+02  0.50528857659E+02  0.29999993339E+02 0.  0.
         12    1    1    2    0    0 -0.80784642234E+01  0.20334952978E+01 -0.39796597450E+02  0.40659142341E+02  0.00000000000E+00 0. -1.
         11    1    3    3    0    0  0.83858081599E+01  0.96106231333E+01  0.32082371442E+02  0.34524837626E+02  0.51100000000E-03 0. -1.
        -11    1    3    3    0    0 -0.35567177416E+01 -0.57115784024E+01  0.60258824685E+01  0.90323656218E+01  0.51100000000E-03 0.  1.
         12    1    3    3    0    0  0.32493738051E+01 -0.59325400287E+01  0.16883435397E+01  0.69716544110E+01  0.00000000000E+00 0. -1.
</event>
<event>
 7    1  0.2973028E-011  0.5052886E+02  0.7816164E-02  0.1300439E+00
        -11   -1    0    0    0    0  0.00000000000E+00  0.00000000000E+00  0.45593999997E+02  0.45594000000E+02  0.51100000000E-03 0.  1.
         11   -1    0    0    0    0 -0.00000000000E+00 -0.00000000000E+00 -0.45593999997E+02  0.45594000000E+02  0.51100000000E-03 0. -1.
    9900012    2    1    2    0    0  0.14999868063E+02  0.29763057360E+02  0.23287979352E+02  0.50528860712E+02  0.30000002622E+02 0.  0.
         12    1    1    2    0    0 -0.14999868063E+02 -0.29763057360E+02 -0.23287979352E+02  0.40659139288E+02  0.00000000000E+00 0. -1.
         11    1    3    3    0    0 -0.14356000177E+01  0.20170944370E+02  0.12569594777E+02  0.23810137701E+02  0.51100000000E-03 0.  1.
        -11    1    3    3    0    0  0.16665686276E+02  0.93987712356E+01  0.34472009203E+01  0.19441326967E+02  0.51100000000E-03 0. -1.
        -12    1    3    3    0    0 -0.23021819577E+00  0.19334175369E+00  0.72711836546E+01  0.72773960447E+01  0.00000000000E+00 0.  1.
</event>
<event>
 7    1  0.2973028E-011  0.5052888E+02  0.7816164E-02  0.1300439E+00
        -11   -1    0    0    0    0  0.00000000000E+00  0.00000000000E+00  0.45593999997E+02  0.45594000000E+02  0.51100000000E-03 0. -1.
         11   -1    0    0    0    0 -0.00000000000E+00 -0.00000000000E+00 -0.45593999997E+02  0.45594000000E+02  0.51100000000E-03 0.  1.
    9900012    2    1    2    0    0  0.18018656594E+02  0.14287942578E+02 -0.33531275793E+02  0.50528883619E+02  0.30000072250E+02 0.  0.
         12    1    1    2    0    0 -0.18018656594E+02 -0.14287942578E+02  0.33531275793E+02  0.40659116381E+02  0.00000000000E+00 0. -1.
         11    1    3    3    0    0 -0.41033723018E+01  0.41824057251E+01 -0.15215429463E+01  0.60535340996E+01  0.51100000000E-03 0. -1.
        -11    1    3    3    0    0  0.23481245513E+02  0.10156721335E+02 -0.20225455887E+02  0.32612834057E+02  0.51100000000E-03 0.  1.
        -12    1    3    3    0    0 -0.13592166166E+01 -0.51184482871E-01 -0.11784276959E+02  0.11862515463E+02  0.00000000000E+00 0.  1.
</event>
<event>
 7    1  0.2973028E-011  0.5052885E+02  0.7816164E-02  0.1300439E+00
        -11   -1    0    0    0    0  0.00000000000E+00  0.00000000000E+00  0.45593999997E+02  0.45594000000E+02  0.51100000000E-03 0. -1.
         11   -1    0    0    0    0 -0.00000000000E+00 -0.00000000000E+00 -0.45593999997E+02  0.45594000000E+02  0.51100000000E-03 0.  1.
    9900012    2    1    2    0    0  0.94384685534E+01 -0.29682319215E+02  0.26135061789E+02  0.50528853214E+02  0.29999979831E+02 0.  0.
         12    1    1    2    0    0 -0.94384685534E+01  0.29682319215E+02 -0.26135061789E+02  0.40659146786E+02  0.00000000000E+00 0. -1.
         11    1    3    3    0    0  0.40563789829E+01 -0.57984563096E+01 -0.44913529732E+01  0.83814412734E+01  0.51100000000E-03 0. -1.
        -11    1    3    3    0    0 -0.13156065684E+01 -0.21209596455E+02  0.25998965593E+02  0.33578624371E+02  0.51100000000E-03 0.  1.
        -12    1    3    3    0    0  0.66976961389E+01 -0.26742664498E+01  0.46274491690E+01  0.85687875703E+01  0.00000000000E+00 0.  1.
</event>
<event>
 7    1  0.2973028E-011  0.5052886E+02  0.7816164E-02  0.1300439E+00
        -11   -1    0    0    0    0  0.00000000000E+00  0.00000000000E+00  0.45593999997E+02  0.45594000000E+02  0.51100000000E-03 0.  1.
         11   -1    0    0    0    0 -0.00000000000E+00 -0.00000000000E+00 -0.45593999997E+02  0.45594000000E+02  0.51100000000E-03 0. -1.
    9900012    2    1    2    0    0 -0.40185915900E+02  0.61424099667E+01 -0.72689594752E+00  0.50528863086E+02  0.30000009836E+02 0.  0.
         12    1    1    2    0    0  0.40185915900E+02 -0.61424099667E+01  0.72689594752E+00  0.40659136914E+02  0.00000000000E+00 0. -1.
         11    1    3    3    0    0  0.23657189621E+01 -0.55415626206E+01  0.14508655712E+01  0.61976248396E+01  0.51100000000E-03 0. -1.
        -11    1    3    3    0    0 -0.85368756306E+01  0.36890170259E+01  0.27135208702E+00  0.93038016083E+01  0.51100000000E-03 0.  1.
         12    1    3    3    0    0 -0.34014759231E+02  0.79949555613E+01 -0.24491136058E+01  0.35027436638E+02  0.00000000000E+00 0. -1.
</event>
<event>
 7    1  0.2973028E-011  0.5052881E+02  0.7816164E-02  0.1300439E+00
        -11   -1    0    0    0    0  0.00000000000E+00  0.00000000000E+00  0.45593999997E+02  0.45594000000E+02  0.51100000000E-03 0.  1.
         11   -1    0    0    0    0 -0.00000000000E+00 -0.00000000000E+00 -0.45593999997E+02  0.45594000000E+02  0.51100000000E-03 0. -1.
    9900012    2    1    2    0    0 -0.39438498990E+02  0.15774552466E+01 -0.97614438042E+01  0.50528814657E+02  0.29999862630E+02 0.  0.
         12    1    1    2    0    0  0.39438498990E+02 -0.15774552466E+01  0.97614438042E+01  0.40659185343E+02  0.00000000000E+00 0. -1.
         11    1    3    3    0    0 -0.33527544060E+02 -0.51243647699E+01 -0.84184864054E+01  0.34946047539E+02  0.51100000000E-03 0. -1.
        -11    1    3    3    0    0 -0.63732116380E+01  0.43651318180E+01 -0.63748705152E+01  0.10015546751E+02  0.51100000000E-03 0.  1.
         12    1    3    3    0    0  0.46225670760E+00  0.23366881985E+01  0.50319131164E+01  0.55672203668E+01  0.00000000000E+00 0. -1.
</event>
<event>
 7    1  0.2973028E-011  0.5052886E+02  0.7816164E-02  0.1300439E+00
        -11   -1    0    0    0    0  0.00000000000E+00  0.00000000000E+00  0.45593999997E+02  0.45594000000E+02  0.51100000000E-03 0. -1.
         11   -1    0    0    0    0 -0.00000000000E+00 -0.00000000000E+00 -0.45593999997E+02  0.45594000000E+02  0.51100000000E-03 0.  1.
    9900012    2    1    2    0    0  0.36605062758E+02  0.15310710148E+02  0.88779156188E+01  0.50528857725E+02  0.29999993541E+02 0.  0.
         12    1    1    2    0    0 -0.36605062758E+02 -0.15310710148E+02 -0.88779156188E+01  0.40659142275E+02  0.00000000000E+00 0. -1.
         11    1    3    3    0    0  0.73326291889E+01  0.49247240975E+01  0.48166803801E+01  0.10060853264E+02  0.51100000000E-03 0. -1.
        -11    1    3    3    0    0  0.28305267020E+02  0.79822965193E+01  0.12265362598E+02  0.31864467965E+02  0.51100000000E-03 0.  1.
        -12    1    3    3    0    0  0.96716654938E+00  0.24036895317E+01 -0.82041273595E+01  0.86035364955E+01  0.00000000000E+00 0.  1.
</event>
<event>
 7    1  0.2973028E-011  0.5052886E+02  0.7816164E-02  0.1300439E+00
        -11   -1    0    0    0    0  0.00000000000E+00  0.00000000000E+00  0.45593999997E+02  0.45594000000E+02  0.51100000000E-03 0.  1.
         11   -1    0    0    0    0 -0.00000000000E+00 -0.00000000000E+00 -0.45593999997E+02  0.45594000000E+02  0.51100000000E-03 0. -1.
    9900012    2    1    2    0    0  0.36636549296E+02 -0.16851382427E+01  0.17552471102E+02  0.50528859859E+02  0.30000000027E+02 0.  0.
         12    1    1    2    0    0 -0.36636549296E+02  0.16851382427E+01 -0.17552471102E+02  0.40659140141E+02  0.00000000000E+00 0. -1.
         11    1    3    3    0    0 -0.60593883244E+00  0.20970535347E+01 -0.53446618420E+00  0.22473205733E+01  0.51100000000E-03 0. -1.
        -11    1    3    3    0    0  0.21114547918E+02  0.45653942814E+01  0.20718131293E+02  0.29931721021E+02  0.51100000000E-03 0.  1.
        -12    1    3    3    0    0  0.16127940210E+02 -0.83475860588E+01 -0.26311940070E+01  0.18349818265E+02  0.00000000000E+00 0.  1.
</event>
<event>
 7    1  0.2973028E-011  0.5052884E+02  0.7816164E-02  0.1300439E+00
        -11   -1    0    0    0    0  0.00000000000E+00  0.00000000000E+00  0.45593999997E+02  0.45594000000E+02  0.51100000000E-03 0.  1.
         11   -1    0    0    0    0 -0.00000000000E+00 -0.00000000000E+00 -0.45593999997E+02  0.45594000000E+02  0.51100000000E-03 0. -1.
    9900012    2    1    2    0    0  0.47698788314E+00  0.97206025385E+01  0.39477200137E+02  0.50528844059E+02  0.29999952003E+02 0.  0.
         12    1    1    2    0    0 -0.47698788314E+00 -0.97206025385E+01 -0.39477200137E+02  0.40659155941E+02  0.00000000000E+00 0. -1.
         11    1    3    3    0    0 -0.11602619870E+02  0.11280535484E+02  0.20234366222E+02  0.25909474045E+02  0.51100000000E-03 0. -1.
        -11    1    3    3    0    0 -0.50463521276E+00 -0.13209130815E+01  0.67096184003E+01  0.68569998838E+01  0.51100000000E-03 0.  1.
         12    1    3    3    0    0  0.12584242965E+02 -0.23901986422E+00  0.12533215515E+02  0.17762370130E+02  0.00000000000E+00 0. -1.
</event>
<event>
 7    1  0.2973028E-011  0.5052879E+02  0.7816164E-02  0.1300439E+00
        -11   -1    0    0    0    0  0.00000000000E+00  0.00000000000E+00  0.45593999997E+02  0.45594000000E+02  0.51100000000E-03 0. -1.
         11   -1    0    0    0    0 -0.00000000000E+00 -0.00000000000E+00 -0.45593999997E+02  0.45594000000E+02  0.51100000000E-03 0.  1.
    9900012    2    1    2    0    0  0.14128476984E+01 -0.18264834465E+02 -0.36298363929E+02  0.50528787753E+02  0.29999780852E+02 0.  0.
         12    1    1    2    0    0 -0.14128476984E+01  0.18264834465E+02  0.36298363929E+02  0.40659212247E+02  0.00000000000E+00 0. -1.
         11    1    3    3    0    0 -0.91036150394E+01 -0.15034586184E+02 -0.12426980700E+02  0.21525437002E+02  0.51100000000E-03 0. -1.
        -11    1    3    3    0    0  0.58535393645E+01  0.44963344806E+01 -0.94491386304E+01  0.11990294741E+02  0.51100000000E-03 0.  1.
         12    1    3    3    0    0  0.46629233733E+01 -0.77265827607E+01 -0.14422244599E+02  0.17013056010E+02  0.00000000000E+00 0. -1.
</event>
<event>
 7    1  0.2973028E-011  0.5052885E+02  0.7816164E-02  0.1300439E+00
        -11   -1    0    0    0    0  0.00000000000E+00  0.00000000000E+00  0.45593999997E+02  0.45594000000E+02  0.51100000000E-03 0.  1.
         11   -1    0    0    0    0 -0.00000000000E+00 -0.00000000000E+00 -0.45593999997E+02  0.45594000000E+02  0.51100000000E-03 0. -1.
    9900012    2    1    2    0    0 -0.64645559986E+00  0.20393901639E+02  0.35168697409E+02  0.50528850890E+02  0.29999972766E+02 0.  0.
         12    1    1    2    0    0  0.64645559986E+00 -0.20393901639E+02 -0.35168697409E+02  0.40659149110E+02  0.00000000000E+00 0. -1.
         11    1    3    3    0    0 -0.23948811679E+00  0.66053341098E+01 -0.10412639896E+01  0.66911900449E+01  0.51100000000E-03 0. -1.
        -11    1    3    3    0    0  0.66728123079E+01  0.13308142785E+02  0.32681873047E+02  0.35912921276E+02  0.51100000000E-03 0.  1.
        -12    1    3    3    0    0 -0.70797797909E+01  0.48042474477E+00  0.35280883519E+01  0.79247395694E+01  0.00000000000E+00 0.  1.
</event>
<event>
 7    1  0.2973028E-011  0.5052886E+02  0.7816164E-02  0.1300439E+00
        -11   -1    0    0    0    0  0.00000000000E+00  0.00000000000E+00  0.45593999997E+02  0.45594000000E+02  0.51100000000E-03 0.  1.
         11   -1    0    0    0    0 -0.00000000000E+00 -0.00000000000E+00 -0.45593999997E+02  0.45594000000E+02  0.51100000000E-03 0. -1.
    9900012    2    1    2    0    0 -0.31170725806E+02 -0.12102876599E+01  0.26078470810E+02  0.50528861012E+02  0.30000003531E+02 0.  0.
         12    1    1    2    0    0  0.31170725806E+02  0.12102876599E+01 -0.26078470810E+02  0.40659138988E+02  0.00000000000E+00 0. -1.
         11    1    3    3    0    0 -0.95235996454E+01  0.68133371581E+01 -0.41654938458E+01  0.12428670592E+02  0.51100000000E-03 0. -1.
        -11    1    3    3    0    0 -0.11508549977E+02 -0.38069711278E+01  0.17335486670E+02  0.21153223161E+02  0.51100000000E-03 0.  1.
         12    1    3    3    0    0 -0.10138576184E+02 -0.42166536901E+01  0.12908477986E+02  0.16946967259E+02  0.00000000000E+00 0. -1.
</event>
<event>
 7    1  0.2973028E-011  0.5052886E+02  0.7816164E-02  0.1300439E+00
        -11   -1    0    0    0    0  0.00000000000E+00  0.00000000000E+00  0.45593999997E+02  0.45594000000E+02  0.51100000000E-03 0.  1.
         11   -1    0    0    0    0 -0.00000000000E+00 -0.00000000000E+00 -0.45593999997E+02  0.45594000000E+02  0.51100000000E-03 0. -1.
    9900012    2    1    2    0    0 -0.40175028228E+02  0.59669679061E+01  0.18782812923E+01  0.50528861547E+02  0.30000005159E+02 0.  0.
         12    1    1    2    0    0  0.40175028228E+02 -0.59669679061E+01 -0.18782812923E+01  0.40659138453E+02  0.00000000000E+00 0. -1.
         11    1    3    3    0    0 -0.15006675444E+02  0.15544698994E+02 -0.52010662415E+01  0.22223615031E+02  0.51100000000E-03 0. -1.
        -11    1    3    3    0    0 -0.16815830599E+02 -0.54545457353E+01  0.69332350081E+01  0.18989312148E+02  0.51100000000E-03 0.  1.
         12    1    3    3    0    0 -0.83525221842E+01 -0.41231853529E+01  0.14611252564E+00  0.93159343687E+01  0.00000000000E+00 0. -1.
</event>
<event>
 7    1  0.2973028E-011  0.5052886E+02  0.7816164E-02  0.1300439E+00
        -11   -1    0    0    0    0  0.00000000000E+00  0.00000000000E+00  0.45593999997E+02  0.45594000000E+02  0.51100000000E-03 0.  1.
         11   -1    0    0    0    0 -0.00000000000E+00 -0.00000000000E+00 -0.45593999997E+02  0.45594000000E+02  0.51100000000E-03 0. -1.
    9900012    2    1    2    0    0 -0.14733923831E+02 -0.12732438981E+01  0.37874217638E+02  0.50528855602E+02  0.29999987088E+02 0.  0.
         12    1    1    2    0    0  0.14733923831E+02  0.12732438981E+01 -0.37874217638E+02  0.40659144398E+02  0.00000000000E+00 0. -1.
         11    1    3    3    0    0 -0.16532463820E+01 -0.92249233972E+01  0.98066662762E+01  0.13564775671E+02  0.51100000000E-03 0. -1.
        -11    1    3    3    0    0 -0.12619060649E+02  0.13109238623E+02  0.17747789536E+02  0.25418042069E+02  0.51100000000E-03 0.  1.
        -12    1    3    3    0    0 -0.46161680014E+00 -0.51575591239E+01  0.10319761825E+02  0.11546037862E+02  0.00000000000E+00 0.  1.
</event>
<event>
 7    1  0.2973028E-011  0.5052887E+02  0.7816164E-02  0.1300439E+00
        -11   -1    0    0    0    0  0.00000000000E+00  0.00000000000E+00  0.45593999997E+02  0.45594000000E+02  0.51100000000E-03 0.  1.
         11   -1    0    0    0    0 -0.00000000000E+00 -0.00000000000E+00 -0.45593999997E+02  0.45594000000E+02  0.51100000000E-03 0. -1.
    9900012    2    1    2    0    0  0.26668816823E+02 -0.27747259017E+02  0.13115981216E+02  0.50528866500E+02  0.30000020213E+02 0.  0.
         12    1    1    2    0    0 -0.26668816823E+02  0.27747259017E+02 -0.13115981216E+02  0.40659133500E+02  0.00000000000E+00 0. -1.
         11    1    3    3    0    0  0.25617334738E+02 -0.10689065236E+02  0.91822253355E+01  0.29237257345E+02  0.51100000000E-03 0. -1.
        -11    1    3    3    0    0 -0.52712843080E+01 -0.87552843062E+01  0.36486252401E+01  0.10851447274E+02  0.51100000000E-03 0.  1.
         12    1    3    3    0    0  0.63227663937E+01 -0.83029094748E+01  0.28513064031E+00  0.10440161881E+02  0.00000000000E+00 0. -1.
</event>
<event>
 7    1  0.2973028E-011  0.5052885E+02  0.7816164E-02  0.1300439E+00
        -11   -1    0    0    0    0  0.00000000000E+00  0.00000000000E+00  0.45593999997E+02  0.45594000000E+02  0.51100000000E-03 0.  1.
         11   -1    0    0    0    0 -0.00000000000E+00 -0.00000000000E+00 -0.45593999997E+02  0.45594000000E+02  0.51100000000E-03 0. -1.
    9900012    2    1    2    0    0 -0.14818764481E+02 -0.91381493363E+01  0.36743225300E+02  0.50528853926E+02  0.29999981994E+02 0.  0.
         12    1    1    2    0    0  0.14818764481E+02  0.91381493363E+01 -0.36743225300E+02  0.40659146074E+02  0.00000000000E+00 0. -1.
         11    1    3    3    0    0 -0.11311783324E+02  0.32887458200E+01  0.20496448212E+02  0.23640572764E+02  0.51100000000E-03 0.  1.
        -11    1    3    3    0    0  0.48902899440E+01 -0.11204879007E+02  0.12882019011E+02  0.17759804710E+02  0.51100000000E-03 0. -1.
        -12    1    3    3    0    0 -0.83972711013E+01 -0.12220161494E+01  0.33647580766E+01  0.91284764519E+01  0.00000000000E+00 0.  1.
</event>
<event>
 7    1  0.2973028E-011  0.5052886E+02  0.7816164E-02  0.1300439E+00
        -11   -1    0    0    0    0  0.00000000000E+00  0.00000000000E+00  0.45593999997E+02  0.45594000000E+02  0.51100000000E-03 0. -1.
         11   -1    0    0    0    0 -0.00000000000E+00 -0.00000000000E+00 -0.45593999997E+02  0.45594000000E+02  0.51100000000E-03 0.  1.
    9900012    2    1    2    0    0  0.13683413041E+02  0.29973166438E+02 -0.23823078940E+02  0.50528860942E+02  0.30000003320E+02 0.  0.
         12    1    1    2    0    0 -0.13683413041E+02 -0.29973166438E+02  0.23823078940E+02  0.40659139058E+02  0.00000000000E+00 0. -1.
         11    1    3    3    0    0  0.93607259051E+01  0.79876163435E+01  0.54196600691E+01  0.13446111700E+02  0.51100000000E-03 0. -1.
        -11    1    3    3    0    0  0.17126650790E+01  0.59561818634E+01 -0.11252912421E+02  0.12846686821E+02  0.51100000000E-03 0.  1.
         12    1    3    3    0    0  0.26100220571E+01  0.16029368231E+02 -0.17989826588E+02  0.24236062421E+02  0.00000000000E+00 0. -1.
</event>
<event>
 7    1  0.2973028E-011  0.5052886E+02  0.7816164E-02  0.1300439E+00
        -11   -1    0    0    0    0  0.00000000000E+00  0.00000000000E+00  0.45593999997E+02  0.45594000000E+02  0.51100000000E-03 0. -1.
         11   -1    0    0    0    0 -0.00000000000E+00 -0.00000000000E+00 -0.45593999997E+02  0.45594000000E+02  0.51100000000E-03 0.  1.
    9900012    2    1    2    0    0  0.26186943342E+02  0.13274713063E+02 -0.28128127358E+02  0.50528861332E+02  0.30000004506E+02 0.  0.
         12    1    1    2    0    0 -0.26186943342E+02 -0.13274713063E+02  0.28128127358E+02  0.40659138668E+02  0.00000000000E+00 0. -1.
         11    1    3    3    0    0  0.12565475142E+02 -0.12855927142E+01 -0.21456745674E+01  0.12812019115E+02  0.51100000000E-03 0. -1.
        -11    1    3    3    0    0  0.56667722561E+01  0.17737699027E+02 -0.19596416054E+02  0.27032532197E+02  0.51100000000E-03 0.  1.
        -12    1    3    3    0    0  0.79546959434E+01 -0.31773932495E+01 -0.63860367366E+01  0.10684310021E+02  0.00000000000E+00 0.  1.
</event>
<event>
 7    1  0.2973028E-011  0.5052886E+02  0.7816164E-02  0.1300439E+00
        -11   -1    0    0    0    0  0.00000000000E+00  0.00000000000E+00  0.45593999997E+02  0.45594000000E+02  0.51100000000E-03 0.  1.
         11   -1    0    0    0    0 -0.00000000000E+00 -0.00000000000E+00 -0.45593999997E+02  0.45594000000E+02  0.51100000000E-03 0. -1.
    9900012    2    1    2    0    0 -0.16838113982E+02 -0.35168765882E+02  0.11523947110E+02  0.50528861628E+02  0.30000005405E+02 0.  0.
         12    1    1    2    0    0  0.16838113982E+02  0.35168765882E+02 -0.11523947110E+02  0.40659138372E+02  0.00000000000E+00 0. -1.
         11    1    3    3    0    0  0.28035098257E+01 -0.17344569901E+02 -0.12790314537E+01  0.17616177058E+02  0.51100000000E-03 0. -1.
        -11    1    3    3    0    0 -0.65939963788E+01 -0.48707672975E+01  0.11970055470E+02  0.14508183571E+02  0.51100000000E-03 0.  1.
         12    1    3    3    0    0 -0.13047627429E+02 -0.12953428683E+02  0.83292309421E+00  0.18404501000E+02  0.00000000000E+00 0. -1.
</event>
<event>
 7    1  0.2973028E-011  0.5052886E+02  0.7816164E-02  0.1300439E+00
        -11   -1    0    0    0    0  0.00000000000E+00  0.00000000000E+00  0.45593999997E+02  0.45594000000E+02  0.51100000000E-03 0.  1.
         11   -1    0    0    0    0 -0.00000000000E+00 -0.00000000000E+00 -0.45593999997E+02  0.45594000000E+02  0.51100000000E-03 0. -1.
    9900012    2    1    2    0    0 -0.34582587621E+02  0.42025574794E+01  0.20965428734E+02  0.50528855175E+02  0.29999985790E+02 0.  0.
         12    1    1    2    0    0  0.34582587621E+02 -0.42025574794E+01 -0.20965428734E+02  0.40659144825E+02  0.00000000000E+00 0. -1.
         11    1    3    3    0    0 -0.58078515840E+01  0.31701934310E+00 -0.75301469976E+01  0.95149753206E+01  0.51100000000E-03 0. -1.
        -11    1    3    3    0    0 -0.21917502706E+02  0.49321108907E+01  0.20319093242E+02  0.30291388102E+02  0.51100000000E-03 0.  1.
         12    1    3    3    0    0 -0.68572333306E+01 -0.10465727544E+01  0.81764824889E+01  0.10722491752E+02  0.00000000000E+00 0. -1.
</event>
<event>
 7    1  0.2973028E-011  0.5052886E+02  0.7816164E-02  0.1300439E+00
        -11   -1    0    0    0    0  0.00000000000E+00  0.00000000000E+00  0.45593999997E+02  0.45594000000E+02  0.51100000000E-03 0.  1.
         11   -1    0    0    0    0 -0.00000000000E+00 -0.00000000000E+00 -0.45593999997E+02  0.45594000000E+02  0.51100000000E-03 0. -1.
    9900012    2    1    2    0    0 -0.36440280341E+02 -0.45418467440E+01  0.17454030312E+02  0.50528861085E+02  0.30000003755E+02 0.  0.
         12    1    1    2    0    0  0.36440280341E+02  0.45418467440E+01 -0.17454030312E+02  0.40659138915E+02  0.00000000000E+00 0. -1.
         11    1    3    3    0    0 -0.13763562242E+02 -0.70517109787E+01 -0.15164113392E+01  0.15539040412E+02  0.51100000000E-03 0. -1.
        -11    1    3    3    0    0 -0.23344866951E+02  0.31846203612E+00  0.21385430998E+02  0.31661031099E+02  0.51100000000E-03 0.  1.
        -12    1    3    3    0    0  0.66814885156E+00  0.21914021985E+01 -0.24149893473E+01  0.33287895744E+01  0.00000000000E+00 0.  1.
</event>
<event>
 7    1  0.2973028E-011  0.5052886E+02  0.7816164E-02  0.1300439E+00
        -11   -1    0    0    0    0  0.00000000000E+00  0.00000000000E+00  0.45593999997E+02  0.45594000000E+02  0.51100000000E-03 0.  1.
         11   -1    0    0    0    0 -0.00000000000E+00 -0.00000000000E+00 -0.45593999997E+02  0.45594000000E+02  0.51100000000E-03 0. -1.
    9900012    2    1    2    0    0 -0.28545263947E+02 -0.21542771918E+02  0.19345349633E+02  0.50528859968E+02  0.30000000359E+02 0.  0.
         12    1    1    2    0    0  0.28545263947E+02  0.21542771918E+02 -0.19345349633E+02  0.40659140032E+02  0.00000000000E+00 0. -1.
         11    1    3    3    0    0 -0.45229650319E+00  0.20481970043E-01  0.21595888499E+01  0.22065393492E+01  0.51100000000E-03 0. -1.
        -11    1    3    3    0    0 -0.22634873759E+02 -0.20529816341E+02  0.24479337123E+02  0.39154167279E+02  0.51100000000E-03 0.  1.
        -12    1    3    3    0    0 -0.54580936847E+01 -0.10334375474E+01 -0.72935763398E+01  0.91681533397E+01  0.00000000000E+00 0.  1.
</event>
<event>
 7    1  0.2973028E-011  0.5052886E+02  0.7816164E-02  0.1300439E+00
        -11   -1    0    0    0    0  0.00000000000E+00  0.00000000000E+00  0.45593999997E+02  0.45594000000E+02  0.51100000000E-03 0.  1.
         11   -1    0    0    0    0 -0.00000000000E+00 -0.00000000000E+00 -0.45593999997E+02  0.45594000000E+02  0.51100000000E-03 0. -1.
    9900012    2    1    2    0    0  0.39592687561E+02  0.17165391575E+01  0.90905549375E+01  0.50528860757E+02  0.30000002756E+02 0.  0.
         12    1    1    2    0    0 -0.39592687561E+02 -0.17165391575E+01 -0.90905549375E+01  0.40659139243E+02  0.00000000000E+00 0. -1.
         11    1    3    3    0    0  0.14978861011E+02 -0.41129822838E+01 -0.58802746631E+01  0.16609049667E+02  0.51100000000E-03 0. -1.
        -11    1    3    3    0    0  0.10239088629E+02  0.11066182455E+02  0.63493458828E+01  0.16358897380E+02  0.51100000000E-03 0.  1.
        -12    1    3    3    0    0  0.14374737920E+02 -0.52366610133E+01  0.86214837178E+01  0.17560913710E+02  0.00000000000E+00 0.  1.
</event>
<event>
 7    1  0.2973028E-011  0.5052887E+02  0.7816164E-02  0.1300439E+00
        -11   -1    0    0    0    0  0.00000000000E+00  0.00000000000E+00  0.45593999997E+02  0.45594000000E+02  0.51100000000E-03 0.  1.
         11   -1    0    0    0    0 -0.00000000000E+00 -0.00000000000E+00 -0.45593999997E+02  0.45594000000E+02  0.51100000000E-03 0. -1.
    9900012    2    1    2    0    0  0.22680312534E+02  0.17952009250E+02  0.28574358757E+02  0.50528865834E+02  0.30000018188E+02 0.  0.
         12    1    1    2    0    0 -0.22680312534E+02 -0.17952009250E+02 -0.28574358757E+02  0.40659134166E+02  0.00000000000E+00 0. -1.
         11    1    3    3    0    0  0.14531893439E+02  0.16038536559E+02  0.22860846209E+01  0.21763197491E+02  0.51100000000E-03 0. -1.
        -11    1    3    3    0    0  0.84630468997E+01 -0.10926125736E+01  0.21115575421E+02  0.22774645786E+02  0.51100000000E-03 0.  1.
         12    1    3    3    0    0 -0.31462780463E+00  0.30060852646E+01  0.51726987149E+01  0.59910225562E+01  0.00000000000E+00 0. -1.
</event>
<event>
 7    1  0.2973028E-011  0.5052886E+02  0.7816164E-02  0.1300439E+00
        -11   -1    0    0    0    0  0.00000000000E+00  0.00000000000E+00  0.45593999997E+02  0.45594000000E+02  0.51100000000E-03 0.  1.
         11   -1    0    0    0    0 -0.00000000000E+00 -0.00000000000E+00 -0.45593999997E+02  0.45594000000E+02  0.51100000000E-03 0. -1.
    9900012    2    1    2    0    0  0.15689936286E+02  0.12793187531E+01  0.37488065313E+02  0.50528858371E+02  0.29999995504E+02 0.  0.
         12    1    1    2    0    0 -0.15689936286E+02 -0.12793187531E+01 -0.37488065313E+02  0.40659141629E+02  0.00000000000E+00 0. -1.
         11    1    3    3    0    0  0.15614082741E+02  0.90918263296E+01  0.78838563331E+01  0.19713347681E+02  0.51100000000E-03 0. -1.
        -11    1    3    3    0    0  0.11251486550E+01 -0.60237442988E+01  0.17668948092E+02  0.18701421920E+02  0.51100000000E-03 0.  1.
         12    1    3    3    0    0 -0.10492951094E+01 -0.17887632776E+01  0.11935260887E+02  0.12114088770E+02  0.00000000000E+00 0. -1.
</event>
<event>
 7    1  0.2973028E-011  0.5052887E+02  0.7816164E-02  0.1300439E+00
        -11   -1    0    0    0    0  0.00000000000E+00  0.00000000000E+00  0.45593999997E+02  0.45594000000E+02  0.51100000000E-03 0.  1.
         11   -1    0    0    0    0 -0.00000000000E+00 -0.00000000000E+00 -0.45593999997E+02  0.45594000000E+02  0.51100000000E-03 0. -1.
    9900012    2    1    2    0    0  0.33515150327E+02  0.17328173818E+02  0.15153686875E+02  0.50528866522E+02  0.30000020279E+02 0.  0.
         12    1    1    2    0    0 -0.33515150327E+02 -0.17328173818E+02 -0.15153686875E+02  0.40659133478E+02  0.00000000000E+00 0. -1.
         11    1    3    3    0    0  0.32661907134E+02  0.21221355193E+02  0.11951956070E+02  0.40743040486E+02  0.51100000000E-03 0. -1.
        -11    1    3    3    0    0 -0.35189439716E+01 -0.24346608081E+01  0.19652277610E+00  0.42835921128E+01  0.51100000000E-03 0.  1.
         12    1    3    3    0    0  0.43721871641E+01 -0.14585205669E+01  0.30052080297E+01  0.55022339230E+01  0.00000000000E+00 0. -1.
</event>
<event>
 7    1  0.2973028E-011  0.5052892E+02  0.7816164E-02  0.1300439E+00
        -11   -1    0    0    0    0  0.00000000000E+00  0.00000000000E+00  0.45593999997E+02  0.45594000000E+02  0.51100000000E-03 0.  1.
         11   -1    0    0    0    0 -0.00000000000E+00 -0.00000000000E+00 -0.45593999997E+02  0.45594000000E+02  0.51100000000E-03 0. -1.
    9900012    2    1    2    0    0 -0.13610382127E+02  0.39128983425E+01  0.38113086575E+02  0.50528921760E+02  0.30000188181E+02 0.  0.
         12    1    1    2    0    0  0.13610382127E+02 -0.39128983425E+01 -0.38113086575E+02  0.40659078240E+02  0.00000000000E+00 0. -1.
         11    1    3    3    0    0 -0.59479860500E+00 -0.88055532429E+01  0.52821423587E+01  0.10285552073E+02  0.51100000000E-03 0. -1.
        -11    1    3    3    0    0 -0.31707015176E+01  0.12911603876E+02  0.20946798585E+02  0.24809901935E+02  0.51100000000E-03 0.  1.
        -12    1    3    3    0    0 -0.98448820041E+01 -0.19315229086E+00  0.11884145631E+02  0.15433467752E+02  0.00000000000E+00 0.  1.
</event>
<event>
 7    1  0.2973028E-011  0.5052886E+02  0.7816164E-02  0.1300439E+00
        -11   -1    0    0    0    0  0.00000000000E+00  0.00000000000E+00  0.45593999997E+02  0.45594000000E+02  0.51100000000E-03 0.  1.
         11   -1    0    0    0    0 -0.00000000000E+00 -0.00000000000E+00 -0.45593999997E+02  0.45594000000E+02  0.51100000000E-03 0. -1.
    9900012    2    1    2    0    0  0.31027009714E+02 -0.15357671053E+02  0.21322109945E+02  0.50528858784E+02  0.29999996759E+02 0.  0.
         12    1    1    2    0    0 -0.31027009714E+02  0.15357671053E+02 -0.21322109945E+02  0.40659141216E+02  0.00000000000E+00 0. -1.
         11    1    3    3    0    0  0.16211940140E+02 -0.69503363587E+01  0.66160840593E+00  0.17651399507E+02  0.51100000000E-03 0. -1.
        -11    1    3    3    0    0  0.74800101517E+01  0.54807475715E+00  0.19911639155E+02  0.21277319190E+02  0.51100000000E-03 0.  1.
         12    1    3    3    0    0  0.73350594214E+01 -0.89554094515E+01  0.74886238457E+00  0.11600140087E+02  0.00000000000E+00 0. -1.
</event>
<event>
 7    1  0.2973028E-011  0.5052888E+02  0.7816164E-02  0.1300439E+00
        -11   -1    0    0    0    0  0.00000000000E+00  0.00000000000E+00  0.45593999997E+02  0.45594000000E+02  0.51100000000E-03 0.  1.
         11   -1    0    0    0    0 -0.00000000000E+00 -0.00000000000E+00 -0.45593999997E+02  0.45594000000E+02  0.51100000000E-03 0. -1.
    9900012    2    1    2    0    0 -0.29932347835E+02 -0.13345037153E+01  0.27485225472E+02  0.50528880896E+02  0.30000063970E+02 0.  0.
         12    1    1    2    0    0  0.29932347835E+02  0.13345037153E+01 -0.27485225472E+02  0.40659119104E+02  0.00000000000E+00 0. -1.
         11    1    3    3    0    0 -0.91408671644E+01  0.59826114436E+01  0.62390125292E+01  0.12580634714E+02  0.51100000000E-03 0. -1.
        -11    1    3    3    0    0 -0.19068083243E+02 -0.87155861479E+01  0.25583129284E+02  0.33076422792E+02  0.51100000000E-03 0.  1.
        -12    1    3    3    0    0 -0.17233974270E+01  0.13984709890E+01 -0.43369163406E+01  0.48718233900E+01  0.00000000000E+00 0.  1.
</event>
<event>
 7    1  0.2973028E-011  0.5052887E+02  0.7816164E-02  0.1300439E+00
        -11   -1    0    0    0    0  0.00000000000E+00  0.00000000000E+00  0.45593999997E+02  0.45594000000E+02  0.51100000000E-03 0.  1.
         11   -1    0    0    0    0 -0.00000000000E+00 -0.00000000000E+00 -0.45593999997E+02  0.45594000000E+02  0.51100000000E-03 0. -1.
    9900012    2    1    2    0    0  0.17950109442E+02  0.21777975768E+02  0.29269072022E+02  0.50528865300E+02  0.30000016567E+02 0.  0.
         12    1    1    2    0    0 -0.17950109442E+02 -0.21777975768E+02 -0.29269072022E+02  0.40659134700E+02  0.00000000000E+00 0. -1.
         11    1    3    3    0    0 -0.45393206143E+01  0.71916300293E+01  0.19064357638E+02  0.20875217521E+02  0.51100000000E-03 0. -1.
        -11    1    3    3    0    0  0.19796519777E+02  0.12179795376E+02  0.11347880005E+02  0.25865498092E+02  0.51100000000E-03 0.  1.
         12    1    3    3    0    0  0.26929102788E+01  0.24065503630E+01 -0.11431656212E+01  0.37881496878E+01  0.00000000000E+00 0. -1.
</event>
<event>
 7    1  0.2973028E-011  0.5052893E+02  0.7816164E-02  0.1300439E+00
        -11   -1    0    0    0    0  0.00000000000E+00  0.00000000000E+00  0.45593999997E+02  0.45594000000E+02  0.51100000000E-03 0.  1.
         11   -1    0    0    0    0 -0.00000000000E+00 -0.00000000000E+00 -0.45593999997E+02  0.45594000000E+02  0.51100000000E-03 0. -1.
    9900012    2    1    2    0    0 -0.11956057960E+02  0.31714713845E+02  0.22458612005E+02  0.50528933983E+02  0.30000225334E+02 0.  0.
         12    1    1    2    0    0  0.11956057960E+02 -0.31714713845E+02 -0.22458612005E+02  0.40659066017E+02  0.00000000000E+00 0. -1.
         11    1    3    3    0    0 -0.20523680325E+01  0.17412204023E+01 -0.41921419235E+01  0.49817785176E+01  0.51100000000E-03 0. -1.
        -11    1    3    3    0    0  0.28947226695E+01  0.20330964985E+02  0.11720080464E+02  0.23645038441E+02  0.51100000000E-03 0.  1.
        -12    1    3    3    0    0 -0.12798412597E+02  0.96425284578E+01  0.14930673464E+02  0.21902117024E+02  0.00000000000E+00 0.  1.
</event>
<event>
 7    1  0.2973028E-011  0.5052886E+02  0.7816164E-02  0.1300439E+00
        -11   -1    0    0    0    0  0.00000000000E+00  0.00000000000E+00  0.45593999997E+02  0.45594000000E+02  0.51100000000E-03 0.  1.
         11   -1    0    0    0    0 -0.00000000000E+00 -0.00000000000E+00 -0.45593999997E+02  0.45594000000E+02  0.51100000000E-03 0. -1.
    9900012    2    1    2    0    0  0.86645543299E+01  0.57904793542E+01  0.39300911409E+02  0.50528858464E+02  0.29999995788E+02 0.  0.
         12    1    1    2    0    0 -0.86645543299E+01 -0.57904793542E+01 -0.39300911409E+02  0.40659141536E+02  0.00000000000E+00 0. -1.
         11    1    3    3    0    0 -0.34020278350E+01 -0.92366633552E+00 -0.77089761677E+00  0.36084950168E+01  0.51100000000E-03 0. -1.
        -11    1    3    3    0    0  0.28975742394E+01  0.10592581514E+02  0.32806350734E+02  0.34595597528E+02  0.51100000000E-03 0.  1.
        -12    1    3    3    0    0  0.91690079254E+01 -0.38784358242E+01  0.72654582916E+01  0.12324765919E+02  0.00000000000E+00 0.  1.
</event>
<event>
 7    1  0.2973028E-011  0.5052879E+02  0.7816164E-02  0.1300439E+00
        -11   -1    0    0    0    0  0.00000000000E+00  0.00000000000E+00  0.45593999997E+02  0.45594000000E+02  0.51100000000E-03 0.  1.
         11   -1    0    0    0    0 -0.00000000000E+00 -0.00000000000E+00 -0.45593999997E+02  0.45594000000E+02  0.51100000000E-03 0. -1.
    9900012    2    1    2    0    0  0.26613052628E+02  0.12207443078E+02  0.28211610013E+02  0.50528792233E+02  0.29999794471E+02 0.  0.
         12    1    1    2    0    0 -0.26613052628E+02 -0.12207443078E+02 -0.28211610013E+02  0.40659207767E+02  0.00000000000E+00 0. -1.
         11    1    3    3    0    0 -0.21007463315E-01  0.48113412536E+01  0.83781012165E+00  0.48837866490E+01  0.51100000000E-03 0. -1.
        -11    1    3    3    0    0  0.28578243327E+02  0.13153845041E+01  0.16472441614E+02  0.33011930587E+02  0.51100000000E-03 0.  1.
        -12    1    3    3    0    0 -0.19441832364E+01  0.60807173206E+01  0.10901358278E+02  0.12633074998E+02  0.00000000000E+00 0.  1.
</event>
<event>
 7    1  0.2973028E-011  0.5052886E+02  0.7816164E-02  0.1300439E+00
        -11   -1    0    0    0    0  0.00000000000E+00  0.00000000000E+00  0.45593999997E+02  0.45594000000E+02  0.51100000000E-03 0.  1.
         11   -1    0    0    0    0 -0.00000000000E+00 -0.00000000000E+00 -0.45593999997E+02  0.45594000000E+02  0.51100000000E-03 0. -1.
    9900012    2    1    2    0    0 -0.87658232572E+01  0.36087119266E+02  0.16554333723E+02  0.50528858355E+02  0.29999995457E+02 0.  0.
         12    1    1    2    0    0  0.87658232572E+01 -0.36087119266E+02 -0.16554333723E+02  0.40659141645E+02  0.00000000000E+00 0. -1.
         11    1    3    3    0    0 -0.13199362600E+01  0.12754013122E+02 -0.30135254932E+01  0.13171500242E+02  0.51100000000E-03 0. -1.
        -11    1    3    3    0    0 -0.13237431048E+02  0.93690797016E+01  0.13372087357E+02  0.21019561264E+02  0.51100000000E-03 0.  1.
        -12    1    3    3    0    0  0.57915440509E+01  0.13964026442E+02  0.61957718594E+01  0.16337796849E+02  0.00000000000E+00 0.  1.
</event>
<event>
 7    1  0.2973028E-011  0.5052879E+02  0.7816164E-02  0.1300439E+00
        -11   -1    0    0    0    0  0.00000000000E+00  0.00000000000E+00  0.45593999997E+02  0.45594000000E+02  0.51100000000E-03 0.  1.
         11   -1    0    0    0    0 -0.00000000000E+00 -0.00000000000E+00 -0.45593999997E+02  0.45594000000E+02  0.51100000000E-03 0. -1.
    9900012    2    1    2    0    0 -0.37858857049E+02  0.13940496306E+02 -0.50537576562E+01  0.50528794882E+02  0.29999802524E+02 0.  0.
         12    1    1    2    0    0  0.37858857049E+02 -0.13940496306E+02  0.50537576562E+01  0.40659205118E+02  0.00000000000E+00 0. -1.
         11    1    3    3    0    0 -0.32144579777E+01  0.13320449097E+01  0.46885858498E+01  0.58386574882E+01  0.51100000000E-03 0.  1.
        -11    1    3    3    0    0 -0.36453689500E+02  0.14817467607E+02 -0.11901257144E+02  0.41110445708E+02  0.51100000000E-03 0. -1.
        -12    1    3    3    0    0  0.18092904283E+01 -0.22090162105E+01  0.21589136378E+01  0.35796916861E+01  0.00000000000E+00 0.  1.
</event>
<event>
 7    1  0.2973028E-011  0.5052887E+02  0.7816164E-02  0.1300439E+00
        -11   -1    0    0    0    0  0.00000000000E+00  0.00000000000E+00  0.45593999997E+02  0.45594000000E+02  0.51100000000E-03 0.  1.
         11   -1    0    0    0    0 -0.00000000000E+00 -0.00000000000E+00 -0.45593999997E+02  0.45594000000E+02  0.51100000000E-03 0. -1.
    9900012    2    1    2    0    0 -0.23868118064E+02 -0.31224939140E+02 -0.10415409051E+02  0.50528872736E+02  0.30000039168E+02 0.  0.
         12    1    1    2    0    0  0.23868118064E+02  0.31224939140E+02  0.10415409051E+02  0.40659127264E+02  0.00000000000E+00 0. -1.
         11    1    3    3    0    0 -0.64094964688E+01  0.47934910588E+01 -0.47997545986E+01  0.93325690987E+01  0.51100000000E-03 0. -1.
        -11    1    3    3    0    0 -0.11616890819E+02 -0.15592134090E+02 -0.10904214369E+01  0.19474491443E+02  0.51100000000E-03 0.  1.
         12    1    3    3    0    0 -0.58417307755E+01 -0.20426296108E+02 -0.45252330155E+01  0.21721812194E+02  0.00000000000E+00 0. -1.
</event>
<event>
 7    1  0.2973028E-011  0.5052886E+02  0.7816164E-02  0.1300439E+00
        -11   -1    0    0    0    0  0.00000000000E+00  0.00000000000E+00  0.45593999997E+02  0.45594000000E+02  0.51100000000E-03 0.  1.
         11   -1    0    0    0    0 -0.00000000000E+00 -0.00000000000E+00 -0.45593999997E+02  0.45594000000E+02  0.51100000000E-03 0. -1.
    9900012    2    1    2    0    0  0.15366120520E+02 -0.37279806470E+02 -0.52215096750E+01  0.50528858426E+02  0.29999995671E+02 0.  0.
         12    1    1    2    0    0 -0.15366120520E+02  0.37279806470E+02  0.52215096750E+01  0.40659141574E+02  0.00000000000E+00 0. -1.
         11    1    3    3    0    0  0.24442902095E+01 -0.57207795140E+01  0.79139404420E+01  0.10066395902E+02  0.51100000000E-03 0. -1.
        -11    1    3    3    0    0  0.14161508542E+02 -0.32353372404E+02 -0.95483741803E+01  0.36584976149E+02  0.51100000000E-03 0.  1.
         12    1    3    3    0    0 -0.12396782310E+01  0.79434544817E+00 -0.35870759367E+01  0.38774863743E+01  0.00000000000E+00 0. -1.
</event>
<event>
 7    1  0.2973028E-011  0.5052886E+02  0.7816164E-02  0.1300439E+00
        -11   -1    0    0    0    0  0.00000000000E+00  0.00000000000E+00  0.45593999997E+02  0.45594000000E+02  0.51100000000E-03 0.  1.
         11   -1    0    0    0    0 -0.00000000000E+00 -0.00000000000E+00 -0.45593999997E+02  0.45594000000E+02  0.51100000000E-03 0. -1.
    9900012    2    1    2    0    0  0.30032137761E+01 -0.21210823101E+02  0.34557879808E+02  0.50528863678E+02  0.30000011636E+02 0.  0.
         12    1    1    2    0    0 -0.30032137761E+01  0.21210823101E+02 -0.34557879808E+02  0.40659136322E+02  0.00000000000E+00 0. -1.
         11    1    3    3    0    0  0.11659555213E+02 -0.35034732293E+01  0.18493482385E+01  0.12314204871E+02  0.51100000000E-03 0. -1.
        -11    1    3    3    0    0 -0.39710210463E+01 -0.66245049479E+01  0.12356774270E+02  0.14571991785E+02  0.51100000000E-03 0.  1.
         12    1    3    3    0    0 -0.46853203904E+01 -0.11082844924E+02  0.20351757299E+02  0.23642667022E+02  0.00000000000E+00 0. -1.
</event>
<event>
 7    1  0.2973028E-011  0.5052886E+02  0.7816164E-02  0.1300439E+00
        -11   -1    0    0    0    0  0.00000000000E+00  0.00000000000E+00  0.45593999997E+02  0.45594000000E+02  0.51100000000E-03 0.  1.
         11   -1    0    0    0    0 -0.00000000000E+00 -0.00000000000E+00 -0.45593999997E+02  0.45594000000E+02  0.51100000000E-03 0. -1.
    9900012    2    1    2    0    0 -0.10452872635E+02 -0.26628991410E+02  0.28892911000E+02  0.50528855445E+02  0.29999986612E+02 0.  0.
         12    1    1    2    0    0  0.10452872635E+02  0.26628991410E+02 -0.28892911000E+02  0.40659144555E+02  0.00000000000E+00 0. -1.
         11    1    3    3    0    0  0.44353631771E+01 -0.42684676327E+00  0.45789302232E+01  0.63891507199E+01  0.51100000000E-03 0. -1.
        -11    1    3    3    0    0 -0.19482545681E+02 -0.14745661689E+02  0.17352907528E+02  0.29968775831E+02  0.51100000000E-03 0.  1.
        -12    1    3    3    0    0  0.45943098694E+01 -0.11456482959E+02  0.69610732494E+01  0.14170928895E+02  0.00000000000E+00 0.  1.
</event>
<event>
 7    1  0.2973028E-011  0.5052887E+02  0.7816164E-02  0.1300439E+00
        -11   -1    0    0    0    0  0.00000000000E+00  0.00000000000E+00  0.45593999997E+02  0.45594000000E+02  0.51100000000E-03 0. -1.
         11   -1    0    0    0    0 -0.00000000000E+00 -0.00000000000E+00 -0.45593999997E+02  0.45594000000E+02  0.51100000000E-03 0.  1.
    9900012    2    1    2    0    0  0.37826390261E+02 -0.10573558944E+02 -0.10513275312E+02  0.50528869332E+02  0.30000028820E+02 0.  0.
         12    1    1    2    0    0 -0.37826390261E+02  0.10573558944E+02  0.10513275312E+02  0.40659130668E+02  0.00000000000E+00 0. -1.
         11    1    3    3    0    0  0.17485270669E+02 -0.16931539559E+02 -0.10666756973E+02  0.26574262489E+02  0.51100000000E-03 0.  1.
        -11    1    3    3    0    0  0.20865303580E+02  0.58207510407E+01 -0.19224628308E+01  0.21747135438E+02  0.51100000000E-03 0. -1.
         12    1    3    3    0    0 -0.52418398852E+00  0.53722957467E+00  0.20759444917E+01  0.22074714046E+01  0.00000000000E+00 0. -1.
</event>
<event>
 7    1  0.2973028E-011  0.5052892E+02  0.7816164E-02  0.1300439E+00
        -11   -1    0    0    0    0  0.00000000000E+00  0.00000000000E+00  0.45593999997E+02  0.45594000000E+02  0.51100000000E-03 0.  1.
         11   -1    0    0    0    0 -0.00000000000E+00 -0.00000000000E+00 -0.45593999997E+02  0.45594000000E+02  0.51100000000E-03 0. -1.
    9900012    2    1    2    0    0  0.25077533510E+02 -0.15240074072E+02  0.28142816249E+02  0.50528921664E+02  0.30000187890E+02 0.  0.
         12    1    1    2    0    0 -0.25077533510E+02  0.15240074072E+02 -0.28142816249E+02  0.40659078336E+02  0.00000000000E+00 0. -1.
         11    1    3    3    0    0  0.14659825002E+02  0.75996793860E+01  0.10853951945E+02  0.19760411659E+02  0.51100000000E-03 0. -1.
        -11    1    3    3    0    0  0.10771451564E+02 -0.21402584669E+02  0.16493012811E+02  0.29088043440E+02  0.51100000000E-03 0.  1.
        -12    1    3    3    0    0 -0.35374305562E+00 -0.14371687887E+01  0.79585149265E+00  0.16804665647E+01  0.00000000000E+00 0.  1.
</event>
<event>
 7    1  0.2973028E-011  0.5052886E+02  0.7816164E-02  0.1300439E+00
        -11   -1    0    0    0    0  0.00000000000E+00  0.00000000000E+00  0.45593999997E+02  0.45594000000E+02  0.51100000000E-03 0.  1.
         11   -1    0    0    0    0 -0.00000000000E+00 -0.00000000000E+00 -0.45593999997E+02  0.45594000000E+02  0.51100000000E-03 0. -1.
    9900012    2    1    2    0    0 -0.12295449481E+02  0.33987694623E+02  0.18623214714E+02  0.50528860929E+02  0.30000003279E+02 0.  0.
         12    1    1    2    0    0  0.12295449481E+02 -0.33987694623E+02 -0.18623214714E+02  0.40659139071E+02  0.00000000000E+00 0. -1.
         11    1    3    3    0    0  0.22961424185E+01  0.45526701618E+01  0.15759854515E+02  0.16564180939E+02  0.51100000000E-03 0. -1.
        -11    1    3    3    0    0 -0.41161364709E+01  0.14366669002E+02 -0.17362098715E+01  0.15045204639E+02  0.51100000000E-03 0.  1.
         12    1    3    3    0    0 -0.10475455429E+02  0.15068355459E+02  0.45995700711E+01  0.18919475350E+02  0.00000000000E+00 0. -1.
</event>
<event>
 7    1  0.2973028E-011  0.5052887E+02  0.7816164E-02  0.1300439E+00
        -11   -1    0    0    0    0  0.00000000000E+00  0.00000000000E+00  0.45593999997E+02  0.45594000000E+02  0.51100000000E-03 0.  1.
         11   -1    0    0    0    0 -0.00000000000E+00 -0.00000000000E+00 -0.45593999997E+02  0.45594000000E+02  0.51100000000E-03 0. -1.
    9900012    2    1    2    0    0 -0.80792364882E+01  0.16904015019E+02  0.36085252471E+02  0.50528865333E+02  0.30000016666E+02 0.  0.
         12    1    1    2    0    0  0.80792364882E+01 -0.16904015019E+02 -0.36085252471E+02  0.40659134667E+02  0.00000000000E+00 0. -1.
         11    1    3    3    0    0 -0.37745115596E+00  0.47501625671E+01 -0.25713016079E+00  0.47720676829E+01  0.51100000000E-03 0. -1.
        -11    1    3    3    0    0 -0.70925329355E+01 -0.54229750029E+01  0.19308333658E+02  0.21272621612E+02  0.51100000000E-03 0.  1.
        -12    1    3    3    0    0 -0.60925239669E+00  0.17576827454E+02  0.17034048974E+02  0.24484176039E+02  0.00000000000E+00 0.  1.
</event>
<event>
 7    1  0.2973028E-011  0.5052886E+02  0.7816164E-02  0.1300439E+00
        -11   -1    0    0    0    0  0.00000000000E+00  0.00000000000E+00  0.45593999997E+02  0.45594000000E+02  0.51100000000E-03 0.  1.
         11   -1    0    0    0    0 -0.00000000000E+00 -0.00000000000E+00 -0.45593999997E+02  0.45594000000E+02  0.51100000000E-03 0. -1.
    9900012    2    1    2    0    0  0.24488153112E+02 -0.20744676399E+02  0.24963066512E+02  0.50528856730E+02  0.29999990518E+02 0.  0.
         12    1    1    2    0    0 -0.24488153112E+02  0.20744676399E+02 -0.24963066512E+02  0.40659143270E+02  0.00000000000E+00 0. -1.
         11    1    3    3    0    0  0.94839027589E+00 -0.11277635184E+02 -0.10057662669E+01  0.11362044952E+02  0.51100000000E-03 0. -1.
        -11    1    3    3    0    0  0.16371331178E+02 -0.38762580376E+01  0.24847047331E+02  0.30007026215E+02  0.51100000000E-03 0.  1.
         12    1    3    3    0    0  0.71684316581E+01 -0.55907831773E+01  0.11217854478E+01  0.91597855632E+01  0.00000000000E+00 0. -1.
</event>
<event>
 7    1  0.2973028E-011  0.5052886E+02  0.7816164E-02  0.1300439E+00
        -11   -1    0    0    0    0  0.00000000000E+00  0.00000000000E+00  0.45593999997E+02  0.45594000000E+02  0.51100000000E-03 0. -1.
         11   -1    0    0    0    0 -0.00000000000E+00 -0.00000000000E+00 -0.45593999997E+02  0.45594000000E+02  0.51100000000E-03 0.  1.
    9900012    2    1    2    0    0  0.16844232218E+02 -0.14496410116E+02 -0.34048372309E+02  0.50528859303E+02  0.29999998338E+02 0.  0.
         12    1    1    2    0    0 -0.16844232218E+02  0.14496410116E+02  0.34048372309E+02  0.40659140697E+02  0.00000000000E+00 0. -1.
         11    1    3    3    0    0  0.13194072195E+02  0.23292944184E+01 -0.22454137279E+02  0.26147608586E+02  0.51100000000E-03 0. -1.
        -11    1    3    3    0    0  0.64542148125E+01 -0.11276271120E+02 -0.22934512091E+01  0.13193600643E+02  0.51100000000E-03 0.  1.
        -12    1    3    3    0    0 -0.28040547892E+01 -0.55494334143E+01 -0.93007838212E+01  0.11187650074E+02  0.00000000000E+00 0.  1.
</event>
<event>
 7    1  0.2973028E-011  0.5052887E+02  0.7816164E-02  0.1300439E+00
        -11   -1    0    0    0    0  0.00000000000E+00  0.00000000000E+00  0.45593999997E+02  0.45594000000E+02  0.51100000000E-03 0. -1.
         11   -1    0    0    0    0 -0.00000000000E+00 -0.00000000000E+00 -0.45593999997E+02  0.45594000000E+02  0.51100000000E-03 0.  1.
    9900012    2    1    2    0    0  0.12592072626E+02 -0.21709692105E+02 -0.31988968031E+02  0.50528866954E+02  0.30000021595E+02 0.  0.
         12    1    1    2    0    0 -0.12592072626E+02  0.21709692105E+02  0.31988968031E+02  0.40659133046E+02  0.00000000000E+00 0. -1.
         11    1    3    3    0    0  0.13720647719E+02 -0.39998491234E+01 -0.28414838875E+01  0.14571513229E+02  0.51100000000E-03 0.  1.
        -11    1    3    3    0    0 -0.10523329133E+01 -0.18131853753E+02 -0.20860216361E+02  0.27658997668E+02  0.51100000000E-03 0. -1.
        -12    1    3    3    0    0 -0.76242179541E-01  0.42201077197E+00 -0.82872677828E+01  0.82983560580E+01  0.00000000000E+00 0.  1.
</event>
<event>
 7    1  0.2973028E-011  0.5052886E+02  0.7816164E-02  0.1300439E+00
        -11   -1    0    0    0    0  0.00000000000E+00  0.00000000000E+00  0.45593999997E+02  0.45594000000E+02  0.51100000000E-03 0. -1.
         11   -1    0    0    0    0 -0.00000000000E+00 -0.00000000000E+00 -0.45593999997E+02  0.45594000000E+02  0.51100000000E-03 0.  1.
    9900012    2    1    2    0    0  0.65992257500E+00 -0.26495693057E+02 -0.30833562072E+02  0.50528858365E+02  0.29999995487E+02 0.  0.
         12    1    1    2    0    0 -0.65992257500E+00  0.26495693057E+02  0.30833562072E+02  0.40659141635E+02  0.00000000000E+00 0. -1.
         11    1    3    3    0    0 -0.10904670355E+01  0.49464011465E+01  0.91101279511E+00  0.51464499640E+01  0.51100000000E-03 0. -1.
        -11    1    3    3    0    0  0.63826405272E+00 -0.31238897391E+02 -0.31080640981E+02  0.44071332352E+02  0.51100000000E-03 0.  1.
         12    1    3    3    0    0  0.11121255578E+01 -0.20319681242E+00 -0.66393388668E+00  0.13110760492E+01  0.00000000000E+00 0. -1.
</event>
<event>
 7    1  0.2973028E-011  0.5052887E+02  0.7816164E-02  0.1300439E+00
        -11   -1    0    0    0    0  0.00000000000E+00  0.00000000000E+00  0.45593999997E+02  0.45594000000E+02  0.51100000000E-03 0. -1.
         11   -1    0    0    0    0 -0.00000000000E+00 -0.00000000000E+00 -0.45593999997E+02  0.45594000000E+02  0.51100000000E-03 0.  1.
    9900012    2    1    2    0    0  0.28171523127E+02  0.15502163076E+02 -0.24883990039E+02  0.50528871436E+02  0.30000035217E+02 0.  0.
         12    1    1    2    0    0 -0.28171523127E+02 -0.15502163076E+02  0.24883990039E+02  0.40659128564E+02  0.00000000000E+00 0. -1.
         11    1    3    3    0    0  0.11533612246E+02 -0.86287885401E+00 -0.15011462097E+02  0.18950270866E+02  0.51100000000E-03 0.  1.
        -11    1    3    3    0    0  0.90049386960E+01  0.32307917832E+01  0.45836530026E+01  0.10608336890E+02  0.51100000000E-03 0. -1.
        -12    1    3    3    0    0  0.76329721850E+01  0.13134250147E+02 -0.14456180944E+02  0.20970263680E+02  0.00000000000E+00 0.  1.
</event>
<event>
 7    1  0.2973028E-011  0.5052884E+02  0.7816164E-02  0.1300439E+00
        -11   -1    0    0    0    0  0.00000000000E+00  0.00000000000E+00  0.45593999997E+02  0.45594000000E+02  0.51100000000E-03 0.  1.
         11   -1    0    0    0    0 -0.00000000000E+00 -0.00000000000E+00 -0.45593999997E+02  0.45594000000E+02  0.51100000000E-03 0. -1.
    9900012    2    1    2    0    0 -0.27753146733E+02  0.13714092354E+02  0.26360077097E+02  0.50528841779E+02  0.29999945071E+02 0.  0.
         12    1    1    2    0    0  0.27753146733E+02 -0.13714092354E+02 -0.26360077097E+02  0.40659158221E+02  0.00000000000E+00 0. -1.
         11    1    3    3    0    0 -0.11277433033E+02 -0.78122527809E+01  0.78280464773E+01  0.15795255656E+02  0.51100000000E-03 0. -1.
        -11    1    3    3    0    0 -0.47781662450E+01  0.15175343893E+02  0.82990444227E+01  0.17944249038E+02  0.51100000000E-03 0.  1.
        -12    1    3    3    0    0 -0.11697547456E+02  0.63510012421E+01  0.10232986197E+02  0.16789337085E+02  0.00000000000E+00 0.  1.
</event>
<event>
 7    1  0.2973028E-011  0.5052889E+02  0.7816164E-02  0.1300439E+00
        -11   -1    0    0    0    0  0.00000000000E+00  0.00000000000E+00  0.45593999997E+02  0.45594000000E+02  0.51100000000E-03 0.  1.
         11   -1    0    0    0    0 -0.00000000000E+00 -0.00000000000E+00 -0.45593999997E+02  0.45594000000E+02  0.51100000000E-03 0. -1.
    9900012    2    1    2    0    0 -0.12497420168E+02  0.20230020379E+02  0.32980660285E+02  0.50528890464E+02  0.30000093055E+02 0.  0.
         12    1    1    2    0    0  0.12497420168E+02 -0.20230020379E+02 -0.32980660285E+02  0.40659109536E+02  0.00000000000E+00 0. -1.
         11    1    3    3    0    0  0.67766867681E+00 -0.47021095024E+01  0.14581895959E+01  0.49694452172E+01  0.51100000000E-03 0. -1.
        -11    1    3    3    0    0 -0.10221379797E+02  0.14881622538E+02  0.78769433893E+01  0.19697348343E+02  0.51100000000E-03 0.  1.
         12    1    3    3    0    0 -0.29537090479E+01  0.10050507343E+02  0.23645527300E+02  0.25862096904E+02  0.00000000000E+00 0. -1.
</event>
<event>
 7    1  0.2973028E-011  0.5052886E+02  0.7816164E-02  0.1300439E+00
        -11   -1    0    0    0    0  0.00000000000E+00  0.00000000000E+00  0.45593999997E+02  0.45594000000E+02  0.51100000000E-03 0.  1.
         11   -1    0    0    0    0 -0.00000000000E+00 -0.00000000000E+00 -0.45593999997E+02  0.45594000000E+02  0.51100000000E-03 0. -1.
    9900012    2    1    2    0    0 -0.19503544020E+02 -0.13655118562E+02  0.32959294722E+02  0.50528860796E+02  0.30000002875E+02 0.  0.
         12    1    1    2    0    0  0.19503544020E+02  0.13655118562E+02 -0.32959294722E+02  0.40659139204E+02  0.00000000000E+00 0. -1.
         11    1    3    3    0    0 -0.73639923960E+01 -0.21797441524E+01 -0.13517677744E+01  0.77978807990E+01  0.51100000000E-03 0. -1.
        -11    1    3    3    0    0 -0.24217984597E+01 -0.14897891261E+02  0.21961433579E+02  0.26648017505E+02  0.51100000000E-03 0.  1.
        -12    1    3    3    0    0 -0.97177531641E+01  0.34225168511E+01  0.12349628916E+02  0.16082962492E+02  0.00000000000E+00 0.  1.
</event>
<event>
 7    1  0.2973028E-011  0.5052886E+02  0.7816164E-02  0.1300439E+00
        -11   -1    0    0    0    0  0.00000000000E+00  0.00000000000E+00  0.45593999997E+02  0.45594000000E+02  0.51100000000E-03 0. -1.
         11   -1    0    0    0    0 -0.00000000000E+00 -0.00000000000E+00 -0.45593999997E+02  0.45594000000E+02  0.51100000000E-03 0.  1.
    9900012    2    1    2    0    0  0.15838051336E+01  0.37786776064E+02 -0.14927044580E+02  0.50528861496E+02  0.30000005003E+02 0.  0.
         12    1    1    2    0    0 -0.15838051336E+01 -0.37786776064E+02  0.14927044580E+02  0.40659138504E+02  0.00000000000E+00 0. -1.
         11    1    3    3    0    0 -0.39858641091E+01  0.34424800459E+01  0.53611640197E+01  0.75153084747E+01  0.51100000000E-03 0. -1.
        -11    1    3    3    0    0  0.52953550817E+01  0.34821491671E+02 -0.21787891462E+02  0.41416051022E+02  0.51100000000E-03 0.  1.
        -12    1    3    3    0    0  0.27431416097E+00 -0.47719565316E+00  0.14996828620E+01  0.15975019990E+01  0.00000000000E+00 0.  1.
</event>
<event>
 7    1  0.2973028E-011  0.5052886E+02  0.7816164E-02  0.1300439E+00
        -11   -1    0    0    0    0  0.00000000000E+00  0.00000000000E+00  0.45593999997E+02  0.45594000000E+02  0.51100000000E-03 0.  1.
         11   -1    0    0    0    0 -0.00000000000E+00 -0.00000000000E+00 -0.45593999997E+02  0.45594000000E+02  0.51100000000E-03 0. -1.
    9900012    2    1    2    0    0  0.34925583602E+02  0.74020679704E+01  0.19457088928E+02  0.50528864375E+02  0.30000013756E+02 0.  0.
         12    1    1    2    0    0 -0.34925583602E+02 -0.74020679704E+01 -0.19457088928E+02  0.40659135625E+02  0.00000000000E+00 0. -1.
         11    1    3    3    0    0  0.16911264808E+02 -0.14878328856E+01  0.17033662187E+02  0.24048912072E+02  0.51100000000E-03 0. -1.
        -11    1    3    3    0    0  0.15234040085E+02  0.12101025832E+02  0.65790982121E+01  0.20537656562E+02  0.51100000000E-03 0.  1.
         12    1    3    3    0    0  0.27802787090E+01 -0.32111249763E+01 -0.41556714703E+01  0.59422957417E+01  0.00000000000E+00 0. -1.
</event>
<event>
 7    1  0.2973028E-011  0.5052886E+02  0.7816164E-02  0.1300439E+00
        -11   -1    0    0    0    0  0.00000000000E+00  0.00000000000E+00  0.45593999997E+02  0.45594000000E+02  0.51100000000E-03 0.  1.
         11   -1    0    0    0    0 -0.00000000000E+00 -0.00000000000E+00 -0.45593999997E+02  0.45594000000E+02  0.51100000000E-03 0. -1.
    9900012    2    1    2    0    0 -0.73959540342E+01  0.21387978375E+02  0.33778984419E+02  0.50528861502E+02  0.30000005021E+02 0.  0.
         12    1    1    2    0    0  0.73959540342E+01 -0.21387978375E+02 -0.33778984419E+02  0.40659138498E+02  0.00000000000E+00 0. -1.
         11    1    3    3    0    0  0.62357872944E+01  0.15118097299E+02  0.79404094552E+01  0.18179439257E+02  0.51100000000E-03 0. -1.
        -11    1    3    3    0    0 -0.90856699486E+01  0.62505889251E+01  0.72140304882E+01  0.13178068769E+02  0.51100000000E-03 0.  1.
         12    1    3    3    0    0 -0.45460713800E+01  0.19292150812E-01  0.18624544475E+02  0.19171353476E+02  0.00000000000E+00 0. -1.
</event>
<event>
 7    1  0.2973028E-011  0.5052887E+02  0.7816164E-02  0.1300439E+00
        -11   -1    0    0    0    0  0.00000000000E+00  0.00000000000E+00  0.45593999997E+02  0.45594000000E+02  0.51100000000E-03 0.  1.
         11   -1    0    0    0    0 -0.00000000000E+00 -0.00000000000E+00 -0.45593999997E+02  0.45594000000E+02  0.51100000000E-03 0. -1.
    9900012    2    1    2    0    0  0.53185755283E+00 -0.15906035904E+02  0.37414971032E+02  0.50528869317E+02  0.30000028775E+02 0.  0.
         12    1    1    2    0    0 -0.53185755283E+00  0.15906035904E+02 -0.37414971032E+02  0.40659130683E+02  0.00000000000E+00 0. -1.
         11    1    3    3    0    0  0.59953952653E+01  0.27094528071E+01  0.25292658398E+02  0.26134354172E+02  0.51100000000E-03 0. -1.
        -11    1    3    3    0    0 -0.75964476476E+01 -0.16075042471E+02  0.94502842167E+01  0.20135065913E+02  0.51100000000E-03 0.  1.
        -12    1    3    3    0    0  0.21329099350E+01 -0.25404462402E+01  0.26720284171E+01  0.42594492311E+01  0.00000000000E+00 0.  1.
</event>
<event>
 7    1  0.2973028E-011  0.5052889E+02  0.7816164E-02  0.1300439E+00
        -11   -1    0    0    0    0  0.00000000000E+00  0.00000000000E+00  0.45593999997E+02  0.45594000000E+02  0.51100000000E-03 0.  1.
         11   -1    0    0    0    0 -0.00000000000E+00 -0.00000000000E+00 -0.45593999997E+02  0.45594000000E+02  0.51100000000E-03 0. -1.
    9900012    2    1    2    0    0  0.95598671341E+01  0.39519229235E+02 -0.52508987478E-01  0.50528889138E+02  0.30000089023E+02 0.  0.
         12    1    1    2    0    0 -0.95598671341E+01 -0.39519229235E+02  0.52508987478E-01  0.40659110862E+02  0.00000000000E+00 0. -1.
         11    1    3    3    0    0 -0.51037742850E+01  0.13858120129E+00 -0.16194451636E+01  0.53563345303E+01  0.51100000000E-03 0. -1.
        -11    1    3    3    0    0  0.16994579549E+02  0.28065283173E+02  0.48403359188E+01  0.33164811257E+02  0.51100000000E-03 0.  1.
         12    1    3    3    0    0 -0.23309381304E+01  0.11315364860E+02 -0.32733997426E+01  0.12007743350E+02  0.00000000000E+00 0. -1.
</event>
<event>
 7    1  0.2973028E-011  0.5052885E+02  0.7816164E-02  0.1300439E+00
        -11   -1    0    0    0    0  0.00000000000E+00  0.00000000000E+00  0.45593999997E+02  0.45594000000E+02  0.51100000000E-03 0.  1.
         11   -1    0    0    0    0 -0.00000000000E+00 -0.00000000000E+00 -0.45593999997E+02  0.45594000000E+02  0.51100000000E-03 0. -1.
    9900012    2    1    2    0    0  0.16330172508E+02 -0.37234755902E+02 -0.25475850343E+00  0.50528849946E+02  0.29999969896E+02 0.  0.
         12    1    1    2    0    0 -0.16330172508E+02  0.37234755902E+02  0.25475850343E+00  0.40659150054E+02  0.00000000000E+00 0. -1.
         11    1    3    3    0    0  0.85943351080E+01 -0.97127657470E+01 -0.58208719648E+01  0.14215588806E+02  0.51100000000E-03 0. -1.
        -11    1    3    3    0    0 -0.72534356066E+01 -0.49787814028E+01  0.18139109477E+01  0.89828094460E+01  0.51100000000E-03 0.  1.
        -12    1    3    3    0    0  0.14989273007E+02 -0.22543208752E+02  0.37522025137E+01  0.27330451694E+02  0.00000000000E+00 0.  1.
</event>
<event>
 7    1  0.2973028E-011  0.5052886E+02  0.7816164E-02  0.1300439E+00
        -11   -1    0    0    0    0  0.00000000000E+00  0.00000000000E+00  0.45593999997E+02  0.45594000000E+02  0.51100000000E-03 0.  1.
         11   -1    0    0    0    0 -0.00000000000E+00 -0.00000000000E+00 -0.45593999997E+02  0.45594000000E+02  0.51100000000E-03 0. -1.
    9900012    2    1    2    0    0 -0.20643920833E+02  0.23691843497E+02  0.25800983840E+02  0.50528859788E+02  0.29999999813E+02 0.  0.
         12    1    1    2    0    0  0.20643920833E+02 -0.23691843497E+02 -0.25800983840E+02  0.40659140212E+02  0.00000000000E+00 0. -1.
         11    1    3    3    0    0  0.66317870659E+01  0.21905346619E+01  0.66449484190E+01  0.96402480022E+01  0.51100000000E-03 0. -1.
        -11    1    3    3    0    0 -0.23664679756E+02  0.13473179896E+02  0.15689692305E+02  0.31427855309E+02  0.51100000000E-03 0.  1.
         12    1    3    3    0    0 -0.36110281433E+01  0.80281289395E+01  0.34663431160E+01  0.94607564772E+01  0.00000000000E+00 0. -1.
</event>
<event>
 7    1  0.2973028E-011  0.5052886E+02  0.7816164E-02  0.1300439E+00
        -11   -1    0    0    0    0  0.00000000000E+00  0.00000000000E+00  0.45593999997E+02  0.45594000000E+02  0.51100000000E-03 0.  1.
         11   -1    0    0    0    0 -0.00000000000E+00 -0.00000000000E+00 -0.45593999997E+02  0.45594000000E+02  0.51100000000E-03 0. -1.
    9900012    2    1    2    0    0 -0.33047698520E+02  0.19057866179E+02  0.14064607891E+02  0.50528857905E+02  0.29999994087E+02 0.  0.
         12    1    1    2    0    0  0.33047698520E+02 -0.19057866179E+02 -0.14064607891E+02  0.40659142095E+02  0.00000000000E+00 0. -1.
         11    1    3    3    0    0 -0.83420957688E+01  0.18783143220E+02  0.57999187303E+00  0.20560482044E+02  0.51100000000E-03 0. -1.
        -11    1    3    3    0    0 -0.63003097497E+01 -0.44664569336E+01  0.32171948890E+01  0.83662108327E+01  0.51100000000E-03 0.  1.
         12    1    3    3    0    0 -0.18405293002E+02  0.47411798931E+01  0.10267421129E+02  0.21602165028E+02  0.00000000000E+00 0. -1.
</event>
<event>
 7    1  0.2973028E-011  0.5052886E+02  0.7816164E-02  0.1300439E+00
        -11   -1    0    0    0    0  0.00000000000E+00  0.00000000000E+00  0.45593999997E+02  0.45594000000E+02  0.51100000000E-03 0.  1.
         11   -1    0    0    0    0 -0.00000000000E+00 -0.00000000000E+00 -0.45593999997E+02  0.45594000000E+02  0.51100000000E-03 0. -1.
    9900012    2    1    2    0    0 -0.84819296838E+01  0.18599622021E+02  0.35146496176E+02  0.50528864939E+02  0.30000015468E+02 0.  0.
         12    1    1    2    0    0  0.84819296838E+01 -0.18599622021E+02 -0.35146496176E+02  0.40659135061E+02  0.00000000000E+00 0. -1.
         11    1    3    3    0    0 -0.40911958206E+00 -0.66001521454E+01  0.10642303062E+02  0.12529485301E+02  0.51100000000E-03 0. -1.
        -11    1    3    3    0    0 -0.20020028367E+01  0.15795778289E+02  0.73990039829E+01  0.17557331441E+02  0.51100000000E-03 0.  1.
        -12    1    3    3    0    0 -0.60708072650E+01  0.94039958774E+01  0.17105189131E+02  0.20442048198E+02  0.00000000000E+00 0.  1.
</event>
<event>
 7    1  0.2973028E-011  0.5052885E+02  0.7816164E-02  0.1300439E+00
        -11   -1    0    0    0    0  0.00000000000E+00  0.00000000000E+00  0.45593999997E+02  0.45594000000E+02  0.51100000000E-03 0.  1.
         11   -1    0    0    0    0 -0.00000000000E+00 -0.00000000000E+00 -0.45593999997E+02  0.45594000000E+02  0.51100000000E-03 0. -1.
    9900012    2    1    2    0    0  0.12672892345E+02 -0.86542035253E+00  0.38624026088E+02  0.50528849197E+02  0.29999967618E+02 0.  0.
         12    1    1    2    0    0 -0.12672892345E+02  0.86542035253E+00 -0.38624026088E+02  0.40659150803E+02  0.00000000000E+00 0. -1.
         11    1    3    3    0    0 -0.39814212988E+01 -0.53210510673E+00  0.20383956248E+02  0.20775960242E+02  0.51100000000E-03 0. -1.
        -11    1    3    3    0    0  0.16345855884E+02 -0.34240059708E+01  0.70290560857E+01  0.18119559906E+02  0.51100000000E-03 0.  1.
        -12    1    3    3    0    0  0.30845776019E+00  0.30906907250E+01  0.11211013754E+02  0.11633329049E+02  0.00000000000E+00 0.  1.
</event>
<event>
 7    1  0.2973028E-011  0.5052886E+02  0.7816164E-02  0.1300439E+00
        -11   -1    0    0    0    0  0.00000000000E+00  0.00000000000E+00  0.45593999997E+02  0.45594000000E+02  0.51100000000E-03 0. -1.
         11   -1    0    0    0    0 -0.00000000000E+00 -0.00000000000E+00 -0.45593999997E+02  0.45594000000E+02  0.51100000000E-03 0.  1.
    9900012    2    1    2    0    0  0.13434831627E+02 -0.53684012210E+01 -0.37998042016E+02  0.50528860442E+02  0.30000001800E+02 0.  0.
         12    1    1    2    0    0 -0.13434831627E+02  0.53684012210E+01  0.37998042016E+02  0.40659139558E+02  0.00000000000E+00 0. -1.
         11    1    3    3    0    0  0.20618179666E+02 -0.60085373549E+01 -0.20607956567E+02  0.29764067733E+02  0.51100000000E-03 0. -1.
        -11    1    3    3    0    0  0.19092594451E+01 -0.80057230577E+00 -0.41627952123E+01  0.46491990585E+01  0.51100000000E-03 0.  1.
         12    1    3    3    0    0 -0.90926074847E+01  0.14407084397E+01 -0.13227290238E+02  0.16115593651E+02  0.00000000000E+00 0. -1.
</event>
<event>
 7    1  0.2973028E-011  0.5052886E+02  0.7816164E-02  0.1300439E+00
        -11   -1    0    0    0    0  0.00000000000E+00  0.00000000000E+00  0.45593999997E+02  0.45594000000E+02  0.51100000000E-03 0.  1.
         11   -1    0    0    0    0 -0.00000000000E+00 -0.00000000000E+00 -0.45593999997E+02  0.45594000000E+02  0.51100000000E-03 0. -1.
    9900012    2    1    2    0    0 -0.49685452709E+01  0.21726260434E+02  0.34006599161E+02  0.50528860547E+02  0.30000002119E+02 0.  0.
         12    1    1    2    0    0  0.49685452709E+01 -0.21726260434E+02 -0.34006599161E+02  0.40659139453E+02  0.00000000000E+00 0. -1.
         11    1    3    3    0    0 -0.23238716164E+01  0.62314882596E+01  0.21071053935E+02  0.22095726723E+02  0.51100000000E-03 0. -1.
        -11    1    3    3    0    0 -0.52809399084E+01  0.19635793206E+02  0.11278501045E+02  0.23252038345E+02  0.51100000000E-03 0.  1.
         12    1    3    3    0    0  0.26362662539E+01 -0.41410210314E+01  0.16570441811E+01  0.51810954790E+01  0.00000000000E+00 0. -1.
</event>
<event>
 7    1  0.2973028E-011  0.5052886E+02  0.7816164E-02  0.1300439E+00
        -11   -1    0    0    0    0  0.00000000000E+00  0.00000000000E+00  0.45593999997E+02  0.45594000000E+02  0.51100000000E-03 0.  1.
         11   -1    0    0    0    0 -0.00000000000E+00 -0.00000000000E+00 -0.45593999997E+02  0.45594000000E+02  0.51100000000E-03 0. -1.
    9900012    2    1    2    0    0 -0.73044048801E+01  0.32079510011E+02  0.23889678291E+02  0.50528855616E+02  0.29999987130E+02 0.  0.
         12    1    1    2    0    0  0.73044048801E+01 -0.32079510011E+02 -0.23889678291E+02  0.40659144384E+02  0.00000000000E+00 0. -1.
         11    1    3    3    0    0  0.11255575385E+02  0.16449479191E+02  0.88473251935E+01  0.21807074683E+02  0.51100000000E-03 0. -1.
        -11    1    3    3    0    0 -0.12100335279E+02  0.92094711301E+01  0.10940218887E+02  0.18732881837E+02  0.51100000000E-03 0.  1.
         12    1    3    3    0    0 -0.64596449859E+01  0.64205596903E+01  0.41021342104E+01  0.99888990965E+01  0.00000000000E+00 0. -1.
</event>
<event>
 7    1  0.2973028E-011  0.5052886E+02  0.7816164E-02  0.1300439E+00
        -11   -1    0    0    0    0  0.00000000000E+00  0.00000000000E+00  0.45593999997E+02  0.45594000000E+02  0.51100000000E-03 0.  1.
         11   -1    0    0    0    0 -0.00000000000E+00 -0.00000000000E+00 -0.45593999997E+02  0.45594000000E+02  0.51100000000E-03 0. -1.
    9900012    2    1    2    0    0  0.26055581098E+02 -0.27312083990E+02  0.15110350958E+02  0.50528856572E+02  0.29999990036E+02 0.  0.
         12    1    1    2    0    0 -0.26055581098E+02  0.27312083990E+02 -0.15110350958E+02  0.40659143428E+02  0.00000000000E+00 0. -1.
         11    1    3    3    0    0 -0.25740946876E+01  0.92554431959E-01  0.59954542477E+01  0.65253353693E+01  0.51100000000E-03 0. -1.
        -11    1    3    3    0    0  0.23418766847E+02 -0.28725326496E+02  0.10365886879E+02  0.38484212789E+02  0.51100000000E-03 0.  1.
        -12    1    3    3    0    0  0.52109089392E+01  0.13206880740E+01 -0.12509901693E+01  0.55193084137E+01  0.00000000000E+00 0.  1.
</event>
<event>
 7    1  0.2973028E-011  0.5052886E+02  0.7816164E-02  0.1300439E+00
        -11   -1    0    0    0    0  0.00000000000E+00  0.00000000000E+00  0.45593999997E+02  0.45594000000E+02  0.51100000000E-03 0.  1.
         11   -1    0    0    0    0 -0.00000000000E+00 -0.00000000000E+00 -0.45593999997E+02  0.45594000000E+02  0.51100000000E-03 0. -1.
    9900012    2    1    2    0    0 -0.31778048194E+02 -0.49916150766E+01  0.24867758194E+02  0.50528856309E+02  0.29999989236E+02 0.  0.
         12    1    1    2    0    0  0.31778048194E+02  0.49916150766E+01 -0.24867758194E+02  0.40659143691E+02  0.00000000000E+00 0. -1.
         11    1    3    3    0    0  0.97134604002E+00  0.24737934915E+01  0.14241388824E+01  0.30151847680E+01  0.51100000000E-03 0. -1.
        -11    1    3    3    0    0 -0.35246008636E+02 -0.49389816136E+01  0.15513651743E+02  0.38824580549E+02  0.51100000000E-03 0.  1.
        -12    1    3    3    0    0  0.24966144011E+01 -0.25264269544E+01  0.79299675689E+01  0.86890909921E+01  0.00000000000E+00 0.  1.
</event>
<event>
 7    1  0.2973028E-011  0.5052887E+02  0.7816164E-02  0.1300439E+00
        -11   -1    0    0    0    0  0.00000000000E+00  0.00000000000E+00  0.45593999997E+02  0.45594000000E+02  0.51100000000E-03 0.  1.
         11   -1    0    0    0    0 -0.00000000000E+00 -0.00000000000E+00 -0.45593999997E+02  0.45594000000E+02  0.51100000000E-03 0. -1.
    9900012    2    1    2    0    0  0.81491304520E+01 -0.29302215608E+02  0.26984014983E+02  0.50528865340E+02  0.30000016689E+02 0.  0.
         12    1    1    2    0    0 -0.81491304520E+01  0.29302215608E+02 -0.26984014983E+02  0.40659134660E+02  0.00000000000E+00 0. -1.
         11    1    3    3    0    0  0.26087105951E+01 -0.30990813255E+02  0.22794442004E+02  0.38559336920E+02  0.51100000000E-03 0. -1.
        -11    1    3    3    0    0  0.38551443604E+01 -0.37508033741E+01  0.29760921192E+01  0.61471772834E+01  0.51100000000E-03 0.  1.
         12    1    3    3    0    0  0.16852754966E+01  0.54394010210E+01  0.12134808599E+01  0.58223511371E+01  0.00000000000E+00 0. -1.
</event>
<event>
 7    1  0.2973028E-011  0.5052890E+02  0.7816164E-02  0.1300439E+00
        -11   -1    0    0    0    0  0.00000000000E+00  0.00000000000E+00  0.45593999997E+02  0.45594000000E+02  0.51100000000E-03 0.  1.
         11   -1    0    0    0    0 -0.00000000000E+00 -0.00000000000E+00 -0.45593999997E+02  0.45594000000E+02  0.51100000000E-03 0. -1.
    9900012    2    1    2    0    0  0.12584671606E+02  0.23598549833E+02  0.30625099398E+02  0.50528902287E+02  0.30000128992E+02 0.  0.
         12    1    1    2    0    0 -0.12584671606E+02 -0.23598549833E+02 -0.30625099398E+02  0.40659097713E+02  0.00000000000E+00 0. -1.
         11    1    3    3    0    0  0.35982340243E-01  0.74373175409E+01 -0.27357528828E+01  0.79246028942E+01  0.51100000000E-03 0. -1.
        -11    1    3    3    0    0  0.14982681339E+02  0.14279705048E+02  0.33658915649E+02  0.39513457445E+02  0.51100000000E-03 0.  1.
        -12    1    3    3    0    0 -0.24339920724E+01  0.18815272437E+01 -0.29806336759E+00  0.30908419482E+01  0.00000000000E+00 0.  1.
</event>
<event>
 7    1  0.2973028E-011  0.5052886E+02  0.7816164E-02  0.1300439E+00
        -11   -1    0    0    0    0  0.00000000000E+00  0.00000000000E+00  0.45593999997E+02  0.45594000000E+02  0.51100000000E-03 0. -1.
         11   -1    0    0    0    0 -0.00000000000E+00 -0.00000000000E+00 -0.45593999997E+02  0.45594000000E+02  0.51100000000E-03 0.  1.
    9900012    2    1    2    0    0 -0.32333581852E+02  0.11864251574E+02 -0.21608893970E+02  0.50528864748E+02  0.30000014889E+02 0.  0.
         12    1    1    2    0    0  0.32333581852E+02 -0.11864251574E+02  0.21608893970E+02  0.40659135252E+02  0.00000000000E+00 0. -1.
         11    1    3    3    0    0 -0.18961907551E+01 -0.66080957457E+01  0.21909534590E+01  0.72154518975E+01  0.51100000000E-03 0. -1.
        -11    1    3    3    0    0 -0.21212509037E+02  0.11790922118E+02 -0.12624900327E+02  0.27356616979E+02  0.51100000000E-03 0.  1.
        -12    1    3    3    0    0 -0.92248820601E+01  0.66814252022E+01 -0.11174947102E+02  0.15956795872E+02  0.00000000000E+00 0.  1.
</event>
<event>
 7    1  0.2973028E-011  0.5052883E+02  0.7816164E-02  0.1300439E+00
        -11   -1    0    0    0    0  0.00000000000E+00  0.00000000000E+00  0.45593999997E+02  0.45594000000E+02  0.51100000000E-03 0.  1.
         11   -1    0    0    0    0 -0.00000000000E+00 -0.00000000000E+00 -0.45593999997E+02  0.45594000000E+02  0.51100000000E-03 0. -1.
    9900012    2    1    2    0    0  0.52845651914E+01  0.37660321525E+01  0.40137992479E+02  0.50528830460E+02  0.29999910665E+02 0.  0.
         12    1    1    2    0    0 -0.52845651914E+01 -0.37660321525E+01 -0.40137992479E+02  0.40659169540E+02  0.00000000000E+00 0. -1.
         11    1    3    3    0    0  0.12235265500E+02 -0.67999116165E+01  0.28190483134E+02  0.31474495380E+02  0.51100000000E-03 0. -1.
        -11    1    3    3    0    0  0.16229834635E+01  0.26165541264E+01  0.17589693622E+01  0.35460406508E+01  0.51100000000E-03 0.  1.
         12    1    3    3    0    0 -0.85736837717E+01  0.79493896427E+01  0.10188539983E+02  0.15508294429E+02  0.00000000000E+00 0. -1.
</event>
<event>
 7    1  0.2973028E-011  0.5052886E+02  0.7816164E-02  0.1300439E+00
        -11   -1    0    0    0    0  0.00000000000E+00  0.00000000000E+00  0.45593999997E+02  0.45594000000E+02  0.51100000000E-03 0. -1.
         11   -1    0    0    0    0 -0.00000000000E+00 -0.00000000000E+00 -0.45593999997E+02  0.45594000000E+02  0.51100000000E-03 0.  1.
    9900012    2    1    2    0    0 -0.35596959078E+02  0.77454005382E+01 -0.18056319908E+02  0.50528863097E+02  0.30000009868E+02 0.  0.
         12    1    1    2    0    0  0.35596959078E+02 -0.77454005382E+01  0.18056319908E+02  0.40659136903E+02  0.00000000000E+00 0. -1.
         11    1    3    3    0    0 -0.15144121484E+02 -0.60793878596E+01  0.11565457375E+01  0.16359736262E+02  0.51100000000E-03 0. -1.
        -11    1    3    3    0    0 -0.16801506688E+02  0.15498859423E+02 -0.11767950984E+02  0.25709724639E+02  0.51100000000E-03 0.  1.
         12    1    3    3    0    0 -0.36513309065E+01 -0.16740710249E+01 -0.74449146619E+01  0.84594021957E+01  0.00000000000E+00 0. -1.
</event>
<event>
 7    1  0.2973028E-011  0.5052887E+02  0.7816164E-02  0.1300439E+00
        -11   -1    0    0    0    0  0.00000000000E+00  0.00000000000E+00  0.45593999997E+02  0.45594000000E+02  0.51100000000E-03 0.  1.
         11   -1    0    0    0    0 -0.00000000000E+00 -0.00000000000E+00 -0.45593999997E+02  0.45594000000E+02  0.51100000000E-03 0. -1.
    9900012    2    1    2    0    0  0.80916609018E+01  0.18432455782E+02  0.35326117479E+02  0.50528868450E+02  0.30000026140E+02 0.  0.
         12    1    1    2    0    0 -0.80916609018E+01 -0.18432455782E+02 -0.35326117479E+02  0.40659131550E+02  0.00000000000E+00 0. -1.
         11    1    3    3    0    0  0.14364616338E+02  0.55226281232E+01  0.28988181736E+02  0.32820059484E+02  0.51100000000E-03 0.  1.
        -11    1    3    3    0    0 -0.64579387501E+01  0.68753440254E+01  0.68385093631E+01  0.11650774178E+02  0.51100000000E-03 0. -1.
        -12    1    3    3    0    0  0.18498331422E+00  0.60344836332E+01 -0.50057362002E+00  0.60580347882E+01  0.00000000000E+00 0.  1.
</event>
<event>
 7    1  0.2973028E-011  0.5052886E+02  0.7816164E-02  0.1300439E+00
        -11   -1    0    0    0    0  0.00000000000E+00  0.00000000000E+00  0.45593999997E+02  0.45594000000E+02  0.51100000000E-03 0. -1.
         11   -1    0    0    0    0 -0.00000000000E+00 -0.00000000000E+00 -0.45593999997E+02  0.45594000000E+02  0.51100000000E-03 0.  1.
    9900012    2    1    2    0    0 -0.25995589592E+02 -0.29883800852E+02 -0.91844281162E+01  0.50528856484E+02  0.29999989770E+02 0.  0.
         12    1    1    2    0    0  0.25995589592E+02  0.29883800852E+02  0.91844281162E+01  0.40659143516E+02  0.00000000000E+00 0. -1.
         11    1    3    3    0    0  0.21577166000E+01  0.21690750784E+00  0.45764136336E+01  0.50642227242E+01  0.51100000000E-03 0. -1.
        -11    1    3    3    0    0 -0.23222827995E+02 -0.30213903255E+02 -0.10415250832E+02  0.39505153337E+02  0.51100000000E-03 0.  1.
         12    1    3    3    0    0 -0.49304781965E+01  0.11319489475E+00 -0.33455909178E+01  0.59594804237E+01  0.00000000000E+00 0. -1.
</event>
<event>
 7    1  0.2973028E-011  0.5052886E+02  0.7816164E-02  0.1300439E+00
        -11   -1    0    0    0    0  0.00000000000E+00  0.00000000000E+00  0.45593999997E+02  0.45594000000E+02  0.51100000000E-03 0. -1.
         11   -1    0    0    0    0 -0.00000000000E+00 -0.00000000000E+00 -0.45593999997E+02  0.45594000000E+02  0.51100000000E-03 0.  1.
    9900012    2    1    2    0    0 -0.31193984959E+02 -0.76784879164E+01 -0.24922721990E+02  0.50528856555E+02  0.29999989983E+02 0.  0.
         12    1    1    2    0    0  0.31193984959E+02  0.76784879164E+01  0.24922721990E+02  0.40659143445E+02  0.00000000000E+00 0. -1.
         11    1    3    3    0    0 -0.38835157753E+01 -0.37236071108E+01  0.45602779719E+01  0.70528774365E+01  0.51100000000E-03 0. -1.
        -11    1    3    3    0    0 -0.80846448173E+01 -0.73125826056E+01 -0.17364940726E+02  0.20503085447E+02  0.51100000000E-03 0.  1.
         12    1    3    3    0    0 -0.19225824367E+02  0.33577018000E+01 -0.12118059236E+02  0.22972893671E+02  0.00000000000E+00 0. -1.
</event>
<event>
 7    1  0.2973028E-011  0.5052887E+02  0.7816164E-02  0.1300439E+00
        -11   -1    0    0    0    0  0.00000000000E+00  0.00000000000E+00  0.45593999997E+02  0.45594000000E+02  0.51100000000E-03 0.  1.
         11   -1    0    0    0    0 -0.00000000000E+00 -0.00000000000E+00 -0.45593999997E+02  0.45594000000E+02  0.51100000000E-03 0. -1.
    9900012    2    1    2    0    0 -0.12829441625E+02 -0.14977675701E+02  0.35556150892E+02  0.50528865625E+02  0.30000017555E+02 0.  0.
         12    1    1    2    0    0  0.12829441625E+02  0.14977675701E+02 -0.35556150892E+02  0.40659134375E+02  0.00000000000E+00 0. -1.
         11    1    3    3    0    0 -0.12226567917E+01 -0.16592052246E+01 -0.33658581993E+00  0.20883347153E+01  0.51100000000E-03 0. -1.
        -11    1    3    3    0    0 -0.50719986129E+01 -0.84735074959E+01  0.38618422969E+02  0.39861110020E+02  0.51100000000E-03 0.  1.
        -12    1    3    3    0    0 -0.65347862203E+01 -0.48449629809E+01 -0.27256862566E+01  0.85794208897E+01  0.00000000000E+00 0.  1.
</event>
<event>
 7    1  0.2973028E-011  0.5052886E+02  0.7816164E-02  0.1300439E+00
        -11   -1    0    0    0    0  0.00000000000E+00  0.00000000000E+00  0.45593999997E+02  0.45594000000E+02  0.51100000000E-03 0.  1.
         11   -1    0    0    0    0 -0.00000000000E+00 -0.00000000000E+00 -0.45593999997E+02  0.45594000000E+02  0.51100000000E-03 0. -1.
    9900012    2    1    2    0    0 -0.25916832108E+02  0.13875191098E+02  0.28088483487E+02  0.50528855652E+02  0.29999987239E+02 0.  0.
         12    1    1    2    0    0  0.25916832108E+02 -0.13875191098E+02 -0.28088483487E+02  0.40659144348E+02  0.00000000000E+00 0. -1.
         11    1    3    3    0    0 -0.16559177473E+02  0.16538781140E+02  0.18627680244E+02  0.29912006146E+02  0.51100000000E-03 0.  1.
        -11    1    3    3    0    0  0.33413726035E+01 -0.40939553434E+01  0.12602283173E+01  0.54326252312E+01  0.51100000000E-03 0. -1.
        -12    1    3    3    0    0 -0.12699027238E+02  0.14303653013E+01  0.82005749265E+01  0.15184224274E+02  0.00000000000E+00 0.  1.
</event>
<event>
 7    1  0.2973028E-011  0.5052886E+02  0.7816164E-02  0.1300439E+00
        -11   -1    0    0    0    0  0.00000000000E+00  0.00000000000E+00  0.45593999997E+02  0.45594000000E+02  0.51100000000E-03 0.  1.
         11   -1    0    0    0    0 -0.00000000000E+00 -0.00000000000E+00 -0.45593999997E+02  0.45594000000E+02  0.51100000000E-03 0. -1.
    9900012    2    1    2    0    0 -0.20560901949E+02  0.23455733346E+02  0.26081474848E+02  0.50528862699E+02  0.30000008661E+02 0.  0.
         12    1    1    2    0    0  0.20560901949E+02 -0.23455733346E+02 -0.26081474848E+02  0.40659137301E+02  0.00000000000E+00 0. -1.
         11    1    3    3    0    0  0.24705087808E+01  0.37753128572E+01  0.46139846580E+01  0.64533135281E+01  0.51100000000E-03 0. -1.
        -11    1    3    3    0    0 -0.25431283388E+02  0.20558368287E+02  0.12932104298E+02  0.35165835740E+02  0.51100000000E-03 0.  1.
        -12    1    3    3    0    0  0.23998726582E+01 -0.87794779869E+00  0.85353858920E+01  0.89097134319E+01  0.00000000000E+00 0.  1.
</event>
<event>
 7    1  0.2973028E-011  0.5052886E+02  0.7816164E-02  0.1300439E+00
        -11   -1    0    0    0    0  0.00000000000E+00  0.00000000000E+00  0.45593999997E+02  0.45594000000E+02  0.51100000000E-03 0.  1.
         11   -1    0    0    0    0 -0.00000000000E+00 -0.00000000000E+00 -0.45593999997E+02  0.45594000000E+02  0.51100000000E-03 0. -1.
    9900012    2    1    2    0    0  0.12665163988E+02  0.38116810191E+02 -0.63141014034E+01  0.50528862349E+02  0.30000007597E+02 0.  0.
         12    1    1    2    0    0 -0.12665163988E+02 -0.38116810191E+02  0.63141014034E+01  0.40659137651E+02  0.00000000000E+00 0. -1.
         11    1    3    3    0    0  0.71652693615E+00  0.93335073470E+00 -0.19682376931E+01  0.22931450721E+01  0.51100000000E-03 0. -1.
        -11    1    3    3    0    0  0.90027453875E+01  0.15936607620E+02 -0.15566647018E+02  0.24028012539E+02  0.51100000000E-03 0.  1.
        -12    1    3    3    0    0  0.29458916642E+01  0.21246851836E+02  0.11220783307E+02  0.24207704738E+02  0.00000000000E+00 0.  1.
</event>
<event>
 7    1  0.2973028E-011  0.5052886E+02  0.7816164E-02  0.1300439E+00
        -11   -1    0    0    0    0  0.00000000000E+00  0.00000000000E+00  0.45593999997E+02  0.45594000000E+02  0.51100000000E-03 0.  1.
         11   -1    0    0    0    0 -0.00000000000E+00 -0.00000000000E+00 -0.45593999997E+02  0.45594000000E+02  0.51100000000E-03 0. -1.
    9900012    2    1    2    0    0  0.95161604982E+01  0.25105389527E+02  0.30534041856E+02  0.50528860732E+02  0.30000002682E+02 0.  0.
         12    1    1    2    0    0 -0.95161604982E+01 -0.25105389527E+02 -0.30534041856E+02  0.40659139268E+02  0.00000000000E+00 0. -1.
         11    1    3    3    0    0 -0.31465504191E+01  0.41020055171E+01  0.12752743753E+01  0.53248055172E+01  0.51100000000E-03 0. -1.
        -11    1    3    3    0    0  0.15766175905E+02  0.19518978412E+02  0.12381454754E+02  0.27979693404E+02  0.51100000000E-03 0.  1.
        -12    1    3    3    0    0 -0.31034649882E+01  0.14844055980E+01  0.16877312727E+02  0.17224361811E+02  0.00000000000E+00 0.  1.
</event>
<event>
 7    1  0.2973028E-011  0.5052887E+02  0.7816164E-02  0.1300439E+00
        -11   -1    0    0    0    0  0.00000000000E+00  0.00000000000E+00  0.45593999997E+02  0.45594000000E+02  0.51100000000E-03 0.  1.
         11   -1    0    0    0    0 -0.00000000000E+00 -0.00000000000E+00 -0.45593999997E+02  0.45594000000E+02  0.51100000000E-03 0. -1.
    9900012    2    1    2    0    0 -0.96699333457E+01  0.37240318477E+02  0.13145953339E+02  0.50528867934E+02  0.30000024572E+02 0.  0.
         12    1    1    2    0    0  0.96699333457E+01 -0.37240318477E+02 -0.13145953339E+02  0.40659132066E+02  0.00000000000E+00 0. -1.
         11    1    3    3    0    0  0.83803944435E+01  0.13487478281E+02  0.12416624381E+02  0.20157272699E+02  0.51100000000E-03 0. -1.
        -11    1    3    3    0    0 -0.12653886319E+02  0.18528275262E+02 -0.16366894651E+01  0.22496590316E+02  0.51100000000E-03 0.  1.
         12    1    3    3    0    0 -0.53964414702E+01  0.52245649346E+01  0.23660184229E+01  0.78750049190E+01  0.00000000000E+00 0. -1.
</event>
<event>
 7    1  0.2973028E-011  0.5052886E+02  0.7816164E-02  0.1300439E+00
        -11   -1    0    0    0    0  0.00000000000E+00  0.00000000000E+00  0.45593999997E+02  0.45594000000E+02  0.51100000000E-03 0. -1.
         11   -1    0    0    0    0 -0.00000000000E+00 -0.00000000000E+00 -0.45593999997E+02  0.45594000000E+02  0.51100000000E-03 0.  1.
    9900012    2    1    2    0    0  0.20334536466E+02  0.45894106736E+01 -0.34908583459E+02  0.50528864953E+02  0.30000015512E+02 0.  0.
         12    1    1    2    0    0 -0.20334536466E+02 -0.45894106736E+01  0.34908583459E+02  0.40659135047E+02  0.00000000000E+00 0. -1.
         11    1    3    3    0    0  0.65167756053E+01  0.51307267501E+01  0.34585747895E+01  0.89863485971E+01  0.51100000000E-03 0. -1.
        -11    1    3    3    0    0  0.12153044618E+02  0.15128561653E+01 -0.24108700839E+02  0.27040981559E+02  0.51100000000E-03 0.  1.
         12    1    3    3    0    0  0.16647162429E+01 -0.20541722418E+01 -0.14258457409E+02  0.14501534797E+02  0.00000000000E+00 0. -1.
</event>
<event>
 7    1  0.2973028E-011  0.5052887E+02  0.7816164E-02  0.1300439E+00
        -11   -1    0    0    0    0  0.00000000000E+00  0.00000000000E+00  0.45593999997E+02  0.45594000000E+02  0.51100000000E-03 0. -1.
         11   -1    0    0    0    0 -0.00000000000E+00 -0.00000000000E+00 -0.45593999997E+02  0.45594000000E+02  0.51100000000E-03 0.  1.
    9900012    2    1    2    0    0  0.23255457095E+02 -0.29879294788E+02  0.14818120187E+02  0.50528865386E+02  0.30000016827E+02 0.  0.
         12    1    1    2    0    0 -0.23255457095E+02  0.29879294788E+02 -0.14818120187E+02  0.40659134614E+02  0.00000000000E+00 0. -1.
         11    1    3    3    0    0 -0.21051165448E+01  0.79542874883E+00 -0.32713714278E+01  0.39706540823E+01  0.51100000000E-03 0. -1.
        -11    1    3    3    0    0  0.17703669608E+02 -0.29968866127E+02  0.17176736186E+02  0.38814856960E+02  0.51100000000E-03 0.  1.
         12    1    3    3    0    0  0.76569040312E+01 -0.70585740973E+00  0.91275542851E+00  0.77433543440E+01  0.00000000000E+00 0. -1.
</event>
<event>
 7    1  0.2973028E-011  0.5052886E+02  0.7816164E-02  0.1300439E+00
        -11   -1    0    0    0    0  0.00000000000E+00  0.00000000000E+00  0.45593999997E+02  0.45594000000E+02  0.51100000000E-03 0.  1.
         11   -1    0    0    0    0 -0.00000000000E+00 -0.00000000000E+00 -0.45593999997E+02  0.45594000000E+02  0.51100000000E-03 0. -1.
    9900012    2    1    2    0    0 -0.92285696786E+01 -0.74753106551E+01  0.38885974194E+02  0.50528858879E+02  0.29999997049E+02 0.  0.
         12    1    1    2    0    0  0.92285696786E+01  0.74753106551E+01 -0.38885974194E+02  0.40659141121E+02  0.00000000000E+00 0. -1.
         11    1    3    3    0    0  0.76660567992E+01 -0.59256748129E+00  0.19949882103E+02  0.21380303068E+02  0.51100000000E-03 0. -1.
        -11    1    3    3    0    0 -0.86030922746E+01 -0.68641437876E+01  0.17588605934E+02  0.20748222227E+02  0.51100000000E-03 0.  1.
         12    1    3    3    0    0 -0.82915342032E+01 -0.18599386231E-01  0.13474861559E+01  0.84003335839E+01  0.00000000000E+00 0. -1.
</event>
<event>
 7    1  0.2973028E-011  0.5052887E+02  0.7816164E-02  0.1300439E+00
        -11   -1    0    0    0    0  0.00000000000E+00  0.00000000000E+00  0.45593999997E+02  0.45594000000E+02  0.51100000000E-03 0.  1.
         11   -1    0    0    0    0 -0.00000000000E+00 -0.00000000000E+00 -0.45593999997E+02  0.45594000000E+02  0.51100000000E-03 0. -1.
    9900012    2    1    2    0    0 -0.21013385461E+02 -0.33591927887E+02  0.91205786583E+01  0.50528868888E+02  0.30000027472E+02 0.  0.
         12    1    1    2    0    0  0.21013385461E+02  0.33591927887E+02 -0.91205786583E+01  0.40659131112E+02  0.00000000000E+00 0. -1.
         11    1    3    3    0    0 -0.81116972676E+01 -0.11073049528E+02  0.14322736480E+02  0.19838166219E+02  0.51100000000E-03 0. -1.
        -11    1    3    3    0    0 -0.14142289553E+02 -0.22323859347E+02 -0.11533911304E+01  0.26451641940E+02  0.51100000000E-03 0.  1.
         12    1    3    3    0    0  0.12406013596E+01 -0.19501901230E+00 -0.40487666911E+01  0.42390607294E+01  0.00000000000E+00 0. -1.
</event>
<event>
 7    1  0.2973028E-011  0.5052886E+02  0.7816164E-02  0.1300439E+00
        -11   -1    0    0    0    0  0.00000000000E+00  0.00000000000E+00  0.45593999997E+02  0.45594000000E+02  0.51100000000E-03 0. -1.
         11   -1    0    0    0    0 -0.00000000000E+00 -0.00000000000E+00 -0.45593999997E+02  0.45594000000E+02  0.51100000000E-03 0.  1.
    9900012    2    1    2    0    0  0.68476788992E+01 -0.31452628108E+02 -0.24839627330E+02  0.50528860718E+02  0.30000002640E+02 0.  0.
         12    1    1    2    0    0 -0.68476788992E+01  0.31452628108E+02  0.24839627330E+02  0.40659139282E+02  0.00000000000E+00 0. -1.
         11    1    3    3    0    0  0.17779998646E+01 -0.76123607134E+00 -0.30916897726E+01  0.36468218747E+01  0.51100000000E-03 0. -1.
        -11    1    3    3    0    0  0.16119403433E+01 -0.13280623006E+02 -0.25447551389E+02  0.28749802974E+02  0.51100000000E-03 0.  1.
        -12    1    3    3    0    0  0.34577386913E+01 -0.17410769031E+02  0.36996138319E+01  0.18132235869E+02  0.00000000000E+00 0.  1.
</event>
<event>
 7    1  0.2973028E-011  0.5052886E+02  0.7816164E-02  0.1300439E+00
        -11   -1    0    0    0    0  0.00000000000E+00  0.00000000000E+00  0.45593999997E+02  0.45594000000E+02  0.51100000000E-03 0. -1.
         11   -1    0    0    0    0 -0.00000000000E+00 -0.00000000000E+00 -0.45593999997E+02  0.45594000000E+02  0.51100000000E-03 0.  1.
    9900012    2    1    2    0    0  0.18246919902E+02  0.33113894845E+02  0.14956126384E+02  0.50528857927E+02  0.29999994156E+02 0.  0.
         12    1    1    2    0    0 -0.18246919902E+02 -0.33113894845E+02 -0.14956126384E+02  0.40659142073E+02  0.00000000000E+00 0. -1.
         11    1    3    3    0    0  0.93602008921E+01  0.44253541500E-01  0.27081784724E+01  0.97442059716E+01  0.51100000000E-03 0. -1.
        -11    1    3    3    0    0  0.48203323380E+01  0.27454675241E+02  0.13989472864E+01  0.27909708888E+02  0.51100000000E-03 0.  1.
         12    1    3    3    0    0  0.40663866715E+01  0.56149660627E+01  0.10849000625E+02  0.12874943068E+02  0.00000000000E+00 0. -1.
</event>
<event>
 7    1  0.2973028E-011  0.5052884E+02  0.7816164E-02  0.1300439E+00
        -11   -1    0    0    0    0  0.00000000000E+00  0.00000000000E+00  0.45593999997E+02  0.45594000000E+02  0.51100000000E-03 0. -1.
         11   -1    0    0    0    0 -0.00000000000E+00 -0.00000000000E+00 -0.45593999997E+02  0.45594000000E+02  0.51100000000E-03 0.  1.
    9900012    2    1    2    0    0  0.25392766512E+02 -0.20405462930E+01 -0.31689281738E+02  0.50528843622E+02  0.29999950673E+02 0.  0.
         12    1    1    2    0    0 -0.25392766512E+02  0.20405462930E+01  0.31689281738E+02  0.40659156378E+02  0.00000000000E+00 0. -1.
         11    1    3    3    0    0  0.65780169001E+01  0.65952367029E+01  0.14222458161E+01  0.94228571531E+01  0.51100000000E-03 0. -1.
        -11    1    3    3    0    0  0.57533732223E+01 -0.43922272380E+01 -0.22830922220E+02  0.23950865814E+02  0.51100000000E-03 0.  1.
        -12    1    3    3    0    0  0.13061376390E+02 -0.42435557579E+01 -0.10280605334E+02  0.17155120655E+02  0.00000000000E+00 0.  1.
</event>
<event>
 7    1  0.2973028E-011  0.5052886E+02  0.7816164E-02  0.1300439E+00
        -11   -1    0    0    0    0  0.00000000000E+00  0.00000000000E+00  0.45593999997E+02  0.45594000000E+02  0.51100000000E-03 0.  1.
         11   -1    0    0    0    0 -0.00000000000E+00 -0.00000000000E+00 -0.45593999997E+02  0.45594000000E+02  0.51100000000E-03 0. -1.
    9900012    2    1    2    0    0  0.18318818441E+02  0.35919234902E+02 -0.52340512090E+01  0.50528857890E+02  0.29999994043E+02 0.  0.
         12    1    1    2    0    0 -0.18318818441E+02 -0.35919234902E+02  0.52340512090E+01  0.40659142110E+02  0.00000000000E+00 0. -1.
         11    1    3    3    0    0 -0.66129837909E+01  0.13037209217E+02  0.22449702489E+01  0.14789870536E+02  0.51100000000E-03 0. -1.
        -11    1    3    3    0    0  0.18480983530E+02  0.17800475266E+02 -0.93620821542E+01  0.27313957137E+02  0.51100000000E-03 0.  1.
        -12    1    3    3    0    0  0.64508187019E+01  0.50815504190E+01  0.18830606963E+01  0.84250302178E+01  0.00000000000E+00 0.  1.
</event>
<event>
 7    1  0.2973028E-011  0.5052886E+02  0.7816164E-02  0.1300439E+00
        -11   -1    0    0    0    0  0.00000000000E+00  0.00000000000E+00  0.45593999997E+02  0.45594000000E+02  0.51100000000E-03 0.  1.
         11   -1    0    0    0    0 -0.00000000000E+00 -0.00000000000E+00 -0.45593999997E+02  0.45594000000E+02  0.51100000000E-03 0. -1.
    9900012    2    1    2    0    0  0.34552220290E+02  0.17755162765E+02  0.12002647428E+02  0.50528864777E+02  0.30000014978E+02 0.  0.
         12    1    1    2    0    0 -0.34552220290E+02 -0.17755162765E+02 -0.12002647428E+02  0.40659135223E+02  0.00000000000E+00 0. -1.
         11    1    3    3    0    0 -0.40573259616E+01  0.54498760268E+01 -0.14784166443E+01  0.69533271677E+01  0.51100000000E-03 0. -1.
        -11    1    3    3    0    0  0.21017827202E+02  0.11050618995E+02  0.66179059926E+01  0.24650799591E+02  0.51100000000E-03 0.  1.
         12    1    3    3    0    0  0.17591719049E+02  0.12546677427E+01  0.68631580796E+01  0.18924738019E+02  0.00000000000E+00 0. -1.
</event>
<event>
 7    1  0.2973028E-011  0.5052886E+02  0.7816164E-02  0.1300439E+00
        -11   -1    0    0    0    0  0.00000000000E+00  0.00000000000E+00  0.45593999997E+02  0.45594000000E+02  0.51100000000E-03 0.  1.
         11   -1    0    0    0    0 -0.00000000000E+00 -0.00000000000E+00 -0.45593999997E+02  0.45594000000E+02  0.51100000000E-03 0. -1.
    9900012    2    1    2    0    0 -0.30787206643E+02 -0.23026055296E+02  0.13233071186E+02  0.50528862178E+02  0.30000007077E+02 0.  0.
         12    1    1    2    0    0  0.30787206643E+02  0.23026055296E+02 -0.13233071186E+02  0.40659137822E+02  0.00000000000E+00 0. -1.
         11    1    3    3    0    0 -0.23970832420E+02 -0.15249532239E+02  0.12181546284E-01  0.28410371153E+02  0.51100000000E-03 0. -1.
        -11    1    3    3    0    0  0.58936030206E+00 -0.66868231434E+01  0.12998759858E+02  0.14629720005E+02  0.51100000000E-03 0.  1.
        -12    1    3    3    0    0 -0.74057345246E+01 -0.10896999141E+01  0.22212978217E+00  0.74887710201E+01  0.00000000000E+00 0.  1.
</event>
<event>
 7    1  0.2973028E-011  0.5052886E+02  0.7816164E-02  0.1300439E+00
        -11   -1    0    0    0    0  0.00000000000E+00  0.00000000000E+00  0.45593999997E+02  0.45594000000E+02  0.51100000000E-03 0. -1.
         11   -1    0    0    0    0 -0.00000000000E+00 -0.00000000000E+00 -0.45593999997E+02  0.45594000000E+02  0.51100000000E-03 0.  1.
    9900012    2    1    2    0    0  0.91904045544E+01  0.26732340800E+02 -0.29224720408E+02  0.50528857566E+02  0.29999993059E+02 0.  0.
         12    1    1    2    0    0 -0.91904045544E+01 -0.26732340800E+02  0.29224720408E+02  0.40659142434E+02  0.00000000000E+00 0. -1.
         11    1    3    3    0    0  0.19235196142E+01  0.16323282687E+02 -0.14493000781E+02  0.21913387627E+02  0.51100000000E-03 0.  1.
        -11    1    3    3    0    0  0.37193204491E+01 -0.27860410278E+01 -0.14200433987E+02  0.14941475660E+02  0.51100000000E-03 0. -1.
         12    1    3    3    0    0  0.35475644912E+01  0.13195099140E+02 -0.53128564104E+00  0.13673994280E+02  0.00000000000E+00 0. -1.
</event>
<event>
 7    1  0.2973028E-011  0.5052886E+02  0.7816164E-02  0.1300439E+00
        -11   -1    0    0    0    0  0.00000000000E+00  0.00000000000E+00  0.45593999997E+02  0.45594000000E+02  0.51100000000E-03 0.  1.
         11   -1    0    0    0    0 -0.00000000000E+00 -0.00000000000E+00 -0.45593999997E+02  0.45594000000E+02  0.51100000000E-03 0. -1.
    9900012    2    1    2    0    0 -0.30094950952E+02 -0.10506834926E+02  0.25240168623E+02  0.50528858776E+02  0.29999996737E+02 0.  0.
         12    1    1    2    0    0  0.30094950952E+02  0.10506834926E+02 -0.25240168623E+02  0.40659141224E+02  0.00000000000E+00 0. -1.
         11    1    3    3    0    0 -0.26207834230E+00  0.46013524414E+01 -0.14714652646E+01  0.48380098836E+01  0.51100000000E-03 0. -1.
        -11    1    3    3    0    0 -0.27037524263E+02 -0.14447747466E+02  0.28860743195E+02  0.42103534569E+02  0.51100000000E-03 0.  1.
        -12    1    3    3    0    0 -0.27953483463E+01 -0.66043990184E+00 -0.21491093083E+01  0.35873143242E+01  0.00000000000E+00 0.  1.
</event>
<event>
 7    1  0.2973028E-011  0.5052887E+02  0.7816164E-02  0.1300439E+00
        -11   -1    0    0    0    0  0.00000000000E+00  0.00000000000E+00  0.45593999997E+02  0.45594000000E+02  0.51100000000E-03 0. -1.
         11   -1    0    0    0    0 -0.00000000000E+00 -0.00000000000E+00 -0.45593999997E+02  0.45594000000E+02  0.51100000000E-03 0.  1.
    9900012    2    1    2    0    0 -0.15144350508E+02 -0.37403081365E+02  0.49822888386E+01  0.50528867570E+02  0.30000023465E+02 0.  0.
         12    1    1    2    0    0  0.15144350508E+02  0.37403081365E+02 -0.49822888386E+01  0.40659132430E+02  0.00000000000E+00 0. -1.
         11    1    3    3    0    0  0.38503472597E+00 -0.18119155569E+02 -0.54031537584E+01  0.18911534075E+02  0.51100000000E-03 0. -1.
        -11    1    3    3    0    0 -0.14566291945E+02 -0.15670897570E+02  0.14661711999E+02  0.25936840414E+02  0.51100000000E-03 0.  1.
        -12    1    3    3    0    0 -0.96309328882E+00 -0.36130282262E+01 -0.42762694018E+01  0.56804930809E+01  0.00000000000E+00 0.  1.
</event>
<event>
 7    1  0.2973028E-011  0.5052886E+02  0.7816164E-02  0.1300439E+00
        -11   -1    0    0    0    0  0.00000000000E+00  0.00000000000E+00  0.45593999997E+02  0.45594000000E+02  0.51100000000E-03 0.  1.
         11   -1    0    0    0    0 -0.00000000000E+00 -0.00000000000E+00 -0.45593999997E+02  0.45594000000E+02  0.51100000000E-03 0. -1.
    9900012    2    1    2    0    0 -0.22193427358E+01  0.45953062814E+01  0.40337615922E+02  0.50528861049E+02  0.30000003644E+02 0.  0.
         12    1    1    2    0    0  0.22193427358E+01 -0.45953062814E+01 -0.40337615922E+02  0.40659138951E+02  0.00000000000E+00 0. -1.
         11    1    3    3    0    0  0.51443769307E+01  0.96774058630E+01  0.26028502551E+02  0.28241808432E+02  0.51100000000E-03 0. -1.
        -11    1    3    3    0    0 -0.70844668643E+01  0.11222314231E+01  0.55318816549E+00  0.71941011618E+01  0.51100000000E-03 0.  1.
         12    1    3    3    0    0 -0.27925280219E+00 -0.62043310047E+01  0.13755925206E+02  0.15092951455E+02  0.00000000000E+00 0. -1.
</event>
<event>
 7    1  0.2973028E-011  0.5052886E+02  0.7816164E-02  0.1300439E+00
        -11   -1    0    0    0    0  0.00000000000E+00  0.00000000000E+00  0.45593999997E+02  0.45594000000E+02  0.51100000000E-03 0.  1.
         11   -1    0    0    0    0 -0.00000000000E+00 -0.00000000000E+00 -0.45593999997E+02  0.45594000000E+02  0.51100000000E-03 0. -1.
    9900012    2    1    2    0    0  0.11806109925E+02  0.37659971485E+02 -0.97728333069E+01  0.50528856444E+02  0.29999989648E+02 0.  0.
         12    1    1    2    0    0 -0.11806109925E+02 -0.37659971485E+02  0.97728333069E+01  0.40659143556E+02  0.00000000000E+00 0. -1.
         11    1    3    3    0    0  0.56664873303E+01  0.65086816695E+00  0.59794758180E+01  0.82635851393E+01  0.51100000000E-03 0. -1.
        -11    1    3    3    0    0  0.80210402522E+01  0.36306646996E+02 -0.14570461523E+02  0.39935047917E+02  0.51100000000E-03 0.  1.
        -12    1    3    3    0    0 -0.18814176574E+01  0.70245632182E+00 -0.11818476016E+01  0.23302233882E+01  0.00000000000E+00 0.  1.
</event>
<event>
 7    1  0.2973028E-011  0.5052885E+02  0.7816164E-02  0.1300439E+00
        -11   -1    0    0    0    0  0.00000000000E+00  0.00000000000E+00  0.45593999997E+02  0.45594000000E+02  0.51100000000E-03 0.  1.
         11   -1    0    0    0    0 -0.00000000000E+00 -0.00000000000E+00 -0.45593999997E+02  0.45594000000E+02  0.51100000000E-03 0. -1.
    9900012    2    1    2    0    0 -0.98267899721E+01  0.39125071451E+02  0.50822626975E+01  0.50528850829E+02  0.29999972580E+02 0.  0.
         12    1    1    2    0    0  0.98267899721E+01 -0.39125071451E+02 -0.50822626975E+01  0.40659149171E+02  0.00000000000E+00 0. -1.
         11    1    3    3    0    0  0.19256774989E+00 -0.30592765290E+01 -0.44198720361E+01  0.53788032401E+01  0.51100000000E-03 0. -1.
        -11    1    3    3    0    0 -0.74343538870E+01  0.21171912590E+02  0.83683034778E+01  0.23948862265E+02  0.51100000000E-03 0.  1.
         12    1    3    3    0    0 -0.25850038349E+01  0.21012435389E+02  0.11338312558E+01  0.21201185324E+02  0.00000000000E+00 0. -1.
</event>
<event>
 7    1  0.2973028E-011  0.5052882E+02  0.7816164E-02  0.1300439E+00
        -11   -1    0    0    0    0  0.00000000000E+00  0.00000000000E+00  0.45593999997E+02  0.45594000000E+02  0.51100000000E-03 0. -1.
         11   -1    0    0    0    0 -0.00000000000E+00 -0.00000000000E+00 -0.45593999997E+02  0.45594000000E+02  0.51100000000E-03 0.  1.
    9900012    2    1    2    0    0 -0.10294543710E+01 -0.37690607003E+02 -0.15216012925E+02  0.50528822907E+02  0.29999887706E+02 0.  0.
         12    1    1    2    0    0  0.10294543710E+01  0.37690607003E+02  0.15216012925E+02  0.40659177093E+02  0.00000000000E+00 0. -1.
         11    1    3    3    0    0  0.98514473047E+01 -0.13014366146E+02 -0.21885647237E+01  0.16468593018E+02  0.51100000000E-03 0. -1.
        -11    1    3    3    0    0 -0.12032660612E+02 -0.22404664025E+02 -0.16077065209E+02  0.30086972554E+02  0.51100000000E-03 0.  1.
        -12    1    3    3    0    0  0.11517589366E+01 -0.22715768321E+01  0.30496170074E+01  0.39732573343E+01  0.00000000000E+00 0.  1.
</event>
<event>
 7    1  0.2973028E-011  0.5052886E+02  0.7816164E-02  0.1300439E+00
        -11   -1    0    0    0    0  0.00000000000E+00  0.00000000000E+00  0.45593999997E+02  0.45594000000E+02  0.51100000000E-03 0. -1.
         11   -1    0    0    0    0 -0.00000000000E+00 -0.00000000000E+00 -0.45593999997E+02  0.45594000000E+02  0.51100000000E-03 0.  1.
    9900012    2    1    2    0    0  0.23641281893E+01  0.85440709179E+01 -0.39680917797E+02  0.50528862193E+02  0.30000007123E+02 0.  0.
         12    1    1    2    0    0 -0.23641281893E+01 -0.85440709179E+01  0.39680917797E+02  0.40659137807E+02  0.00000000000E+00 0. -1.
         11    1    3    3    0    0 -0.52330540572E+01  0.10600752046E+02 -0.58159930681E+01  0.13175225779E+02  0.51100000000E-03 0. -1.
        -11    1    3    3    0    0  0.13798895730E+01 -0.65435147203E+00 -0.29701629626E+02  0.29740865384E+02  0.51100000000E-03 0.  1.
        -12    1    3    3    0    0  0.62172926735E+01 -0.14023296557E+01 -0.41632951032E+01  0.76127710308E+01  0.00000000000E+00 0.  1.
</event>
<event>
 7    1  0.2973028E-011  0.5052886E+02  0.7816164E-02  0.1300439E+00
        -11   -1    0    0    0    0  0.00000000000E+00  0.00000000000E+00  0.45593999997E+02  0.45594000000E+02  0.51100000000E-03 0. -1.
         11   -1    0    0    0    0 -0.00000000000E+00 -0.00000000000E+00 -0.45593999997E+02  0.45594000000E+02  0.51100000000E-03 0.  1.
    9900012    2    1    2    0    0 -0.85124603209E+01  0.17213445200E+02 -0.35838541208E+02  0.50528859425E+02  0.29999998709E+02 0.  0.
         12    1    1    2    0    0  0.85124603209E+01 -0.17213445200E+02  0.35838541208E+02  0.40659140575E+02  0.00000000000E+00 0. -1.
         11    1    3    3    0    0 -0.15930495841E+02  0.51015009466E+01 -0.29095788639E+02  0.33561450005E+02  0.51100000000E-03 0. -1.
        -11    1    3    3    0    0  0.43575264374E+01  0.18912699787E+01 -0.31916122993E+01  0.57228776079E+01  0.51100000000E-03 0.  1.
         12    1    3    3    0    0  0.30605090826E+01  0.10220674274E+02 -0.35511402698E+01  0.11244531813E+02  0.00000000000E+00 0. -1.
</event>
<event>
 7    1  0.2973028E-011  0.5052887E+02  0.7816164E-02  0.1300439E+00
        -11   -1    0    0    0    0  0.00000000000E+00  0.00000000000E+00  0.45593999997E+02  0.45594000000E+02  0.51100000000E-03 0.  1.
         11   -1    0    0    0    0 -0.00000000000E+00 -0.00000000000E+00 -0.45593999997E+02  0.45594000000E+02  0.51100000000E-03 0. -1.
    9900012    2    1    2    0    0 -0.23609390153E+02  0.33068159963E+02 -0.15029022932E+01  0.50528865454E+02  0.30000017034E+02 0.  0.
         12    1    1    2    0    0  0.23609390153E+02 -0.33068159963E+02  0.15029022932E+01  0.40659134546E+02  0.00000000000E+00 0. -1.
         11    1    3    3    0    0 -0.14194578929E+02  0.27244095312E+02 -0.32245712823E+01  0.30888908374E+02  0.51100000000E-03 0. -1.
        -11    1    3    3    0    0 -0.70114179620E+01 -0.13577255493E+01 -0.56233838058E+01  0.90898760275E+01  0.51100000000E-03 0.  1.
        -12    1    3    3    0    0 -0.24033932629E+01  0.71817902000E+01  0.73450527950E+01  0.10550081053E+02  0.00000000000E+00 0.  1.
</event>
<event>
 7    1  0.2973028E-011  0.5052886E+02  0.7816164E-02  0.1300439E+00
        -11   -1    0    0    0    0  0.00000000000E+00  0.00000000000E+00  0.45593999997E+02  0.45594000000E+02  0.51100000000E-03 0.  1.
         11   -1    0    0    0    0 -0.00000000000E+00 -0.00000000000E+00 -0.45593999997E+02  0.45594000000E+02  0.51100000000E-03 0. -1.
    9900012    2    1    2    0    0 -0.29961558304E+02 -0.57697092154E+01  0.26873423194E+02  0.50528863332E+02  0.30000010585E+02 0.  0.
         12    1    1    2    0    0  0.29961558304E+02  0.57697092154E+01 -0.26873423194E+02  0.40659136668E+02  0.00000000000E+00 0. -1.
         11    1    3    3    0    0 -0.23336186907E+02 -0.94626717317E+01  0.48220241711E+01  0.25639260774E+02  0.51100000000E-03 0.  1.
        -11    1    3    3    0    0 -0.80972762046E+01  0.20209993558E+01  0.20611998882E+02  0.22237464300E+02  0.51100000000E-03 0. -1.
        -12    1    3    3    0    0  0.14719048083E+01  0.16719631605E+01  0.14394001402E+01  0.26521382578E+01  0.00000000000E+00 0.  1.
</event>
<event>
 7    1  0.2973028E-011  0.5052884E+02  0.7816164E-02  0.1300439E+00
        -11   -1    0    0    0    0  0.00000000000E+00  0.00000000000E+00  0.45593999997E+02  0.45594000000E+02  0.51100000000E-03 0.  1.
         11   -1    0    0    0    0 -0.00000000000E+00 -0.00000000000E+00 -0.45593999997E+02  0.45594000000E+02  0.51100000000E-03 0. -1.
    9900012    2    1    2    0    0  0.14222207581E+02  0.34787800576E+02  0.15514671130E+02  0.50528840175E+02  0.29999940196E+02 0.  0.
         12    1    1    2    0    0 -0.14222207581E+02 -0.34787800576E+02 -0.15514671130E+02  0.40659159825E+02  0.00000000000E+00 0. -1.
         11    1    3    3    0    0 -0.80071967536E+01  0.11902617446E+02  0.31971987933E+01  0.14697264449E+02  0.51100000000E-03 0. -1.
        -11    1    3    3    0    0  0.40226121767E+01  0.78115570399E+01  0.78371938546E+01  0.11773845586E+02  0.51100000000E-03 0.  1.
         12    1    3    3    0    0  0.18206792158E+02  0.15073626091E+02  0.44802784819E+01  0.24057730140E+02  0.00000000000E+00 0. -1.
</event>
<event>
 7    1  0.2973028E-011  0.5052886E+02  0.7816164E-02  0.1300439E+00
        -11   -1    0    0    0    0  0.00000000000E+00  0.00000000000E+00  0.45593999997E+02  0.45594000000E+02  0.51100000000E-03 0.  1.
         11   -1    0    0    0    0 -0.00000000000E+00 -0.00000000000E+00 -0.45593999997E+02  0.45594000000E+02  0.51100000000E-03 0. -1.
    9900012    2    1    2    0    0 -0.34087394316E+02  0.48711996182E+01  0.21621430649E+02  0.50528864491E+02  0.30000014108E+02 0.  0.
         12    1    1    2    0    0  0.34087394316E+02 -0.48711996182E+01 -0.21621430649E+02  0.40659135509E+02  0.00000000000E+00 0. -1.
         11    1    3    3    0    0 -0.72214016148E+01  0.12393186675E+02  0.26178392547E+01  0.14580562399E+02  0.51100000000E-03 0. -1.
        -11    1    3    3    0    0 -0.21365990873E+02 -0.65999133722E+01  0.82513635955E+01  0.23835885214E+02  0.51100000000E-03 0.  1.
         12    1    3    3    0    0 -0.55000018287E+01 -0.92207368446E+00  0.10752227799E+02  0.12112416878E+02  0.00000000000E+00 0. -1.
</event>
<event>
 7    1  0.2973028E-011  0.5052887E+02  0.7816164E-02  0.1300439E+00
        -11   -1    0    0    0    0  0.00000000000E+00  0.00000000000E+00  0.45593999997E+02  0.45594000000E+02  0.51100000000E-03 0.  1.
         11   -1    0    0    0    0 -0.00000000000E+00 -0.00000000000E+00 -0.45593999997E+02  0.45594000000E+02  0.51100000000E-03 0. -1.
    9900012    2    1    2    0    0  0.19855235086E+02  0.17843558079E+02  0.30668257057E+02  0.50528869216E+02  0.30000028468E+02 0.  0.
         12    1    1    2    0    0 -0.19855235086E+02 -0.17843558079E+02 -0.30668257057E+02  0.40659130784E+02  0.00000000000E+00 0. -1.
         11    1    3    3    0    0  0.24687578148E+01  0.18611098128E+00  0.58148188655E+00  0.25431326924E+01  0.51100000000E-03 0. -1.
        -11    1    3    3    0    0 -0.48283904950E+00  0.82743800032E+00 -0.50409152545E+01  0.51311415938E+01  0.51100000000E-03 0.  1.
        -12    1    3    3    0    0  0.17869316320E+02  0.16830009098E+02  0.35127690425E+02  0.42854594929E+02  0.00000000000E+00 0.  1.
</event>
<event>
 7    1  0.2973028E-011  0.5052886E+02  0.7816164E-02  0.1300439E+00
        -11   -1    0    0    0    0  0.00000000000E+00  0.00000000000E+00  0.45593999997E+02  0.45594000000E+02  0.51100000000E-03 0.  1.
         11   -1    0    0    0    0 -0.00000000000E+00 -0.00000000000E+00 -0.45593999997E+02  0.45594000000E+02  0.51100000000E-03 0. -1.
    9900012    2    1    2    0    0  0.38892890728E+02  0.11403456339E+02  0.32357481686E+01  0.50528857955E+02  0.29999994240E+02 0.  0.
         12    1    1    2    0    0 -0.38892890728E+02 -0.11403456339E+02 -0.32357481686E+01  0.40659142045E+02  0.00000000000E+00 0. -1.
         11    1    3    3    0    0  0.12580028952E+02  0.38782550089E+01 -0.97572133308E+01  0.16386006304E+02  0.51100000000E-03 0. -1.
        -11    1    3    3    0    0  0.15603271225E+02 -0.33723923524E+01  0.91016946447E+01  0.18375961166E+02  0.51100000000E-03 0.  1.
         12    1    3    3    0    0  0.10709590550E+02  0.10897593683E+02  0.38912668547E+01  0.15766890485E+02  0.00000000000E+00 0. -1.
</event>
<event>
 7    1  0.2973028E-011  0.5052886E+02  0.7816164E-02  0.1300439E+00
        -11   -1    0    0    0    0  0.00000000000E+00  0.00000000000E+00  0.45593999997E+02  0.45594000000E+02  0.51100000000E-03 0.  1.
         11   -1    0    0    0    0 -0.00000000000E+00 -0.00000000000E+00 -0.45593999997E+02  0.45594000000E+02  0.51100000000E-03 0. -1.
    9900012    2    1    2    0    0  0.28458914436E+02 -0.11247779356E+01  0.29017078680E+02  0.50528858453E+02  0.29999995753E+02 0.  0.
         12    1    1    2    0    0 -0.28458914436E+02  0.11247779356E+01 -0.29017078680E+02  0.40659141547E+02  0.00000000000E+00 0. -1.
         11    1    3    3    0    0  0.43593771506E+01 -0.68772557825E+01  0.66884412371E+01  0.10537365073E+02  0.51100000000E-03 0. -1.
        -11    1    3    3    0    0  0.39025719207E+00  0.80700209829E+01  0.10904707694E+02  0.13571668633E+02  0.51100000000E-03 0.  1.
        -12    1    3    3    0    0  0.23709280093E+02 -0.23175431360E+01  0.11423929749E+02  0.26419824746E+02  0.00000000000E+00 0.  1.
</event>
<event>
 7    1  0.2973028E-011  0.5052886E+02  0.7816164E-02  0.1300439E+00
        -11   -1    0    0    0    0  0.00000000000E+00  0.00000000000E+00  0.45593999997E+02  0.45594000000E+02  0.51100000000E-03 0.  1.
         11   -1    0    0    0    0 -0.00000000000E+00 -0.00000000000E+00 -0.45593999997E+02  0.45594000000E+02  0.51100000000E-03 0. -1.
    9900012    2    1    2    0    0 -0.36452913339E+01  0.17704691114E+02  0.36420070920E+02  0.50528858320E+02  0.29999995349E+02 0.  0.
         12    1    1    2    0    0  0.36452913339E+01 -0.17704691114E+02 -0.36420070920E+02  0.40659141680E+02  0.00000000000E+00 0. -1.
         11    1    3    3    0    0 -0.34700724193E+00  0.13626117150E+01  0.72580641882E+00  0.15823779355E+01  0.51100000000E-03 0. -1.
        -11    1    3    3    0    0 -0.13307430394E+02  0.35841416384E+01  0.27540295886E+02  0.30796130808E+02  0.51100000000E-03 0.  1.
        -12    1    3    3    0    0  0.10009146302E+02  0.12757937761E+02  0.81539686149E+01  0.18150349577E+02  0.00000000000E+00 0.  1.
</event>
<event>
 7    1  0.2973028E-011  0.5052886E+02  0.7816164E-02  0.1300439E+00
        -11   -1    0    0    0    0  0.00000000000E+00  0.00000000000E+00  0.45593999997E+02  0.45594000000E+02  0.51100000000E-03 0. -1.
         11   -1    0    0    0    0 -0.00000000000E+00 -0.00000000000E+00 -0.45593999997E+02  0.45594000000E+02  0.51100000000E-03 0.  1.
    9900012    2    1    2    0    0 -0.18303058402E+01  0.33581108961E+02 -0.22850053670E+02  0.50528857716E+02  0.29999993514E+02 0.  0.
         12    1    1    2    0    0  0.18303058402E+01 -0.33581108961E+02  0.22850053670E+02  0.40659142284E+02  0.00000000000E+00 0. -1.
         11    1    3    3    0    0  0.23239922734E+01 -0.24380259035E+00 -0.34995418751E+01  0.42079892332E+01  0.51100000000E-03 0. -1.
        -11    1    3    3    0    0  0.35558734327E+01  0.21256291870E+02  0.54314652389E+00  0.21558506171E+02  0.51100000000E-03 0.  1.
        -12    1    3    3    0    0 -0.77101715463E+01  0.12568619682E+02 -0.19893658318E+02  0.24762362312E+02  0.00000000000E+00 0.  1.
</event>
<event>
 7    1  0.2973028E-011  0.5052887E+02  0.7816164E-02  0.1300439E+00
        -11   -1    0    0    0    0  0.00000000000E+00  0.00000000000E+00  0.45593999997E+02  0.45594000000E+02  0.51100000000E-03 0.  1.
         11   -1    0    0    0    0 -0.00000000000E+00 -0.00000000000E+00 -0.45593999997E+02  0.45594000000E+02  0.51100000000E-03 0. -1.
    9900012    2    1    2    0    0  0.80870623481E+01 -0.19689766343E+02  0.34642137359E+02  0.50528866255E+02  0.30000019470E+02 0.  0.
         12    1    1    2    0    0 -0.80870623481E+01  0.19689766343E+02 -0.34642137359E+02  0.40659133745E+02  0.00000000000E+00 0. -1.
         11    1    3    3    0    0 -0.67276970153E+01 -0.16326273176E+02  0.20508645613E+02  0.27063141874E+02  0.51100000000E-03 0.  1.
        -11    1    3    3    0    0  0.10195794173E+02 -0.73471782828E+01  0.10415668352E+02  0.16322420011E+02  0.51100000000E-03 0. -1.
         12    1    3    3    0    0  0.46189651908E+01  0.39836851163E+01  0.37178233945E+01  0.71433043707E+01  0.00000000000E+00 0. -1.
</event>
<event>
 7    1  0.2973028E-011  0.5052886E+02  0.7816164E-02  0.1300439E+00
        -11   -1    0    0    0    0  0.00000000000E+00  0.00000000000E+00  0.45593999997E+02  0.45594000000E+02  0.51100000000E-03 0.  1.
         11   -1    0    0    0    0 -0.00000000000E+00 -0.00000000000E+00 -0.45593999997E+02  0.45594000000E+02  0.51100000000E-03 0. -1.
    9900012    2    1    2    0    0  0.13325696074E+02 -0.21401538158E+02  0.31899301334E+02  0.50528862810E+02  0.30000008999E+02 0.  0.
         12    1    1    2    0    0 -0.13325696074E+02  0.21401538158E+02 -0.31899301334E+02  0.40659137190E+02  0.00000000000E+00 0. -1.
         11    1    3    3    0    0 -0.58881552512E+01 -0.63851665828E+01  0.59407373175E+01  0.10522978889E+02  0.51100000000E-03 0. -1.
        -11    1    3    3    0    0  0.13849761797E+02 -0.10569359416E+02  0.53098158553E+01  0.18213220610E+02  0.51100000000E-03 0.  1.
        -12    1    3    3    0    0  0.53640895282E+01 -0.44470121594E+01  0.20648748161E+02  0.21792663312E+02  0.00000000000E+00 0.  1.
</event>
<event>
 7    1  0.2973028E-011  0.5052886E+02  0.7816164E-02  0.1300439E+00
        -11   -1    0    0    0    0  0.00000000000E+00  0.00000000000E+00  0.45593999997E+02  0.45594000000E+02  0.51100000000E-03 0. -1.
         11   -1    0    0    0    0 -0.00000000000E+00 -0.00000000000E+00 -0.45593999997E+02  0.45594000000E+02  0.51100000000E-03 0.  1.
    9900012    2    1    2    0    0  0.28954481503E+02 -0.14247039626E+02 -0.24735103258E+02  0.50528862400E+02  0.30000007750E+02 0.  0.
         12    1    1    2    0    0 -0.28954481503E+02  0.14247039626E+02  0.24735103258E+02  0.40659137600E+02  0.00000000000E+00 0. -1.
         11    1    3    3    0    0 -0.83218126176E+00 -0.12528219655E+02 -0.60501055510E+01  0.13937452809E+02  0.51100000000E-03 0. -1.
        -11    1    3    3    0    0  0.37224605078E+01  0.31554441642E+01 -0.37852580031E+01  0.61758981951E+01  0.51100000000E-03 0.  1.
         12    1    3    3    0    0  0.26064202257E+02 -0.48742641352E+01 -0.14899739704E+02  0.30415511395E+02  0.00000000000E+00 0. -1.
</event>
<event>
 7    1  0.3177343E-011  0.5052890E+02  0.7816164E-02  0.1300439E+00
        -11   -1    0    0    0    0  0.00000000000E+00  0.00000000000E+00  0.45593999997E+02  0.45594000000E+02  0.51100000000E-03 0. -1.
         11   -1    0    0    0    0 -0.00000000000E+00 -0.00000000000E+00 -0.45593999997E+02  0.45594000000E+02  0.51100000000E-03 0.  1.
    9900012    2    1    2    0    0  0.29041353154E+02  0.24825630518E+02 -0.13908651684E+02  0.50528896280E+02  0.30000110733E+02 0.  0.
         12    1    1    2    0    0 -0.29041353154E+02 -0.24825630518E+02  0.13908651684E+02  0.40659103720E+02  0.00000000000E+00 0. -1.
         11    1    3    3    0    0 -0.28805287793E+01  0.65712379119E+01  0.94000905384E+00  0.72361751655E+01  0.51100000000E-03 0. -1.
        -11    1    3    3    0    0  0.27140204778E+02  0.21656302559E+02 -0.13618814139E+02  0.37296893366E+02  0.51100000000E-03 0.  1.
         12    1    3    3    0    0  0.47816771553E+01 -0.34019099523E+01 -0.12298465983E+01  0.59958277491E+01  0.00000000000E+00 0. -1.
</event>
<event>
 7    1  0.2973028E-011  0.5052886E+02  0.7816164E-02  0.1300439E+00
        -11   -1    0    0    0    0  0.00000000000E+00  0.00000000000E+00  0.45593999997E+02  0.45594000000E+02  0.51100000000E-03 0. -1.
         11   -1    0    0    0    0 -0.00000000000E+00 -0.00000000000E+00 -0.45593999997E+02  0.45594000000E+02  0.51100000000E-03 0.  1.
    9900012    2    1    2    0    0 -0.53472648616E+01 -0.22429536236E+02 -0.33488633586E+02  0.50528856912E+02  0.29999991068E+02 0.  0.
         12    1    1    2    0    0  0.53472648616E+01  0.22429536236E+02  0.33488633586E+02  0.40659143088E+02  0.00000000000E+00 0. -1.
         11    1    3    3    0    0 -0.29507910389E+01 -0.12351260670E+01 -0.28717846782E+01  0.42988197980E+01  0.51100000000E-03 0. -1.
        -11    1    3    3    0    0 -0.14987144911E+01  0.65173363144E+01 -0.39821765952E+01  0.77832864817E+01  0.51100000000E-03 0.  1.
        -12    1    3    3    0    0 -0.89775933161E+00 -0.27711746483E+02 -0.26634672312E+02  0.38446750632E+02  0.00000000000E+00 0.  1.
</event>
<event>
 7    1  0.2973028E-011  0.5052886E+02  0.7816164E-02  0.1300439E+00
        -11   -1    0    0    0    0  0.00000000000E+00  0.00000000000E+00  0.45593999997E+02  0.45594000000E+02  0.51100000000E-03 0.  1.
         11   -1    0    0    0    0 -0.00000000000E+00 -0.00000000000E+00 -0.45593999997E+02  0.45594000000E+02  0.51100000000E-03 0. -1.
    9900012    2    1    2    0    0  0.19358157260E+02  0.19746880204E+02  0.29807512580E+02  0.50528864047E+02  0.30000012756E+02 0.  0.
         12    1    1    2    0    0 -0.19358157260E+02 -0.19746880204E+02 -0.29807512580E+02  0.40659135953E+02  0.00000000000E+00 0. -1.
         11    1    3    3    0    0  0.25220515034E+02  0.11675539749E+02  0.17500028184E+02  0.32842709902E+02  0.51100000000E-03 0. -1.
        -11    1    3    3    0    0  0.82346008100E+00  0.22313862144E+01 -0.15691927170E+00  0.23836515815E+01  0.51100000000E-03 0.  1.
         12    1    3    3    0    0 -0.66858178548E+01  0.58399542403E+01  0.12464403667E+02  0.15302502563E+02  0.00000000000E+00 0. -1.
</event>
<event>
 7    1  0.2973028E-011  0.5052887E+02  0.7816164E-02  0.1300439E+00
        -11   -1    0    0    0    0  0.00000000000E+00  0.00000000000E+00  0.45593999997E+02  0.45594000000E+02  0.51100000000E-03 0. -1.
         11   -1    0    0    0    0 -0.00000000000E+00 -0.00000000000E+00 -0.45593999997E+02  0.45594000000E+02  0.51100000000E-03 0.  1.
    9900012    2    1    2    0    0 -0.22983652797E+02 -0.20240291987E+02 -0.26744109905E+02  0.50528866583E+02  0.30000020467E+02 0.  0.
         12    1    1    2    0    0  0.22983652797E+02  0.20240291987E+02  0.26744109905E+02  0.40659133417E+02  0.00000000000E+00 0. -1.
         11    1    3    3    0    0 -0.39805086800E+01 -0.21063589540E+00  0.58640685349E+01  0.70905653424E+01  0.51100000000E-03 0. -1.
        -11    1    3    3    0    0 -0.19008644326E+02 -0.16634623325E+02 -0.27929519745E+02  0.37657633034E+02  0.51100000000E-03 0.  1.
         12    1    3    3    0    0  0.55002096670E-02 -0.33950327660E+01 -0.46786586951E+01  0.57806682070E+01  0.00000000000E+00 0. -1.
</event>
<event>
 7    1  0.2973028E-011  0.5052885E+02  0.7816164E-02  0.1300439E+00
        -11   -1    0    0    0    0  0.00000000000E+00  0.00000000000E+00  0.45593999997E+02  0.45594000000E+02  0.51100000000E-03 0.  1.
         11   -1    0    0    0    0 -0.00000000000E+00 -0.00000000000E+00 -0.45593999997E+02  0.45594000000E+02  0.51100000000E-03 0. -1.
    9900012    2    1    2    0    0  0.24280185231E+02  0.16632127090E+01  0.32571040857E+02  0.50528851289E+02  0.29999973978E+02 0.  0.
         12    1    1    2    0    0 -0.24280185231E+02 -0.16632127090E+01 -0.32571040857E+02  0.40659148711E+02  0.00000000000E+00 0. -1.
         11    1    3    3    0    0  0.25724988178E+01 -0.18988590288E+01 -0.18437252198E+01  0.36908994468E+01  0.51100000000E-03 0. -1.
        -11    1    3    3    0    0  0.22320075770E+02  0.10083083242E+02  0.30820134729E+02  0.39366674422E+02  0.51100000000E-03 0.  1.
        -12    1    3    3    0    0 -0.61238935679E+00 -0.65210115043E+01  0.35946313480E+01  0.74712774203E+01  0.00000000000E+00 0.  1.
</event>
<event>
 7    1  0.2973028E-011  0.5052886E+02  0.7816164E-02  0.1300439E+00
        -11   -1    0    0    0    0  0.00000000000E+00  0.00000000000E+00  0.45593999997E+02  0.45594000000E+02  0.51100000000E-03 0. -1.
         11   -1    0    0    0    0 -0.00000000000E+00 -0.00000000000E+00 -0.45593999997E+02  0.45594000000E+02  0.51100000000E-03 0.  1.
    9900012    2    1    2    0    0 -0.15179264708E+02  0.37560351338E+02  0.34606269097E+01  0.50528855785E+02  0.29999987644E+02 0.  0.
         12    1    1    2    0    0  0.15179264708E+02 -0.37560351338E+02 -0.34606269097E+01  0.40659144215E+02  0.00000000000E+00 0. -1.
         11    1    3    3    0    0 -0.28354791726E+00  0.32529400029E+01  0.44859840915E+00  0.32959458245E+01  0.51100000000E-03 0. -1.
        -11    1    3    3    0    0 -0.13457775494E+02  0.32637330442E+02 -0.78368471436E+01  0.36162456126E+02  0.51100000000E-03 0.  1.
        -12    1    3    3    0    0 -0.14379412971E+01  0.16700808925E+01  0.10848875644E+02  0.11070453835E+02  0.00000000000E+00 0.  1.
</event>
<event>
 7    1  0.2973028E-011  0.5052886E+02  0.7816164E-02  0.1300439E+00
        -11   -1    0    0    0    0  0.00000000000E+00  0.00000000000E+00  0.45593999997E+02  0.45594000000E+02  0.51100000000E-03 0.  1.
         11   -1    0    0    0    0 -0.00000000000E+00 -0.00000000000E+00 -0.45593999997E+02  0.45594000000E+02  0.51100000000E-03 0. -1.
    9900012    2    1    2    0    0  0.22391245430E+02  0.29341624198E+02  0.17054818390E+02  0.50528860648E+02  0.30000002427E+02 0.  0.
         12    1    1    2    0    0 -0.22391245430E+02 -0.29341624198E+02 -0.17054818390E+02  0.40659139352E+02  0.00000000000E+00 0. -1.
         11    1    3    3    0    0  0.17580301951E+02  0.14837609893E+01  0.11074952718E+02  0.20830821908E+02  0.51100000000E-03 0. -1.
        -11    1    3    3    0    0  0.41949177197E+01  0.94498896474E+01  0.43191717603E+01  0.11205043239E+02  0.51100000000E-03 0.  1.
         12    1    3    3    0    0  0.61602575867E+00  0.18407973562E+02  0.16606939119E+01  0.18492995502E+02  0.00000000000E+00 0. -1.
</event>
<event>
 7    1  0.2973028E-011  0.5052885E+02  0.7816164E-02  0.1300439E+00
        -11   -1    0    0    0    0  0.00000000000E+00  0.00000000000E+00  0.45593999997E+02  0.45594000000E+02  0.51100000000E-03 0. -1.
         11   -1    0    0    0    0 -0.00000000000E+00 -0.00000000000E+00 -0.45593999997E+02  0.45594000000E+02  0.51100000000E-03 0.  1.
    9900012    2    1    2    0    0  0.32034988678E+01  0.14189020733E+02 -0.37968088721E+02  0.50528850040E+02  0.29999970182E+02 0.  0.
         12    1    1    2    0    0 -0.32034988678E+01 -0.14189020733E+02  0.37968088721E+02  0.40659149960E+02  0.00000000000E+00 0. -1.
         11    1    3    3    0    0 -0.12515186293E+01  0.15645179826E+02 -0.21337014017E+02  0.26487848499E+02  0.51100000000E-03 0. -1.
        -11    1    3    3    0    0  0.47245865701E+01 -0.28422735515E+01  0.16111401758E+01  0.57442153622E+01  0.51100000000E-03 0.  1.
        -12    1    3    3    0    0 -0.26956907303E+00  0.13861144583E+01 -0.18242214879E+02  0.18296786179E+02  0.00000000000E+00 0.  1.
</event>
<event>
 7    1  0.2973028E-011  0.5052886E+02  0.7816164E-02  0.1300439E+00
        -11   -1    0    0    0    0  0.00000000000E+00  0.00000000000E+00  0.45593999997E+02  0.45594000000E+02  0.51100000000E-03 0.  1.
         11   -1    0    0    0    0 -0.00000000000E+00 -0.00000000000E+00 -0.45593999997E+02  0.45594000000E+02  0.51100000000E-03 0. -1.
    9900012    2    1    2    0    0  0.36666685803E+02  0.50349471826E-01  0.17570353965E+02  0.50528859315E+02  0.29999998373E+02 0.  0.
         12    1    1    2    0    0 -0.36666685803E+02 -0.50349471826E-01 -0.17570353965E+02  0.40659140685E+02  0.00000000000E+00 0. -1.
         11    1    3    3    0    0  0.13718196395E+02  0.57717496505E+01 -0.68996072437E+01  0.16404468499E+02  0.51100000000E-03 0. -1.
        -11    1    3    3    0    0  0.13081130382E+02 -0.28384294470E+01  0.12135177958E+02  0.18067517764E+02  0.51100000000E-03 0.  1.
         12    1    3    3    0    0  0.98673590258E+01 -0.28829707317E+01  0.12334783250E+02  0.16056873052E+02  0.00000000000E+00 0. -1.
</event>
<event>
 7    1  0.2973028E-011  0.5052886E+02  0.7816164E-02  0.1300439E+00
        -11   -1    0    0    0    0  0.00000000000E+00  0.00000000000E+00  0.45593999997E+02  0.45594000000E+02  0.51100000000E-03 0. -1.
         11   -1    0    0    0    0 -0.00000000000E+00 -0.00000000000E+00 -0.45593999997E+02  0.45594000000E+02  0.51100000000E-03 0.  1.
    9900012    2    1    2    0    0 -0.27091653545E+02  0.20080013013E+02 -0.22715659588E+02  0.50528858286E+02  0.29999995247E+02 0.  0.
         12    1    1    2    0    0  0.27091653545E+02 -0.20080013013E+02  0.22715659588E+02  0.40659141714E+02  0.00000000000E+00 0. -1.
         11    1    3    3    0    0 -0.45409580934E+00  0.54621784503E+00  0.49791430984E+01  0.50295549698E+01  0.51100000000E-03 0. -1.
        -11    1    3    3    0    0 -0.22753724774E+02  0.19498607645E+02 -0.17761995442E+02  0.34834123694E+02  0.51100000000E-03 0.  1.
         12    1    3    3    0    0 -0.38838329616E+01  0.35187522775E-01 -0.99328072441E+01  0.10665179623E+02  0.00000000000E+00 0. -1.
</event>
<event>
 7    1  0.2973028E-011  0.5052887E+02  0.7816164E-02  0.1300439E+00
        -11   -1    0    0    0    0  0.00000000000E+00  0.00000000000E+00  0.45593999997E+02  0.45594000000E+02  0.51100000000E-03 0.  1.
         11   -1    0    0    0    0 -0.00000000000E+00 -0.00000000000E+00 -0.45593999997E+02  0.45594000000E+02  0.51100000000E-03 0. -1.
    9900012    2    1    2    0    0 -0.36178265676E+02 -0.54093543294E+01  0.17749285022E+02  0.50528866458E+02  0.30000020086E+02 0.  0.
         12    1    1    2    0    0  0.36178265676E+02  0.54093543294E+01 -0.17749285022E+02  0.40659133542E+02  0.00000000000E+00 0. -1.
         11    1    3    3    0    0  0.42074222059E+01 -0.28291810579E+01  0.37204506507E+01  0.62887534840E+01  0.51100000000E-03 0. -1.
        -11    1    3    3    0    0 -0.10655381992E+02 -0.55846969917E+01  0.49592807962E+01  0.13012320014E+02  0.51100000000E-03 0.  1.
         12    1    3    3    0    0 -0.29730305890E+02  0.30045237202E+01  0.90695535755E+01  0.31227792960E+02  0.00000000000E+00 0. -1.
</event>
<event>
 7    1  0.2973028E-011  0.5052884E+02  0.7816164E-02  0.1300439E+00
        -11   -1    0    0    0    0  0.00000000000E+00  0.00000000000E+00  0.45593999997E+02  0.45594000000E+02  0.51100000000E-03 0. -1.
         11   -1    0    0    0    0 -0.00000000000E+00 -0.00000000000E+00 -0.45593999997E+02  0.45594000000E+02  0.51100000000E-03 0.  1.
    9900012    2    1    2    0    0  0.20086503564E+02 -0.16421992731E+02 -0.31305233939E+02  0.50528841836E+02  0.29999945243E+02 0.  0.
         12    1    1    2    0    0 -0.20086503564E+02  0.16421992731E+02  0.31305233939E+02  0.40659158164E+02  0.00000000000E+00 0. -1.
         11    1    3    3    0    0  0.13497602873E+02  0.45292932853E+01 -0.10620456404E+02  0.17762147265E+02  0.51100000000E-03 0.  1.
        -11    1    3    3    0    0 -0.44730204148E+00 -0.70405337004E+01 -0.24283074034E+00  0.70589064969E+01  0.51100000000E-03 0. -1.
        -12    1    3    3    0    0  0.70362027329E+01 -0.13910752316E+02 -0.20441946795E+02  0.25707788074E+02  0.00000000000E+00 0.  1.
</event>
<event>
 7    1  0.2973028E-011  0.5052893E+02  0.7816164E-02  0.1300439E+00
        -11   -1    0    0    0    0  0.00000000000E+00  0.00000000000E+00  0.45593999997E+02  0.45594000000E+02  0.51100000000E-03 0. -1.
         11   -1    0    0    0    0 -0.00000000000E+00 -0.00000000000E+00 -0.45593999997E+02  0.45594000000E+02  0.51100000000E-03 0.  1.
    9900012    2    1    2    0    0  0.13680075050E+02  0.25567258127E+02 -0.28501412320E+02  0.50528934028E+02  0.30000225470E+02 0.  0.
         12    1    1    2    0    0 -0.13680075050E+02 -0.25567258127E+02  0.28501412320E+02  0.40659065972E+02  0.00000000000E+00 0. -1.
         11    1    3    3    0    0  0.52848501353E+01  0.14485635577E+02 -0.21560600462E+01  0.15569581696E+02  0.51100000000E-03 0. -1.
        -11    1    3    3    0    0 -0.18635387295E+01 -0.38470026220E+01 -0.85901600048E+01  0.95949494495E+01  0.51100000000E-03 0.  1.
         12    1    3    3    0    0  0.10258763644E+02  0.14928625172E+02 -0.17755192269E+02  0.25364402882E+02  0.00000000000E+00 0. -1.
</event>
<event>
 7    1  0.2973028E-011  0.5052886E+02  0.7816164E-02  0.1300439E+00
        -11   -1    0    0    0    0  0.00000000000E+00  0.00000000000E+00  0.45593999997E+02  0.45594000000E+02  0.51100000000E-03 0.  1.
         11   -1    0    0    0    0 -0.00000000000E+00 -0.00000000000E+00 -0.45593999997E+02  0.45594000000E+02  0.51100000000E-03 0. -1.
    9900012    2    1    2    0    0  0.37815407158E+02  0.86449291318E+00  0.14913528176E+02  0.50528859709E+02  0.29999999572E+02 0.  0.
         12    1    1    2    0    0 -0.37815407158E+02 -0.86449291318E+00 -0.14913528176E+02  0.40659140291E+02  0.00000000000E+00 0. -1.
         11    1    3    3    0    0  0.27057414578E+02 -0.71080763805E+01  0.98754592277E+00  0.27992921975E+02  0.51100000000E-03 0. -1.
        -11    1    3    3    0    0  0.12737557590E+02  0.79332190737E+01  0.96973583776E+01  0.17866731598E+02  0.51100000000E-03 0.  1.
         12    1    3    3    0    0 -0.19795650095E+01  0.39350219946E-01  0.42286238756E+01  0.46692061368E+01  0.00000000000E+00 0. -1.
</event>
<event>
 7    1  0.2973028E-011  0.5052887E+02  0.7816164E-02  0.1300439E+00
        -11   -1    0    0    0    0  0.00000000000E+00  0.00000000000E+00  0.45593999997E+02  0.45594000000E+02  0.51100000000E-03 0.  1.
         11   -1    0    0    0    0 -0.00000000000E+00 -0.00000000000E+00 -0.45593999997E+02  0.45594000000E+02  0.51100000000E-03 0. -1.
    9900012    2    1    2    0    0 -0.38631274088E+02  0.60370515466E+01  0.11150960684E+02  0.50528865070E+02  0.30000015868E+02 0.  0.
         12    1    1    2    0    0  0.38631274088E+02 -0.60370515466E+01 -0.11150960684E+02  0.40659134930E+02  0.00000000000E+00 0. -1.
         11    1    3    3    0    0 -0.95950148732E+01 -0.69997298875E+01 -0.34305327931E+01  0.12362406093E+02  0.51100000000E-03 0. -1.
        -11    1    3    3    0    0 -0.19536896050E+02  0.65332023623E+01  0.16627736577E+02  0.26473659821E+02  0.51100000000E-03 0.  1.
        -12    1    3    3    0    0 -0.94993631647E+01  0.65035790718E+01 -0.20462430994E+01  0.11692799156E+02  0.00000000000E+00 0.  1.
</event>
<event>
 7    1  0.2973028E-011  0.5052886E+02  0.7816164E-02  0.1300439E+00
        -11   -1    0    0    0    0  0.00000000000E+00  0.00000000000E+00  0.45593999997E+02  0.45594000000E+02  0.51100000000E-03 0.  1.
         11   -1    0    0    0    0 -0.00000000000E+00 -0.00000000000E+00 -0.45593999997E+02  0.45594000000E+02  0.51100000000E-03 0. -1.
    9900012    2    1    2    0    0 -0.13351232878E+02  0.91330603271E+01  0.37302778572E+02  0.50528862042E+02  0.30000006662E+02 0.  0.
         12    1    1    2    0    0  0.13351232878E+02 -0.91330603271E+01 -0.37302778572E+02  0.40659137958E+02  0.00000000000E+00 0. -1.
         11    1    3    3    0    0  0.29252345979E+01  0.46670923476E+01  0.40672512725E+01  0.68469906973E+01  0.51100000000E-03 0. -1.
        -11    1    3    3    0    0 -0.14289660345E+02  0.73410728130E+00  0.50385695023E+01  0.15169722778E+02  0.51100000000E-03 0.  1.
        -12    1    3    3    0    0 -0.19868071313E+01  0.37318606982E+01  0.28196957797E+02  0.28512148566E+02  0.00000000000E+00 0.  1.
</event>
<event>
 7    1  0.2973028E-011  0.5052886E+02  0.7816164E-02  0.1300439E+00
        -11   -1    0    0    0    0  0.00000000000E+00  0.00000000000E+00  0.45593999997E+02  0.45594000000E+02  0.51100000000E-03 0.  1.
         11   -1    0    0    0    0 -0.00000000000E+00 -0.00000000000E+00 -0.45593999997E+02  0.45594000000E+02  0.51100000000E-03 0. -1.
    9900012    2    1    2    0    0  0.85102992403E+01 -0.78021678372E+01  0.38985469413E+02  0.50528857837E+02  0.29999993881E+02 0.  0.
         12    1    1    2    0    0 -0.85102992403E+01  0.78021678372E+01 -0.38985469413E+02  0.40659142163E+02  0.00000000000E+00 0. -1.
         11    1    3    3    0    0  0.10592670280E+02 -0.15731402389E+01  0.32357132427E+00  0.10713735694E+02  0.51100000000E-03 0. -1.
        -11    1    3    3    0    0  0.90379015370E+00  0.11783140743E+01  0.75353058385E+01  0.76802405588E+01  0.51100000000E-03 0.  1.
         12    1    3    3    0    0 -0.29861611929E+01 -0.74073416726E+01  0.31126592250E+02  0.32134881584E+02  0.00000000000E+00 0. -1.
</event>
<event>
 7    1  0.2973028E-011  0.5052886E+02  0.7816164E-02  0.1300439E+00
        -11   -1    0    0    0    0  0.00000000000E+00  0.00000000000E+00  0.45593999997E+02  0.45594000000E+02  0.51100000000E-03 0.  1.
         11   -1    0    0    0    0 -0.00000000000E+00 -0.00000000000E+00 -0.45593999997E+02  0.45594000000E+02  0.51100000000E-03 0. -1.
    9900012    2    1    2    0    0  0.19509642786E+02 -0.33571455956E+02  0.12062211168E+02  0.50528858901E+02  0.29999997115E+02 0.  0.
         12    1    1    2    0    0 -0.19509642786E+02  0.33571455956E+02 -0.12062211168E+02  0.40659141099E+02  0.00000000000E+00 0. -1.
         11    1    3    3    0    0 -0.71281770043E+01 -0.94938657408E+01  0.40044635301E+01  0.12529170864E+02  0.51100000000E-03 0. -1.
        -11    1    3    3    0    0  0.65672630965E+01 -0.99397452186E+01  0.60665161057E+01  0.13368997626E+02  0.51100000000E-03 0.  1.
         12    1    3    3    0    0  0.20070556694E+02 -0.14137844997E+02  0.19912315325E+01  0.24630690412E+02  0.00000000000E+00 0. -1.
</event>
<event>
 7    1  0.2973028E-011  0.5052886E+02  0.7816164E-02  0.1300439E+00
        -11   -1    0    0    0    0  0.00000000000E+00  0.00000000000E+00  0.45593999997E+02  0.45594000000E+02  0.51100000000E-03 0.  1.
         11   -1    0    0    0    0 -0.00000000000E+00 -0.00000000000E+00 -0.45593999997E+02  0.45594000000E+02  0.51100000000E-03 0. -1.
    9900012    2    1    2    0    0 -0.34592917486E+02  0.88236500168E+00  0.21347527063E+02  0.50528863020E+02  0.30000009637E+02 0.  0.
         12    1    1    2    0    0  0.34592917486E+02 -0.88236500168E+00 -0.21347527063E+02  0.40659136980E+02  0.00000000000E+00 0. -1.
         11    1    3    3    0    0  0.29420429112E+01 -0.55210713809E+01  0.54911881608E+01  0.83241211767E+01  0.51100000000E-03 0. -1.
        -11    1    3    3    0    0 -0.26108155427E+01 -0.46089694630E-01  0.39737934653E+01  0.47549465637E+01  0.51100000000E-03 0.  1.
         12    1    3    3    0    0 -0.34924144855E+02  0.64495260773E+01  0.11882545437E+02  0.37449795280E+02  0.00000000000E+00 0. -1.
</event>
<event>
 7    1  0.2973028E-011  0.5052887E+02  0.7816164E-02  0.1300439E+00
        -11   -1    0    0    0    0  0.00000000000E+00  0.00000000000E+00  0.45593999997E+02  0.45594000000E+02  0.51100000000E-03 0. -1.
         11   -1    0    0    0    0 -0.00000000000E+00 -0.00000000000E+00 -0.45593999997E+02  0.45594000000E+02  0.51100000000E-03 0.  1.
    9900012    2    1    2    0    0  0.46555784145E+01 -0.28813731982E+02  0.28306530357E+02  0.50528865455E+02  0.30000017036E+02 0.  0.
         12    1    1    2    0    0 -0.46555784145E+01  0.28813731982E+02 -0.28306530357E+02  0.40659134545E+02  0.00000000000E+00 0. -1.
         11    1    3    3    0    0  0.53373110681E+01 -0.87348510607E+01  0.26490742646E+02  0.28399717581E+02  0.51100000000E-03 0. -1.
        -11    1    3    3    0    0  0.24756584641E+01 -0.12002836267E+02 -0.23985154519E+01  0.12487987825E+02  0.51100000000E-03 0.  1.
         12    1    3    3    0    0 -0.31573911177E+01 -0.80760446546E+01  0.42143031628E+01  0.96411600485E+01  0.00000000000E+00 0. -1.
</event>
<event>
 7    1  0.2973028E-011  0.5052886E+02  0.7816164E-02  0.1300439E+00
        -11   -1    0    0    0    0  0.00000000000E+00  0.00000000000E+00  0.45593999997E+02  0.45594000000E+02  0.51100000000E-03 0. -1.
         11   -1    0    0    0    0 -0.00000000000E+00 -0.00000000000E+00 -0.45593999997E+02  0.45594000000E+02  0.51100000000E-03 0.  1.
    9900012    2    1    2    0    0 -0.13114710740E+02 -0.37444714364E+02 -0.88917500613E+01  0.50528862150E+02  0.30000006990E+02 0.  0.
         12    1    1    2    0    0  0.13114710740E+02  0.37444714364E+02  0.88917500613E+01  0.40659137850E+02  0.00000000000E+00 0. -1.
         11    1    3    3    0    0 -0.15154409645E+01 -0.26430372305E+01 -0.11909351505E+02  0.12292878453E+02  0.51100000000E-03 0. -1.
        -11    1    3    3    0    0 -0.12292166911E+02 -0.26214779525E+02 -0.43030171913E+00  0.28956815998E+02  0.51100000000E-03 0.  1.
         12    1    3    3    0    0  0.69289713475E+00 -0.85868976084E+01  0.34479031628E+01  0.92791676995E+01  0.00000000000E+00 0. -1.
</event>
<event>
 7    1  0.2973028E-011  0.5052887E+02  0.7816164E-02  0.1300439E+00
        -11   -1    0    0    0    0  0.00000000000E+00  0.00000000000E+00  0.45593999997E+02  0.45594000000E+02  0.51100000000E-03 0.  1.
         11   -1    0    0    0    0 -0.00000000000E+00 -0.00000000000E+00 -0.45593999997E+02  0.45594000000E+02  0.51100000000E-03 0. -1.
    9900012    2    1    2    0    0  0.38775119166E+02 -0.57012539705E+01  0.10823632206E+02  0.50528866004E+02  0.30000018705E+02 0.  0.
         12    1    1    2    0    0 -0.38775119166E+02  0.57012539705E+01 -0.10823632206E+02  0.40659133996E+02  0.00000000000E+00 0. -1.
         11    1    3    3    0    0  0.48212376846E+01  0.23967582403E+01 -0.31532397734E+01  0.62395275626E+01  0.51100000000E-03 0. -1.
        -11    1    3    3    0    0  0.33924258749E+02 -0.12102041366E+02  0.16435184991E+02  0.39590782297E+02  0.51100000000E-03 0.  1.
        -12    1    3    3    0    0  0.29622732301E-01  0.40040291549E+01 -0.24583130113E+01  0.46985561443E+01  0.00000000000E+00 0.  1.
</event>
<event>
 7    1  0.2973028E-011  0.5052887E+02  0.7816164E-02  0.1300439E+00
        -11   -1    0    0    0    0  0.00000000000E+00  0.00000000000E+00  0.45593999997E+02  0.45594000000E+02  0.51100000000E-03 0.  1.
         11   -1    0    0    0    0 -0.00000000000E+00 -0.00000000000E+00 -0.45593999997E+02  0.45594000000E+02  0.51100000000E-03 0. -1.
    9900012    2    1    2    0    0  0.10336317249E+02  0.37267460083E+02  0.12548385086E+02  0.50528868141E+02  0.30000025200E+02 0.  0.
         12    1    1    2    0    0 -0.10336317249E+02 -0.37267460083E+02 -0.12548385086E+02  0.40659131859E+02  0.00000000000E+00 0. -1.
         11    1    3    3    0    0  0.66021095333E+00 -0.14149051422E+01  0.24029977691E+01  0.28656994964E+01  0.51100000000E-03 0. -1.
        -11    1    3    3    0    0  0.37021110891E+01  0.14626856904E+02 -0.78740512244E+01  0.17019143702E+02  0.51100000000E-03 0.  1.
        -12    1    3    3    0    0  0.59739952062E+01  0.24055508322E+02  0.18019438541E+02  0.30644024942E+02  0.00000000000E+00 0.  1.
</event>
<event>
 7    1  0.2973028E-011  0.5052886E+02  0.7816164E-02  0.1300439E+00
        -11   -1    0    0    0    0  0.00000000000E+00  0.00000000000E+00  0.45593999997E+02  0.45594000000E+02  0.51100000000E-03 0.  1.
         11   -1    0    0    0    0 -0.00000000000E+00 -0.00000000000E+00 -0.45593999997E+02  0.45594000000E+02  0.51100000000E-03 0. -1.
    9900012    2    1    2    0    0 -0.21954502977E+02  0.19992744598E+02  0.27775095707E+02  0.50528856145E+02  0.29999988738E+02 0.  0.
         12    1    1    2    0    0  0.21954502977E+02 -0.19992744598E+02 -0.27775095707E+02  0.40659143855E+02  0.00000000000E+00 0. -1.
         11    1    3    3    0    0 -0.20907730893E+00 -0.45617703757E+01  0.73279328923E+01  0.86343536537E+01  0.51100000000E-03 0. -1.
        -11    1    3    3    0    0 -0.13180708095E+02  0.21396836846E+02  0.20999445107E+02  0.32749540271E+02  0.51100000000E-03 0.  1.
         12    1    3    3    0    0 -0.85647175737E+01  0.31576781269E+01 -0.55228229288E+00  0.91449622197E+01  0.00000000000E+00 0. -1.
</event>
<event>
 7    1  0.2973028E-011  0.5052886E+02  0.7816164E-02  0.1300439E+00
        -11   -1    0    0    0    0  0.00000000000E+00  0.00000000000E+00  0.45593999997E+02  0.45594000000E+02  0.51100000000E-03 0.  1.
         11   -1    0    0    0    0 -0.00000000000E+00 -0.00000000000E+00 -0.45593999997E+02  0.45594000000E+02  0.51100000000E-03 0. -1.
    9900012    2    1    2    0    0 -0.90126948772E+00  0.28306092016E+02  0.29173931062E+02  0.50528863444E+02  0.30000010924E+02 0.  0.
         12    1    1    2    0    0  0.90126948772E+00 -0.28306092016E+02 -0.29173931062E+02  0.40659136556E+02  0.00000000000E+00 0. -1.
         11    1    3    3    0    0 -0.81793013246E+00 -0.49467353932E+01 -0.68708426773E+00  0.50607594098E+01  0.51100000000E-03 0. -1.
        -11    1    3    3    0    0 -0.36891524423E+01  0.97873400730E+01  0.76649843556E+01  0.12967415197E+02  0.51100000000E-03 0.  1.
         12    1    3    3    0    0  0.36058130870E+01  0.23465487336E+02  0.22196030974E+02  0.32500688838E+02  0.00000000000E+00 0. -1.
</event>
<event>
 7    1  0.2973028E-011  0.5052886E+02  0.7816164E-02  0.1300439E+00
        -11   -1    0    0    0    0  0.00000000000E+00  0.00000000000E+00  0.45593999997E+02  0.45594000000E+02  0.51100000000E-03 0.  1.
         11   -1    0    0    0    0 -0.00000000000E+00 -0.00000000000E+00 -0.45593999997E+02  0.45594000000E+02  0.51100000000E-03 0. -1.
    9900012    2    1    2    0    0  0.21513499159E+02  0.31589632679E+02  0.13871924821E+02  0.50528857890E+02  0.29999994043E+02 0.  0.
         12    1    1    2    0    0 -0.21513499159E+02 -0.31589632679E+02 -0.13871924821E+02  0.40659142110E+02  0.00000000000E+00 0. -1.
         11    1    3    3    0    0  0.90722055174E+01 -0.23080409228E+01 -0.19958410223E+01  0.95715906462E+01  0.51100000000E-03 0. -1.
        -11    1    3    3    0    0  0.55219734832E+00  0.12563437391E+02  0.16137048177E+01  0.12678679919E+02  0.51100000000E-03 0.  1.
         12    1    3    3    0    0  0.11889096293E+02  0.21334236211E+02  0.14254061026E+02  0.28278587325E+02  0.00000000000E+00 0. -1.
</event>
<event>
 7    1  0.2973028E-011  0.5052875E+02  0.7816164E-02  0.1300439E+00
        -11   -1    0    0    0    0  0.00000000000E+00  0.00000000000E+00  0.45593999997E+02  0.45594000000E+02  0.51100000000E-03 0. -1.
         11   -1    0    0    0    0 -0.00000000000E+00 -0.00000000000E+00 -0.45593999997E+02  0.45594000000E+02  0.51100000000E-03 0.  1.
    9900012    2    1    2    0    0  0.17714137775E+02  0.13154292888E+02 -0.34151840466E+02  0.50528753749E+02  0.29999677492E+02 0.  0.
         12    1    1    2    0    0 -0.17714137775E+02 -0.13154292888E+02  0.34151840466E+02  0.40659246251E+02  0.00000000000E+00 0. -1.
         11    1    3    3    0    0 -0.52082255639E+01  0.13884349191E+01  0.69687336971E+00  0.54349790987E+01  0.51100000000E-03 0. -1.
        -11    1    3    3    0    0  0.21003055066E+02  0.78511520115E+01 -0.21552966861E+02  0.31101435510E+02  0.51100000000E-03 0.  1.
        -12    1    3    3    0    0  0.19193082730E+01  0.39147059571E+01 -0.13295746975E+02  0.13992339139E+02  0.00000000000E+00 0.  1.
</event>
<event>
 7    1  0.2973028E-011  0.5052886E+02  0.7816164E-02  0.1300439E+00
        -11   -1    0    0    0    0  0.00000000000E+00  0.00000000000E+00  0.45593999997E+02  0.45594000000E+02  0.51100000000E-03 0.  1.
         11   -1    0    0    0    0 -0.00000000000E+00 -0.00000000000E+00 -0.45593999997E+02  0.45594000000E+02  0.51100000000E-03 0. -1.
    9900012    2    1    2    0    0 -0.21315295822E+02 -0.34019563667E+02  0.64414903086E+01  0.50528863936E+02  0.30000012419E+02 0.  0.
         12    1    1    2    0    0  0.21315295822E+02  0.34019563667E+02 -0.64414903086E+01  0.40659136064E+02  0.00000000000E+00 0. -1.
         11    1    3    3    0    0 -0.17134268672E+02 -0.19746578624E+02  0.10375736622E+01  0.26164615221E+02  0.51100000000E-03 0. -1.
        -11    1    3    3    0    0 -0.28677188091E+01  0.41558729989E+01  0.25926497828E+01  0.56759954817E+01  0.51100000000E-03 0.  1.
        -12    1    3    3    0    0 -0.13133083410E+01 -0.18428858042E+02  0.28112668636E+01  0.18688253233E+02  0.00000000000E+00 0.  1.
</event>
<event>
 7    1  0.2973028E-011  0.5052885E+02  0.7816164E-02  0.1300439E+00
        -11   -1    0    0    0    0  0.00000000000E+00  0.00000000000E+00  0.45593999997E+02  0.45594000000E+02  0.51100000000E-03 0.  1.
         11   -1    0    0    0    0 -0.00000000000E+00 -0.00000000000E+00 -0.45593999997E+02  0.45594000000E+02  0.51100000000E-03 0. -1.
    9900012    2    1    2    0    0  0.66589576470E+01  0.61172241509E+01  0.39640938249E+02  0.50528854245E+02  0.29999982964E+02 0.  0.
         12    1    1    2    0    0 -0.66589576470E+01 -0.61172241509E+01 -0.39640938249E+02  0.40659145755E+02  0.00000000000E+00 0. -1.
         11    1    3    3    0    0 -0.69757219377E+01 -0.59290616598E+00  0.24186500498E+02  0.25179337578E+02  0.51100000000E-03 0. -1.
        -11    1    3    3    0    0  0.88199770992E+00  0.66456231820E+01  0.24555603470E+01  0.71394680696E+01  0.51100000000E-03 0.  1.
         12    1    3    3    0    0  0.12752681875E+02  0.64507134918E-01  0.12998877404E+02  0.18210048598E+02  0.00000000000E+00 0. -1.
</event>
<event>
 7    1  0.2973028E-011  0.5052885E+02  0.7816164E-02  0.1300439E+00
        -11   -1    0    0    0    0  0.00000000000E+00  0.00000000000E+00  0.45593999997E+02  0.45594000000E+02  0.51100000000E-03 0. -1.
         11   -1    0    0    0    0 -0.00000000000E+00 -0.00000000000E+00 -0.45593999997E+02  0.45594000000E+02  0.51100000000E-03 0.  1.
    9900012    2    1    2    0    0 -0.84096310598E+01 -0.43459868543E+01 -0.39541839952E+02  0.50528848471E+02  0.29999965412E+02 0.  0.
         12    1    1    2    0    0  0.84096310598E+01  0.43459868543E+01  0.39541839952E+02  0.40659151529E+02  0.00000000000E+00 0. -1.
         11    1    3    3    0    0  0.11235033483E+01 -0.10916758578E+02 -0.51356154661E+01  0.12116617684E+02  0.51100000000E-03 0. -1.
        -11    1    3    3    0    0 -0.52832721502E+01  0.84019278201E+01 -0.12191439427E+02  0.15720577320E+02  0.51100000000E-03 0.  1.
        -12    1    3    3    0    0 -0.42498622578E+01 -0.18311560969E+01 -0.22214785059E+02  0.22691653467E+02  0.00000000000E+00 0.  1.
</event>
<event>
 7    1  0.2973028E-011  0.5052886E+02  0.7816164E-02  0.1300439E+00
        -11   -1    0    0    0    0  0.00000000000E+00  0.00000000000E+00  0.45593999997E+02  0.45594000000E+02  0.51100000000E-03 0. -1.
         11   -1    0    0    0    0 -0.00000000000E+00 -0.00000000000E+00 -0.45593999997E+02  0.45594000000E+02  0.51100000000E-03 0.  1.
    9900012    2    1    2    0    0 -0.31091952287E+02 -0.24596126102E+02 -0.90270042654E+01  0.50528859303E+02  0.29999998336E+02 0.  0.
         12    1    1    2    0    0  0.31091952287E+02  0.24596126102E+02  0.90270042654E+01  0.40659140697E+02  0.00000000000E+00 0. -1.
         11    1    3    3    0    0  0.61096213971E+00 -0.31860079207E+01  0.11733307630E+01  0.34497284745E+01  0.51100000000E-03 0. -1.
        -11    1    3    3    0    0 -0.12152852059E+02  0.17938458839E+01  0.48529267381E+01  0.13208353206E+02  0.51100000000E-03 0.  1.
        -12    1    3    3    0    0 -0.19550062368E+02 -0.23203964065E+02 -0.15053261766E+02  0.33870777622E+02  0.00000000000E+00 0.  1.
</event>
<event>
 7    1  0.2973028E-011  0.5052886E+02  0.7816164E-02  0.1300439E+00
        -11   -1    0    0    0    0  0.00000000000E+00  0.00000000000E+00  0.45593999997E+02  0.45594000000E+02  0.51100000000E-03 0.  1.
         11   -1    0    0    0    0 -0.00000000000E+00 -0.00000000000E+00 -0.45593999997E+02  0.45594000000E+02  0.51100000000E-03 0. -1.
    9900012    2    1    2    0    0  0.14967340694E+01 -0.27449861779E+02  0.29957140230E+02  0.50528863569E+02  0.30000011304E+02 0.  0.
         12    1    1    2    0    0 -0.14967340694E+01  0.27449861779E+02 -0.29957140230E+02  0.40659136431E+02  0.00000000000E+00 0. -1.
         11    1    3    3    0    0  0.75828232387E+01 -0.44836565016E+00  0.95050972933E+01  0.12167461315E+02  0.51100000000E-03 0. -1.
        -11    1    3    3    0    0 -0.83005601280E+01 -0.26916744477E+02  0.13832393273E+02  0.31380655436E+02  0.51100000000E-03 0.  1.
        -12    1    3    3    0    0  0.22144709586E+01 -0.84751652337E-01  0.66196496642E+01  0.69807468186E+01  0.00000000000E+00 0.  1.
</event>
<event>
 7    1  0.2973028E-011  0.5052885E+02  0.7816164E-02  0.1300439E+00
        -11   -1    0    0    0    0  0.00000000000E+00  0.00000000000E+00  0.45593999997E+02  0.45594000000E+02  0.51100000000E-03 0.  1.
         11   -1    0    0    0    0 -0.00000000000E+00 -0.00000000000E+00 -0.45593999997E+02  0.45594000000E+02  0.51100000000E-03 0. -1.
    9900012    2    1    2    0    0  0.17182981829E+02  0.28368836796E+02  0.23518523466E+02  0.50528847135E+02  0.29999961351E+02 0.  0.
         12    1    1    2    0    0 -0.17182981829E+02 -0.28368836796E+02 -0.23518523466E+02  0.40659152865E+02  0.00000000000E+00 0. -1.
         11    1    3    3    0    0 -0.60560203642E+01  0.12056083976E+02  0.71174451689E+01  0.15253936196E+02  0.51100000000E-03 0. -1.
        -11    1    3    3    0    0  0.24271156884E+02  0.15448435986E+02  0.12911979815E+02  0.31535098762E+02  0.51100000000E-03 0.  1.
        -12    1    3    3    0    0 -0.10321546912E+01  0.86431683403E+00  0.34890984825E+01  0.37398121767E+01  0.00000000000E+00 0.  1.
</event>
<event>
 7    1  0.2973028E-011  0.5052886E+02  0.7816164E-02  0.1300439E+00
        -11   -1    0    0    0    0  0.00000000000E+00  0.00000000000E+00  0.45593999997E+02  0.45594000000E+02  0.51100000000E-03 0.  1.
         11   -1    0    0    0    0 -0.00000000000E+00 -0.00000000000E+00 -0.45593999997E+02  0.45594000000E+02  0.51100000000E-03 0. -1.
    9900012    2    1    2    0    0  0.61050804543E+01 -0.26860822708E+02  0.29906352274E+02  0.50528859450E+02  0.29999998784E+02 0.  0.
         12    1    1    2    0    0 -0.61050804543E+01  0.26860822708E+02 -0.29906352274E+02  0.40659140550E+02  0.00000000000E+00 0. -1.
         11    1    3    3    0    0 -0.72264638893E+01 -0.12282524106E+02  0.98324230699E+01  0.17313541591E+02  0.51100000000E-03 0. -1.
        -11    1    3    3    0    0  0.16374247587E+02 -0.14499227754E+02  0.20693453218E+02  0.30109177934E+02  0.51100000000E-03 0.  1.
         12    1    3    3    0    0 -0.30427032435E+01 -0.79070848302E-01 -0.61952401385E+00  0.31061399246E+01  0.00000000000E+00 0. -1.
</event>
<event>
 7    1  0.2973028E-011  0.5052887E+02  0.7816164E-02  0.1300439E+00
        -11   -1    0    0    0    0  0.00000000000E+00  0.00000000000E+00  0.45593999997E+02  0.45594000000E+02  0.51100000000E-03 0.  1.
         11   -1    0    0    0    0 -0.00000000000E+00 -0.00000000000E+00 -0.45593999997E+02  0.45594000000E+02  0.51100000000E-03 0. -1.
    9900012    2    1    2    0    0 -0.18634381066E+02  0.83541400239E+01  0.35158678166E+02  0.50528874780E+02  0.30000045382E+02 0.  0.
         12    1    1    2    0    0  0.18634381066E+02 -0.83541400239E+01 -0.35158678166E+02  0.40659125220E+02  0.00000000000E+00 0. -1.
         11    1    3    3    0    0  0.22673103674E+01 -0.14303601728E+00  0.23251587734E+02  0.23362309133E+02  0.51100000000E-03 0. -1.
        -11    1    3    3    0    0 -0.13811318555E+02  0.98741769917E+00  0.49096462336E+01  0.14691226645E+02  0.51100000000E-03 0.  1.
         12    1    3    3    0    0 -0.70903728793E+01  0.75097583420E+01  0.69974441986E+01  0.12475339003E+02  0.00000000000E+00 0. -1.
</event>
<event>
 7    1  0.2973028E-011  0.5052887E+02  0.7816164E-02  0.1300439E+00
        -11   -1    0    0    0    0  0.00000000000E+00  0.00000000000E+00  0.45593999997E+02  0.45594000000E+02  0.51100000000E-03 0.  1.
         11   -1    0    0    0    0 -0.00000000000E+00 -0.00000000000E+00 -0.45593999997E+02  0.45594000000E+02  0.51100000000E-03 0. -1.
    9900012    2    1    2    0    0  0.33084960393E+01  0.37942280488E+02  0.14233827815E+02  0.50528872502E+02  0.30000038456E+02 0.  0.
         12    1    1    2    0    0 -0.33084960393E+01 -0.37942280488E+02 -0.14233827815E+02  0.40659127498E+02  0.00000000000E+00 0. -1.
         11    1    3    3    0    0 -0.22362314010E+01  0.20579936590E+02  0.16828947516E+02  0.26678605580E+02  0.51100000000E-03 0. -1.
        -11    1    3    3    0    0 -0.23711983601E+01  0.14734613441E+02  0.55510161315E+00  0.14934508796E+02  0.51100000000E-03 0.  1.
         12    1    3    3    0    0  0.79159258004E+01  0.26277304567E+01 -0.31502213137E+01  0.89157581257E+01  0.00000000000E+00 0. -1.
</event>
<event>
 7    1  0.2973028E-011  0.5052887E+02  0.7816164E-02  0.1300439E+00
        -11   -1    0    0    0    0  0.00000000000E+00  0.00000000000E+00  0.45593999997E+02  0.45594000000E+02  0.51100000000E-03 0.  1.
         11   -1    0    0    0    0 -0.00000000000E+00 -0.00000000000E+00 -0.45593999997E+02  0.45594000000E+02  0.51100000000E-03 0. -1.
    9900012    2    1    2    0    0  0.13099867449E+02  0.38214137493E+02  0.46084852282E+01  0.50528868583E+02  0.30000026544E+02 0.  0.
         12    1    1    2    0    0 -0.13099867449E+02 -0.38214137493E+02 -0.46084852282E+01  0.40659131417E+02  0.00000000000E+00 0. -1.
         11    1    3    3    0    0 -0.14336303748E+00  0.10897040849E+02 -0.11091527732E+02  0.15549535039E+02  0.51100000000E-03 0. -1.
        -11    1    3    3    0    0  0.44339354105E+00  0.55993040186E+01  0.52557746504E+01  0.76923319457E+01  0.51100000000E-03 0.  1.
         12    1    3    3    0    0  0.12799836945E+02  0.21717792626E+02  0.10444238310E+02  0.27287001598E+02  0.00000000000E+00 0. -1.
</event>
<event>
 7    1  0.2973028E-011  0.5052889E+02  0.7816164E-02  0.1300439E+00
        -11   -1    0    0    0    0  0.00000000000E+00  0.00000000000E+00  0.45593999997E+02  0.45594000000E+02  0.51100000000E-03 0.  1.
         11   -1    0    0    0    0 -0.00000000000E+00 -0.00000000000E+00 -0.45593999997E+02  0.45594000000E+02  0.51100000000E-03 0. -1.
    9900012    2    1    2    0    0  0.32446402434E+02  0.98471298301E+00  0.24483151090E+02  0.50528888133E+02  0.30000085969E+02 0.  0.
         12    1    1    2    0    0 -0.32446402434E+02 -0.98471298301E+00 -0.24483151090E+02  0.40659111867E+02  0.00000000000E+00 0. -1.
         11    1    3    3    0    0  0.32656345903E+01  0.83670233243E+01  0.91720000692E+01  0.12837329711E+02  0.51100000000E-03 0. -1.
        -11    1    3    3    0    0  0.26129671043E+02 -0.11881332933E+02  0.14616582402E+02  0.32211337484E+02  0.51100000000E-03 0.  1.
        -12    1    3    3    0    0  0.30510967998E+01  0.44990225920E+01  0.69456861862E+00  0.54802209382E+01  0.00000000000E+00 0.  1.
</event>
<event>
 7    1  0.2973028E-011  0.5052886E+02  0.7816164E-02  0.1300439E+00
        -11   -1    0    0    0    0  0.00000000000E+00  0.00000000000E+00  0.45593999997E+02  0.45594000000E+02  0.51100000000E-03 0.  1.
         11   -1    0    0    0    0 -0.00000000000E+00 -0.00000000000E+00 -0.45593999997E+02  0.45594000000E+02  0.51100000000E-03 0. -1.
    9900012    2    1    2    0    0 -0.38342154197E+02  0.11447881758E+02  0.72104605841E+01  0.50528861703E+02  0.30000005634E+02 0.  0.
         12    1    1    2    0    0  0.38342154197E+02 -0.11447881758E+02 -0.72104605841E+01  0.40659138297E+02  0.00000000000E+00 0. -1.
         11    1    3    3    0    0 -0.88715298411E+01 -0.40405221767E+01 -0.55497333952E+01  0.11217370557E+02  0.51100000000E-03 0. -1.
        -11    1    3    3    0    0 -0.17805863757E+02  0.43983123406E+01  0.14137613206E+02  0.23157418747E+02  0.51100000000E-03 0.  1.
        -12    1    3    3    0    0 -0.11664760598E+02  0.11090091594E+02 -0.13774192270E+01  0.16154072400E+02  0.00000000000E+00 0.  1.
</event>
<event>
 7    1  0.2973028E-011  0.5052889E+02  0.7816164E-02  0.1300439E+00
        -11   -1    0    0    0    0  0.00000000000E+00  0.00000000000E+00  0.45593999997E+02  0.45594000000E+02  0.51100000000E-03 0. -1.
         11   -1    0    0    0    0 -0.00000000000E+00 -0.00000000000E+00 -0.45593999997E+02  0.45594000000E+02  0.51100000000E-03 0.  1.
    9900012    2    1    2    0    0  0.36623174653E+02 -0.10820995615E+01 -0.17627697568E+02  0.50528885614E+02  0.30000078312E+02 0.  0.
         12    1    1    2    0    0 -0.36623174653E+02  0.10820995615E+01  0.17627697568E+02  0.40659114386E+02  0.00000000000E+00 0. -1.
         11    1    3    3    0    0  0.17183730881E+01  0.89702744822E+01 -0.62557793903E+01  0.11070384203E+02  0.51100000000E-03 0. -1.
        -11    1    3    3    0    0  0.15326831025E+02 -0.21658321447E+01 -0.97405306395E+01  0.18288808478E+02  0.51100000000E-03 0.  1.
         12    1    3    3    0    0  0.19577970539E+02 -0.78865418989E+01 -0.16313875378E+01  0.21169692933E+02  0.00000000000E+00 0. -1.
</event>
<event>
 7    1  0.2973028E-011  0.5052887E+02  0.7816164E-02  0.1300439E+00
        -11   -1    0    0    0    0  0.00000000000E+00  0.00000000000E+00  0.45593999997E+02  0.45594000000E+02  0.51100000000E-03 0. -1.
         11   -1    0    0    0    0 -0.00000000000E+00 -0.00000000000E+00 -0.45593999997E+02  0.45594000000E+02  0.51100000000E-03 0.  1.
    9900012    2    1    2    0    0  0.24307498137E+02 -0.20038350601E+02 -0.25705548813E+02  0.50528865722E+02  0.30000017847E+02 0.  0.
         12    1    1    2    0    0 -0.24307498137E+02  0.20038350601E+02  0.25705548813E+02  0.40659134278E+02  0.00000000000E+00 0. -1.
         11    1    3    3    0    0  0.12539360646E+02 -0.90454310619E+01 -0.48536657990E+01  0.16205352833E+02  0.51100000000E-03 0. -1.
        -11    1    3    3    0    0 -0.43154477166E+01 -0.59467630639E+00 -0.12847547862E+02  0.13565994812E+02  0.51100000000E-03 0.  1.
        -12    1    3    3    0    0  0.16083585208E+02 -0.10398243233E+02 -0.80043351518E+01  0.20757518077E+02  0.00000000000E+00 0.  1.
</event>
<event>
 7    1  0.2973028E-011  0.5052885E+02  0.7816164E-02  0.1300439E+00
        -11   -1    0    0    0    0  0.00000000000E+00  0.00000000000E+00  0.45593999997E+02  0.45594000000E+02  0.51100000000E-03 0.  1.
         11   -1    0    0    0    0 -0.00000000000E+00 -0.00000000000E+00 -0.45593999997E+02  0.45594000000E+02  0.51100000000E-03 0. -1.
    9900012    2    1    2    0    0  0.53115727689E+01  0.13253322487E+02  0.38069710564E+02  0.50528853124E+02  0.29999979557E+02 0.  0.
         12    1    1    2    0    0 -0.53115727689E+01 -0.13253322487E+02 -0.38069710564E+02  0.40659146876E+02  0.00000000000E+00 0. -1.
         11    1    3    3    0    0  0.29477107681E+01 -0.32306424204E+01  0.21671562175E+01  0.48808416849E+01  0.51100000000E-03 0. -1.
        -11    1    3    3    0    0  0.65723179500E+00  0.22124247072E+02  0.26220773516E+02  0.34313892612E+02  0.51100000000E-03 0.  1.
        -12    1    3    3    0    0  0.17066302058E+01 -0.56402821645E+01  0.96817808303E+01  0.11334118828E+02  0.00000000000E+00 0.  1.
</event>
<event>
 7    1  0.2973028E-011  0.5052885E+02  0.7816164E-02  0.1300439E+00
        -11   -1    0    0    0    0  0.00000000000E+00  0.00000000000E+00  0.45593999997E+02  0.45594000000E+02  0.51100000000E-03 0. -1.
         11   -1    0    0    0    0 -0.00000000000E+00 -0.00000000000E+00 -0.45593999997E+02  0.45594000000E+02  0.51100000000E-03 0.  1.
    9900012    2    1    2    0    0 -0.92233718755E+01 -0.37910626457E+02  0.11440305839E+02  0.50528846236E+02  0.29999958618E+02 0.  0.
         12    1    1    2    0    0  0.92233718755E+01  0.37910626457E+02 -0.11440305839E+02  0.40659153764E+02  0.00000000000E+00 0. -1.
         11    1    3    3    0    0 -0.13752213848E+02 -0.53127346084E+01  0.43070107193E+01  0.15358999848E+02  0.51100000000E-03 0. -1.
        -11    1    3    3    0    0  0.78730904759E+00 -0.28048446356E+02  0.35703613163E+01  0.28285732777E+02  0.51100000000E-03 0.  1.
         12    1    3    3    0    0  0.37415329249E+01 -0.45494454929E+01  0.35629338031E+01  0.68841136108E+01  0.00000000000E+00 0. -1.
</event>
<event>
 7    1  0.2973028E-011  0.5052887E+02  0.7816164E-02  0.1300439E+00
        -11   -1    0    0    0    0  0.00000000000E+00  0.00000000000E+00  0.45593999997E+02  0.45594000000E+02  0.51100000000E-03 0.  1.
         11   -1    0    0    0    0 -0.00000000000E+00 -0.00000000000E+00 -0.45593999997E+02  0.45594000000E+02  0.51100000000E-03 0. -1.
    9900012    2    1    2    0    0  0.12479029782E+02  0.11836255847E+02  0.36842121698E+02  0.50528867349E+02  0.30000022793E+02 0.  0.
         12    1    1    2    0    0 -0.12479029782E+02 -0.11836255847E+02 -0.36842121698E+02  0.40659132651E+02  0.00000000000E+00 0. -1.
         11    1    3    3    0    0 -0.87891183056E+01  0.73954751901E+01  0.16980319869E+02  0.20500558943E+02  0.51100000000E-03 0. -1.
        -11    1    3    3    0    0  0.15755671616E+02  0.56198202359E+01  0.13251179863E+02  0.21340509262E+02  0.51100000000E-03 0.  1.
         12    1    3    3    0    0  0.55124764716E+01 -0.11790395794E+01  0.66106219660E+01  0.86877991434E+01  0.00000000000E+00 0. -1.
</event>
<event>
 7    1  0.2973028E-011  0.5052886E+02  0.7816164E-02  0.1300439E+00
        -11   -1    0    0    0    0  0.00000000000E+00  0.00000000000E+00  0.45593999997E+02  0.45594000000E+02  0.51100000000E-03 0.  1.
         11   -1    0    0    0    0 -0.00000000000E+00 -0.00000000000E+00 -0.45593999997E+02  0.45594000000E+02  0.51100000000E-03 0. -1.
    9900012    2    1    2    0    0  0.61585323450E+01 -0.82290921485E+01  0.39338536594E+02  0.50528856630E+02  0.29999990212E+02 0.  0.
         12    1    1    2    0    0 -0.61585323450E+01  0.82290921485E+01 -0.39338536594E+02  0.40659143370E+02  0.00000000000E+00 0. -1.
         11    1    3    3    0    0 -0.34524059050E+01 -0.15571388056E+00  0.57451503022E+01  0.67044839922E+01  0.51100000000E-03 0. -1.
        -11    1    3    3    0    0  0.58974155916E+01 -0.44093710647E+01 -0.21745964258E+01  0.76779511409E+01  0.51100000000E-03 0.  1.
        -12    1    3    3    0    0  0.37135226584E+01 -0.36640072032E+01  0.35767982718E+02  0.36146421497E+02  0.00000000000E+00 0.  1.
</event>
<event>
 7    1  0.2973028E-011  0.5052887E+02  0.7816164E-02  0.1300439E+00
        -11   -1    0    0    0    0  0.00000000000E+00  0.00000000000E+00  0.45593999997E+02  0.45594000000E+02  0.51100000000E-03 0. -1.
         11   -1    0    0    0    0 -0.00000000000E+00 -0.00000000000E+00 -0.45593999997E+02  0.45594000000E+02  0.51100000000E-03 0.  1.
    9900012    2    1    2    0    0  0.17727560504E+02 -0.33163311775E+02 -0.15462637514E+02  0.50528870543E+02  0.30000032503E+02 0.  0.
         12    1    1    2    0    0 -0.17727560504E+02  0.33163311775E+02  0.15462637514E+02  0.40659129457E+02  0.00000000000E+00 0. -1.
         11    1    3    3    0    0  0.83923552457E+01 -0.28947135704E+00 -0.19591054088E+01  0.86228483984E+01  0.51100000000E-03 0. -1.
        -11    1    3    3    0    0 -0.47033798162E+01 -0.14853978345E+02 -0.43046300529E+00  0.15586781356E+02  0.51100000000E-03 0.  1.
        -12    1    3    3    0    0  0.14038585075E+02 -0.18019862073E+02 -0.13073069100E+02  0.26319240789E+02  0.00000000000E+00 0.  1.
</event>
<event>
 7    1  0.2973028E-011  0.5052886E+02  0.7816164E-02  0.1300439E+00
        -11   -1    0    0    0    0  0.00000000000E+00  0.00000000000E+00  0.45593999997E+02  0.45594000000E+02  0.51100000000E-03 0. -1.
         11   -1    0    0    0    0 -0.00000000000E+00 -0.00000000000E+00 -0.45593999997E+02  0.45594000000E+02  0.51100000000E-03 0.  1.
    9900012    2    1    2    0    0  0.15058818745E+02 -0.10579777608E+02 -0.36255562736E+02  0.50528861476E+02  0.30000004943E+02 0.  0.
         12    1    1    2    0    0 -0.15058818745E+02  0.10579777608E+02  0.36255562736E+02  0.40659138524E+02  0.00000000000E+00 0. -1.
         11    1    3    3    0    0 -0.75611441647E+01 -0.24929462985E+01 -0.12791058081E+02  0.15066414617E+02  0.51100000000E-03 0. -1.
        -11    1    3    3    0    0  0.91729135160E+01 -0.93131741049E+01 -0.10953928591E+02  0.17054797159E+02  0.51100000000E-03 0.  1.
         12    1    3    3    0    0  0.13447049394E+02  0.12263427957E+01 -0.12510576064E+02  0.18407649700E+02  0.00000000000E+00 0. -1.
</event>
<event>
 7    1  0.2973028E-011  0.5052887E+02  0.7816164E-02  0.1300439E+00
        -11   -1    0    0    0    0  0.00000000000E+00  0.00000000000E+00  0.45593999997E+02  0.45594000000E+02  0.51100000000E-03 0. -1.
         11   -1    0    0    0    0 -0.00000000000E+00 -0.00000000000E+00 -0.45593999997E+02  0.45594000000E+02  0.51100000000E-03 0.  1.
    9900012    2    1    2    0    0  0.22375985708E+02  0.32379224155E+02  0.10201269845E+02  0.50528870647E+02  0.30000032819E+02 0.  0.
         12    1    1    2    0    0 -0.22375985708E+02 -0.32379224155E+02 -0.10201269845E+02  0.40659129353E+02  0.00000000000E+00 0. -1.
         11    1    3    3    0    0  0.18392918211E+02  0.72720216696E+01  0.13529455431E+02  0.23963052894E+02  0.51100000000E-03 0. -1.
        -11    1    3    3    0    0  0.50786875665E+01  0.10816585826E+02 -0.52069254092E+00  0.11960882798E+02  0.51100000000E-03 0.  1.
         12    1    3    3    0    0 -0.10956200690E+01  0.14290616659E+02 -0.28074930456E+01  0.14604934955E+02  0.00000000000E+00 0. -1.
</event>
<event>
 7    1  0.2973028E-011  0.5052886E+02  0.7816164E-02  0.1300439E+00
        -11   -1    0    0    0    0  0.00000000000E+00  0.00000000000E+00  0.45593999997E+02  0.45594000000E+02  0.51100000000E-03 0. -1.
         11   -1    0    0    0    0 -0.00000000000E+00 -0.00000000000E+00 -0.45593999997E+02  0.45594000000E+02  0.51100000000E-03 0.  1.
    9900012    2    1    2    0    0  0.26802416546E+02 -0.26220692623E+02 -0.15724870603E+02  0.50528858225E+02  0.29999995062E+02 0.  0.
         12    1    1    2    0    0 -0.26802416546E+02  0.26220692623E+02  0.15724870603E+02  0.40659141775E+02  0.00000000000E+00 0. -1.
         11    1    3    3    0    0  0.10667522109E+02 -0.17738275854E+02 -0.24656393941E+01  0.20845187361E+02  0.51100000000E-03 0. -1.
        -11    1    3    3    0    0 -0.55298797154E+00  0.30575064758E+01 -0.82060447924E+01  0.87745833486E+01  0.51100000000E-03 0.  1.
        -12    1    3    3    0    0  0.16687882408E+02 -0.11539923245E+02 -0.50531864165E+01  0.20909087516E+02  0.00000000000E+00 0.  1.
</event>
<event>
 7    1  0.2973028E-011  0.5052885E+02  0.7816164E-02  0.1300439E+00
        -11   -1    0    0    0    0  0.00000000000E+00  0.00000000000E+00  0.45593999997E+02  0.45594000000E+02  0.51100000000E-03 0. -1.
         11   -1    0    0    0    0 -0.00000000000E+00 -0.00000000000E+00 -0.45593999997E+02  0.45594000000E+02  0.51100000000E-03 0.  1.
    9900012    2    1    2    0    0 -0.20293311053E+02  0.22843559497E+02 -0.26823859477E+02  0.50528854397E+02  0.29999983424E+02 0.  0.
         12    1    1    2    0    0  0.20293311053E+02 -0.22843559497E+02  0.26823859477E+02  0.40659145603E+02  0.00000000000E+00 0. -1.
         11    1    3    3    0    0 -0.87085324861E+00  0.58621817262E+01 -0.19492370496E+02  0.20373415713E+02  0.51100000000E-03 0. -1.
        -11    1    3    3    0    0 -0.15053947023E+02  0.99830796911E+01 -0.10975817674E+02  0.21136503376E+02  0.51100000000E-03 0.  1.
         12    1    3    3    0    0 -0.43685107813E+01  0.69982980799E+01  0.36443286940E+01  0.90189353080E+01  0.00000000000E+00 0. -1.
</event>
<event>
 7    1  0.2973028E-011  0.5052886E+02  0.7816164E-02  0.1300439E+00
        -11   -1    0    0    0    0  0.00000000000E+00  0.00000000000E+00  0.45593999997E+02  0.45594000000E+02  0.51100000000E-03 0.  1.
         11   -1    0    0    0    0 -0.00000000000E+00 -0.00000000000E+00 -0.45593999997E+02  0.45594000000E+02  0.51100000000E-03 0. -1.
    9900012    2    1    2    0    0 -0.37338534251E+02 -0.67034037170E+01 -0.14630930127E+02  0.50528857389E+02  0.29999992521E+02 0.  0.
         12    1    1    2    0    0  0.37338534251E+02  0.67034037170E+01  0.14630930127E+02  0.40659142611E+02  0.00000000000E+00 0. -1.
         11    1    3    3    0    0 -0.13093499854E+02 -0.76399087354E+01  0.75793052481E+01  0.16948563722E+02  0.51100000000E-03 0. -1.
        -11    1    3    3    0    0 -0.89943291582E+01  0.93819818203E+00 -0.41720833987E+01  0.99591391687E+01  0.51100000000E-03 0.  1.
         12    1    3    3    0    0 -0.15250705239E+02 -0.16931636656E-02 -0.18038151976E+02  0.23621154499E+02  0.00000000000E+00 0. -1.
</event>
<event>
 7    1  0.2973028E-011  0.5052885E+02  0.7816164E-02  0.1300439E+00
        -11   -1    0    0    0    0  0.00000000000E+00  0.00000000000E+00  0.45593999997E+02  0.45594000000E+02  0.51100000000E-03 0. -1.
         11   -1    0    0    0    0 -0.00000000000E+00 -0.00000000000E+00 -0.45593999997E+02  0.45594000000E+02  0.51100000000E-03 0.  1.
    9900012    2    1    2    0    0 -0.86087265255E+01 -0.27104540698E+02 -0.29058566884E+02  0.50528848408E+02  0.29999965220E+02 0.  0.
         12    1    1    2    0    0  0.86087265255E+01  0.27104540698E+02  0.29058566884E+02  0.40659151592E+02  0.00000000000E+00 0. -1.
         11    1    3    3    0    0 -0.59754097098E+01 -0.91980752068E+01 -0.26008369343E+02  0.28226678601E+02  0.51100000000E-03 0. -1.
        -11    1    3    3    0    0  0.10104443391E+01 -0.10554700234E+02  0.41495726218E+01  0.11386028632E+02  0.51100000000E-03 0.  1.
        -12    1    3    3    0    0 -0.36437611549E+01 -0.73517652573E+01 -0.71997701628E+01  0.10916141175E+02  0.00000000000E+00 0.  1.
</event>
<event>
 7    1  0.2973028E-011  0.5052886E+02  0.7816164E-02  0.1300439E+00
        -11   -1    0    0    0    0  0.00000000000E+00  0.00000000000E+00  0.45593999997E+02  0.45594000000E+02  0.51100000000E-03 0. -1.
         11   -1    0    0    0    0 -0.00000000000E+00 -0.00000000000E+00 -0.45593999997E+02  0.45594000000E+02  0.51100000000E-03 0.  1.
    9900012    2    1    2    0    0 -0.24147844266E+01 -0.31999589278E+02 -0.24967200963E+02  0.50528855620E+02  0.29999987143E+02 0.  0.
         12    1    1    2    0    0  0.24147844266E+01  0.31999589278E+02  0.24967200963E+02  0.40659144380E+02  0.00000000000E+00 0. -1.
         11    1    3    3    0    0 -0.93761407779E+01 -0.76251226185E+01 -0.14747259219E+02  0.19066624388E+02  0.51100000000E-03 0. -1.
        -11    1    3    3    0    0  0.10948386492E+02 -0.23108248288E+02 -0.89145697126E+01  0.27080026941E+02  0.51100000000E-03 0.  1.
         12    1    3    3    0    0 -0.39870301406E+01 -0.12662183716E+01 -0.13053720312E+01  0.43822042908E+01  0.00000000000E+00 0. -1.
</event>
<event>
 7    1  0.2973028E-011  0.5052886E+02  0.7816164E-02  0.1300439E+00
        -11   -1    0    0    0    0  0.00000000000E+00  0.00000000000E+00  0.45593999997E+02  0.45594000000E+02  0.51100000000E-03 0.  1.
         11   -1    0    0    0    0 -0.00000000000E+00 -0.00000000000E+00 -0.45593999997E+02  0.45594000000E+02  0.51100000000E-03 0. -1.
    9900012    2    1    2    0    0 -0.29623286354E+02  0.27614166863E+02  0.36172103286E+01  0.50528861833E+02  0.30000006027E+02 0.  0.
         12    1    1    2    0    0  0.29623286354E+02 -0.27614166863E+02 -0.36172103286E+01  0.40659138167E+02  0.00000000000E+00 0. -1.
         11    1    3    3    0    0 -0.21592362078E+01  0.15101468983E+02  0.67488144570E+01  0.16681221876E+02  0.51100000000E-03 0.  1.
        -11    1    3    3    0    0 -0.13929757037E+02 -0.16239865845E+01 -0.26404290552E+01  0.14270505576E+02  0.51100000000E-03 0. -1.
        -12    1    3    3    0    0 -0.13534293108E+02  0.14136684465E+02 -0.49117507324E+00  0.19577134380E+02  0.00000000000E+00 0.  1.
</event>
<event>
 7    1  0.2973028E-011  0.5052886E+02  0.7816164E-02  0.1300439E+00
        -11   -1    0    0    0    0  0.00000000000E+00  0.00000000000E+00  0.45593999997E+02  0.45594000000E+02  0.51100000000E-03 0. -1.
         11   -1    0    0    0    0 -0.00000000000E+00 -0.00000000000E+00 -0.45593999997E+02  0.45594000000E+02  0.51100000000E-03 0.  1.
    9900012    2    1    2    0    0  0.65694137295E+01 -0.36406961308E+02 -0.16868353308E+02  0.50528863613E+02  0.30000011437E+02 0.  0.
         12    1    1    2    0    0 -0.65694137295E+01  0.36406961308E+02  0.16868353308E+02  0.40659136387E+02  0.00000000000E+00 0. -1.
         11    1    3    3    0    0  0.14980270332E+01  0.11241414653E+01  0.38420740450E+01  0.42742616034E+01  0.51100000000E-03 0. -1.
        -11    1    3    3    0    0  0.45741189390E+01 -0.39053607786E+02 -0.21074454469E+02  0.44612100114E+02  0.51100000000E-03 0.  1.
        -12    1    3    3    0    0  0.49726775735E+00  0.15225050127E+01  0.36402711522E+00  0.16425018955E+01  0.00000000000E+00 0.  1.
</event>
<event>
 7    1  0.2973028E-011  0.5052888E+02  0.7816164E-02  0.1300439E+00
        -11   -1    0    0    0    0  0.00000000000E+00  0.00000000000E+00  0.45593999997E+02  0.45594000000E+02  0.51100000000E-03 0.  1.
         11   -1    0    0    0    0 -0.00000000000E+00 -0.00000000000E+00 -0.45593999997E+02  0.45594000000E+02  0.51100000000E-03 0. -1.
    9900012    2    1    2    0    0 -0.27953721688E+02  0.25311586926E+02  0.15201223471E+02  0.50528878220E+02  0.30000055837E+02 0.  0.
         12    1    1    2    0    0  0.27953721688E+02 -0.25311586926E+02 -0.15201223471E+02  0.40659121780E+02  0.00000000000E+00 0. -1.
         11    1    3    3    0    0  0.15402439709E+01  0.27450501169E+01 -0.47279026336E+01  0.56798516889E+01  0.51100000000E-03 0. -1.
        -11    1    3    3    0    0 -0.27570794134E+02  0.15240976916E+02  0.11548180830E+02  0.33552891787E+02  0.51100000000E-03 0.  1.
        -12    1    3    3    0    0 -0.19231715249E+01  0.73255598929E+01  0.83809452745E+01  0.11296134744E+02  0.00000000000E+00 0.  1.
</event>
<event>
 7    1  0.2973028E-011  0.5052885E+02  0.7816164E-02  0.1300439E+00
        -11   -1    0    0    0    0  0.00000000000E+00  0.00000000000E+00  0.45593999997E+02  0.45594000000E+02  0.51100000000E-03 0.  1.
         11   -1    0    0    0    0 -0.00000000000E+00 -0.00000000000E+00 -0.45593999997E+02  0.45594000000E+02  0.51100000000E-03 0. -1.
    9900012    2    1    2    0    0 -0.14441182490E+01 -0.38313289973E+02  0.13534123323E+02  0.50528853917E+02  0.29999981966E+02 0.  0.
         12    1    1    2    0    0  0.14441182490E+01  0.38313289973E+02 -0.13534123323E+02  0.40659146083E+02  0.00000000000E+00 0. -1.
         11    1    3    3    0    0  0.11460941699E+02 -0.12546177726E+02  0.66594957519E+01  0.18251264178E+02  0.51100000000E-03 0. -1.
        -11    1    3    3    0    0 -0.81055603203E+01 -0.19197683070E+02  0.10541841715E+02  0.23353405969E+02  0.51100000000E-03 0.  1.
         12    1    3    3    0    0 -0.47994996277E+01 -0.65694291772E+01 -0.36672141433E+01  0.89241837701E+01  0.00000000000E+00 0. -1.
</event>
<event>
 7    1  0.2973028E-011  0.5052887E+02  0.7816164E-02  0.1300439E+00
        -11   -1    0    0    0    0  0.00000000000E+00  0.00000000000E+00  0.45593999997E+02  0.45594000000E+02  0.51100000000E-03 0. -1.
         11   -1    0    0    0    0 -0.00000000000E+00 -0.00000000000E+00 -0.45593999997E+02  0.45594000000E+02  0.51100000000E-03 0.  1.
    9900012    2    1    2    0    0  0.23735510175E+02 -0.27957304121E+02 -0.17555047715E+02  0.50528868218E+02  0.30000025436E+02 0.  0.
         12    1    1    2    0    0 -0.23735510175E+02  0.27957304121E+02  0.17555047715E+02  0.40659131782E+02  0.00000000000E+00 0. -1.
         11    1    3    3    0    0  0.26031076771E+01 -0.13769749314E+02 -0.15341976916E+02  0.20778797408E+02  0.51100000000E-03 0. -1.
        -11    1    3    3    0    0  0.21131662472E+02 -0.15705904093E+02 -0.47878874986E+01  0.26760912712E+02  0.51100000000E-03 0.  1.
         12    1    3    3    0    0  0.74002604969E-03  0.15183492864E+01  0.25748166998E+01  0.29891580990E+01  0.00000000000E+00 0. -1.
</event>
<event>
 7    1  0.2973028E-011  0.5052886E+02  0.7816164E-02  0.1300439E+00
        -11   -1    0    0    0    0  0.00000000000E+00  0.00000000000E+00  0.45593999997E+02  0.45594000000E+02  0.51100000000E-03 0.  1.
         11   -1    0    0    0    0 -0.00000000000E+00 -0.00000000000E+00 -0.45593999997E+02  0.45594000000E+02  0.51100000000E-03 0. -1.
    9900012    2    1    2    0    0  0.22905285348E+02 -0.26940960167E+02  0.20067347431E+02  0.50528857553E+02  0.29999993018E+02 0.  0.
         12    1    1    2    0    0 -0.22905285348E+02  0.26940960167E+02 -0.20067347431E+02  0.40659142447E+02  0.00000000000E+00 0. -1.
         11    1    3    3    0    0 -0.31572539023E+01 -0.45831605975E+01  0.58965981567E+01  0.81082355262E+01  0.51100000000E-03 0. -1.
        -11    1    3    3    0    0  0.18975234308E+02 -0.16928364058E+02 -0.28455449222E+00  0.25430493473E+02  0.51100000000E-03 0.  1.
        -12    1    3    3    0    0  0.70873049420E+01 -0.54294355118E+01  0.14455303766E+02  0.16990128554E+02  0.00000000000E+00 0.  1.
</event>
<event>
 7    1  0.2973028E-011  0.5052886E+02  0.7816164E-02  0.1300439E+00
        -11   -1    0    0    0    0  0.00000000000E+00  0.00000000000E+00  0.45593999997E+02  0.45594000000E+02  0.51100000000E-03 0. -1.
         11   -1    0    0    0    0 -0.00000000000E+00 -0.00000000000E+00 -0.45593999997E+02  0.45594000000E+02  0.51100000000E-03 0.  1.
    9900012    2    1    2    0    0 -0.10837270810E+02 -0.28051394708E+02 -0.27364906232E+02  0.50528864781E+02  0.30000014990E+02 0.  0.
         12    1    1    2    0    0  0.10837270810E+02  0.28051394708E+02  0.27364906232E+02  0.40659135219E+02  0.00000000000E+00 0. -1.
         11    1    3    3    0    0 -0.65012120246E+01  0.21092592503E+01 -0.33778726884E-01  0.68349011432E+01  0.51100000000E-03 0. -1.
        -11    1    3    3    0    0  0.50309191066E+01 -0.18039748811E+02 -0.13926374336E+02  0.23338521518E+02  0.51100000000E-03 0.  1.
         12    1    3    3    0    0 -0.93669778918E+01 -0.12120905147E+02 -0.13404753168E+02  0.20355442120E+02  0.00000000000E+00 0. -1.
</event>
<event>
 7    1  0.2973028E-011  0.5052889E+02  0.7816164E-02  0.1300439E+00
        -11   -1    0    0    0    0  0.00000000000E+00  0.00000000000E+00  0.45593999997E+02  0.45594000000E+02  0.51100000000E-03 0.  1.
         11   -1    0    0    0    0 -0.00000000000E+00 -0.00000000000E+00 -0.45593999997E+02  0.45594000000E+02  0.51100000000E-03 0. -1.
    9900012    2    1    2    0    0  0.34865732174E+02  0.60728811552E+01  0.20016603363E+02  0.50528885699E+02  0.30000078570E+02 0.  0.
         12    1    1    2    0    0 -0.34865732174E+02 -0.60728811552E+01 -0.20016603363E+02  0.40659114301E+02  0.00000000000E+00 0. -1.
         11    1    3    3    0    0 -0.39935755055E+00  0.90703284835E+01  0.34746017630E+01  0.97212757869E+01  0.51100000000E-03 0. -1.
        -11    1    3    3    0    0  0.28654164329E+02 -0.66527132973E+01  0.10867439539E+02  0.31359543523E+02  0.51100000000E-03 0.  1.
        -12    1    3    3    0    0  0.66109253957E+01  0.36552659690E+01  0.56745620618E+01  0.94480663887E+01  0.00000000000E+00 0.  1.
</event>
<event>
 7    1  0.2973028E-011  0.5052889E+02  0.7816164E-02  0.1300439E+00
        -11   -1    0    0    0    0  0.00000000000E+00  0.00000000000E+00  0.45593999997E+02  0.45594000000E+02  0.51100000000E-03 0. -1.
         11   -1    0    0    0    0 -0.00000000000E+00 -0.00000000000E+00 -0.45593999997E+02  0.45594000000E+02  0.51100000000E-03 0.  1.
    9900012    2    1    2    0    0 -0.38512915223E+02 -0.10744234815E+02 -0.73810568073E+01  0.50528890070E+02  0.30000091857E+02 0.  0.
         12    1    1    2    0    0  0.38512915223E+02  0.10744234815E+02  0.73810568073E+01  0.40659109930E+02  0.00000000000E+00 0. -1.
         11    1    3    3    0    0 -0.14276896043E+02  0.21671147057E+01  0.88628153211E+01  0.16943306715E+02  0.51100000000E-03 0. -1.
        -11    1    3    3    0    0 -0.18377839506E+02 -0.41865467161E+01 -0.11245106300E+02  0.21948224854E+02  0.51100000000E-03 0.  1.
        -12    1    3    3    0    0 -0.58581796741E+01 -0.87248028043E+01 -0.49987658286E+01  0.11637358501E+02  0.00000000000E+00 0.  1.
</event>
<event>
 7    1  0.2973028E-011  0.5052886E+02  0.7816164E-02  0.1300439E+00
        -11   -1    0    0    0    0  0.00000000000E+00  0.00000000000E+00  0.45593999997E+02  0.45594000000E+02  0.51100000000E-03 0.  1.
         11   -1    0    0    0    0 -0.00000000000E+00 -0.00000000000E+00 -0.45593999997E+02  0.45594000000E+02  0.51100000000E-03 0. -1.
    9900012    2    1    2    0    0  0.83002044712E+01  0.26327851551E+02  0.29851570693E+02  0.50528862843E+02  0.30000009098E+02 0.  0.
         12    1    1    2    0    0 -0.83002044712E+01 -0.26327851551E+02 -0.29851570693E+02  0.40659137157E+02  0.00000000000E+00 0. -1.
         11    1    3    3    0    0  0.16165421060E+02  0.13781902154E+02  0.15467368109E+02  0.26277388407E+02  0.51100000000E-03 0. -1.
        -11    1    3    3    0    0 -0.46345426679E+01 -0.28777510371E+00  0.86725583671E+01  0.98374320400E+01  0.51100000000E-03 0.  1.
        -12    1    3    3    0    0 -0.32306739208E+01  0.12833724501E+02  0.57116442165E+01  0.14414042396E+02  0.00000000000E+00 0.  1.
</event>
<event>
 7    1  0.2973028E-011  0.5052886E+02  0.7816164E-02  0.1300439E+00
        -11   -1    0    0    0    0  0.00000000000E+00  0.00000000000E+00  0.45593999997E+02  0.45594000000E+02  0.51100000000E-03 0.  1.
         11   -1    0    0    0    0 -0.00000000000E+00 -0.00000000000E+00 -0.45593999997E+02  0.45594000000E+02  0.51100000000E-03 0. -1.
    9900012    2    1    2    0    0  0.11006565736E+02  0.32923059088E+00  0.39139654903E+02  0.50528862429E+02  0.30000007838E+02 0.  0.
         12    1    1    2    0    0 -0.11006565736E+02 -0.32923059088E+00 -0.39139654903E+02  0.40659137571E+02  0.00000000000E+00 0. -1.
         11    1    3    3    0    0  0.59234879792E+01 -0.36498241901E+01  0.37666380055E+01  0.79117942708E+01  0.51100000000E-03 0. -1.
        -11    1    3    3    0    0  0.10454954942E+02  0.55709924736E+01  0.35057937816E+02  0.37005419119E+02  0.51100000000E-03 0.  1.
        -12    1    3    3    0    0 -0.53718771850E+01 -0.15919376926E+01  0.31507908200E+00  0.56116490389E+01  0.00000000000E+00 0.  1.
</event>
<event>
 7    1  0.2973028E-011  0.5052891E+02  0.7816164E-02  0.1300439E+00
        -11   -1    0    0    0    0  0.00000000000E+00  0.00000000000E+00  0.45593999997E+02  0.45594000000E+02  0.51100000000E-03 0.  1.
         11   -1    0    0    0    0 -0.00000000000E+00 -0.00000000000E+00 -0.45593999997E+02  0.45594000000E+02  0.51100000000E-03 0. -1.
    9900012    2    1    2    0    0  0.32898970810E+02  0.65852878111E+01  0.22966349744E+02  0.50528911022E+02  0.30000155543E+02 0.  0.
         12    1    1    2    0    0 -0.32898970810E+02 -0.65852878111E+01 -0.22966349744E+02  0.40659088978E+02  0.00000000000E+00 0. -1.
         11    1    3    3    0    0  0.17028608073E+02  0.11310604024E+02  0.30363127606E+01  0.20666941035E+02  0.51100000000E-03 0. -1.
        -11    1    3    3    0    0  0.11473762671E+01 -0.18049698419E+01  0.13269429004E+02  0.13440689520E+02  0.51100000000E-03 0.  1.
         12    1    3    3    0    0  0.14722986470E+02 -0.29203463715E+01  0.66606079799E+01  0.16421280468E+02  0.00000000000E+00 0. -1.
</event>
<event>
 7    1  0.2973028E-011  0.5052893E+02  0.7816164E-02  0.1300439E+00
        -11   -1    0    0    0    0  0.00000000000E+00  0.00000000000E+00  0.45593999997E+02  0.45594000000E+02  0.51100000000E-03 0.  1.
         11   -1    0    0    0    0 -0.00000000000E+00 -0.00000000000E+00 -0.45593999997E+02  0.45594000000E+02  0.51100000000E-03 0. -1.
    9900012    2    1    2    0    0 -0.19309649245E+02  0.31620460001E+02  0.16746451905E+02  0.50528933409E+02  0.30000223588E+02 0.  0.
         12    1    1    2    0    0  0.19309649245E+02 -0.31620460001E+02 -0.16746451905E+02  0.40659066591E+02  0.00000000000E+00 0. -1.
         11    1    3    3    0    0 -0.60664724807E+00  0.15519957429E+02  0.52946335010E+01  0.16409455922E+02  0.51100000000E-03 0. -1.
        -11    1    3    3    0    0 -0.22217553072E+02  0.10013532282E+02  0.56762421789E+01  0.25022194524E+02  0.51100000000E-03 0.  1.
         12    1    3    3    0    0  0.35145510744E+01  0.60869702899E+01  0.57755762254E+01  0.90972829625E+01  0.00000000000E+00 0. -1.
</event>
<event>
 7    1  0.2973028E-011  0.5052887E+02  0.7816164E-02  0.1300439E+00
        -11   -1    0    0    0    0  0.00000000000E+00  0.00000000000E+00  0.45593999997E+02  0.45594000000E+02  0.51100000000E-03 0.  1.
         11   -1    0    0    0    0 -0.00000000000E+00 -0.00000000000E+00 -0.45593999997E+02  0.45594000000E+02  0.51100000000E-03 0. -1.
    9900012    2    1    2    0    0  0.37781143368E+01  0.40432156162E+02 -0.20326530955E+01  0.50528867219E+02  0.30000022400E+02 0.  0.
         12    1    1    2    0    0 -0.37781143368E+01 -0.40432156162E+02  0.20326530955E+01  0.40659132781E+02  0.00000000000E+00 0. -1.
         11    1    3    3    0    0  0.86129329255E+00  0.36187325155E+02  0.25126064260E+01  0.36284673339E+02  0.51100000000E-03 0.  1.
        -11    1    3    3    0    0 -0.12657388893E+01  0.37209083750E+01 -0.79218862436E+01  0.88432763153E+01  0.51100000000E-03 0. -1.
         12    1    3    3    0    0  0.41825599336E+01  0.52392263222E+00  0.33766267221E+01  0.54009175649E+01  0.00000000000E+00 0. -1.
</event>
<event>
 7    1  0.2973028E-011  0.5052888E+02  0.7816164E-02  0.1300439E+00
        -11   -1    0    0    0    0  0.00000000000E+00  0.00000000000E+00  0.45593999997E+02  0.45594000000E+02  0.51100000000E-03 0.  1.
         11   -1    0    0    0    0 -0.00000000000E+00 -0.00000000000E+00 -0.45593999997E+02  0.45594000000E+02  0.51100000000E-03 0. -1.
    9900012    2    1    2    0    0  0.43134877544E+01 -0.80131737501E+01  0.39627603015E+02  0.50528879856E+02  0.30000060811E+02 0.  0.
         12    1    1    2    0    0 -0.43134877544E+01  0.80131737501E+01 -0.39627603015E+02  0.40659120144E+02  0.00000000000E+00 0. -1.
         11    1    3    3    0    0 -0.23474581690E+01 -0.64331444243E+01 -0.26074932867E+01  0.73276823444E+01  0.51100000000E-03 0. -1.
        -11    1    3    3    0    0  0.42412001971E+01 -0.31960596882E+01  0.17296137250E+02  0.18093063331E+02  0.51100000000E-03 0.  1.
         12    1    3    3    0    0  0.24197457263E+01  0.16160303624E+01  0.24938959051E+02  0.25108134181E+02  0.00000000000E+00 0. -1.
</event>
<event>
 7    1  0.2973028E-011  0.5052886E+02  0.7816164E-02  0.1300439E+00
        -11   -1    0    0    0    0  0.00000000000E+00  0.00000000000E+00  0.45593999997E+02  0.45594000000E+02  0.51100000000E-03 0.  1.
         11   -1    0    0    0    0 -0.00000000000E+00 -0.00000000000E+00 -0.45593999997E+02  0.45594000000E+02  0.51100000000E-03 0. -1.
    9900012    2    1    2    0    0  0.36701886636E+02 -0.14468558718E+02  0.98386031627E+01  0.50528858516E+02  0.29999995946E+02 0.  0.
         12    1    1    2    0    0 -0.36701886636E+02  0.14468558718E+02 -0.98386031627E+01  0.40659141484E+02  0.00000000000E+00 0. -1.
         11    1    3    3    0    0  0.11994679660E+02 -0.12759827656E+02 -0.67791787383E+01  0.18778786079E+02  0.51100000000E-03 0. -1.
        -11    1    3    3    0    0  0.21277117157E+02 -0.50121284772E+01  0.15666636834E+02  0.26893877674E+02  0.51100000000E-03 0.  1.
         12    1    3    3    0    0  0.34300898186E+01  0.33033974150E+01  0.95114506747E+00  0.48561947638E+01  0.00000000000E+00 0. -1.
</event>
<event>
 7    1  0.2973028E-011  0.5052873E+02  0.7816164E-02  0.1300439E+00
        -11   -1    0    0    0    0  0.00000000000E+00  0.00000000000E+00  0.45593999997E+02  0.45594000000E+02  0.51100000000E-03 0.  1.
         11   -1    0    0    0    0 -0.00000000000E+00 -0.00000000000E+00 -0.45593999997E+02  0.45594000000E+02  0.51100000000E-03 0. -1.
    9900012    2    1    2    0    0  0.25757765374E+02 -0.26264142238E+02  0.17317866252E+02  0.50528731241E+02  0.29999609076E+02 0.  0.
         12    1    1    2    0    0 -0.25757765374E+02  0.26264142238E+02 -0.17317866252E+02  0.40659268759E+02  0.00000000000E+00 0. -1.
         11    1    3    3    0    0  0.73138851552E+01 -0.23017990349E+01  0.36407915997E+01  0.84880244223E+01  0.51100000000E-03 0. -1.
        -11    1    3    3    0    0 -0.44892128279E+01 -0.14868150499E+01 -0.32536670322E+01  0.57402090749E+01  0.51100000000E-03 0.  1.
        -12    1    3    3    0    0  0.22933093046E+02 -0.22475528153E+02  0.16930741685E+02  0.36300497743E+02  0.00000000000E+00 0.  1.
</event>
<event>
 7    1  0.2973028E-011  0.5052886E+02  0.7816164E-02  0.1300439E+00
        -11   -1    0    0    0    0  0.00000000000E+00  0.00000000000E+00  0.45593999997E+02  0.45594000000E+02  0.51100000000E-03 0.  1.
         11   -1    0    0    0    0 -0.00000000000E+00 -0.00000000000E+00 -0.45593999997E+02  0.45594000000E+02  0.51100000000E-03 0. -1.
    9900012    2    1    2    0    0 -0.22097518224E+02 -0.21190664908E+02  0.26754837226E+02  0.50528857044E+02  0.29999991471E+02 0.  0.
         12    1    1    2    0    0  0.22097518224E+02  0.21190664908E+02 -0.26754837226E+02  0.40659142956E+02  0.00000000000E+00 0. -1.
         11    1    3    3    0    0 -0.61140554101E+01  0.10366795199E+01  0.14058424375E+02  0.15365405108E+02  0.51100000000E-03 0. -1.
        -11    1    3    3    0    0 -0.10198689810E+02 -0.23968199543E+02  0.13006318982E+02  0.29114467140E+02  0.51100000000E-03 0.  1.
        -12    1    3    3    0    0 -0.57847730044E+01  0.17408551146E+01 -0.30990613045E+00  0.60489847951E+01  0.00000000000E+00 0.  1.
</event>
<event>
 7    1  0.2973028E-011  0.5052886E+02  0.7816164E-02  0.1300439E+00
        -11   -1    0    0    0    0  0.00000000000E+00  0.00000000000E+00  0.45593999997E+02  0.45594000000E+02  0.51100000000E-03 0.  1.
         11   -1    0    0    0    0 -0.00000000000E+00 -0.00000000000E+00 -0.45593999997E+02  0.45594000000E+02  0.51100000000E-03 0. -1.
    9900012    2    1    2    0    0  0.65966844571E+01  0.42490108268E+01  0.39894798567E+02  0.50528864599E+02  0.30000014436E+02 0.  0.
         12    1    1    2    0    0 -0.65966844571E+01 -0.42490108268E+01 -0.39894798567E+02  0.40659135401E+02  0.00000000000E+00 0. -1.
         11    1    3    3    0    0 -0.19240744861E+01  0.11304649160E+02  0.89542638146E+01  0.14549089181E+02  0.51100000000E-03 0. -1.
        -11    1    3    3    0    0  0.11064766016E+02 -0.94752475034E+01  0.27162562531E+02  0.30822299813E+02  0.51100000000E-03 0.  1.
        -12    1    3    3    0    0 -0.25440070725E+01  0.24196091698E+01  0.37779722210E+01  0.51574756056E+01  0.00000000000E+00 0.  1.
</event>
<event>
 7    1  0.2973028E-011  0.5052886E+02  0.7816164E-02  0.1300439E+00
        -11   -1    0    0    0    0  0.00000000000E+00  0.00000000000E+00  0.45593999997E+02  0.45594000000E+02  0.51100000000E-03 0. -1.
         11   -1    0    0    0    0 -0.00000000000E+00 -0.00000000000E+00 -0.45593999997E+02  0.45594000000E+02  0.51100000000E-03 0.  1.
    9900012    2    1    2    0    0  0.22001107015E+02  0.31828553471E+02 -0.12492405965E+02  0.50528859174E+02  0.29999997945E+02 0.  0.
         12    1    1    2    0    0 -0.22001107015E+02 -0.31828553471E+02  0.12492405965E+02  0.40659140826E+02  0.00000000000E+00 0. -1.
         11    1    3    3    0    0  0.53412498445E+01  0.23743152525E+02 -0.83616475413E+01  0.25732924272E+02  0.51100000000E-03 0.  1.
        -11    1    3    3    0    0  0.61523106259E+01  0.55528177918E+00 -0.90560693045E+01  0.10962283311E+02  0.51100000000E-03 0. -1.
         12    1    3    3    0    0  0.10507546545E+02  0.75301191661E+01  0.49253108806E+01  0.13833651590E+02  0.00000000000E+00 0. -1.
</event>
<event>
 7    1  0.2973028E-011  0.5052886E+02  0.7816164E-02  0.1300439E+00
        -11   -1    0    0    0    0  0.00000000000E+00  0.00000000000E+00  0.45593999997E+02  0.45594000000E+02  0.51100000000E-03 0.  1.
         11   -1    0    0    0    0 -0.00000000000E+00 -0.00000000000E+00 -0.45593999997E+02  0.45594000000E+02  0.51100000000E-03 0. -1.
    9900012    2    1    2    0    0 -0.40750555137E+01  0.20966279857E+02  0.34597322595E+02  0.50528859586E+02  0.29999999197E+02 0.  0.
         12    1    1    2    0    0  0.40750555137E+01 -0.20966279857E+02 -0.34597322595E+02  0.40659140414E+02  0.00000000000E+00 0. -1.
         11    1    3    3    0    0 -0.74917099139E+01  0.41516960565E+01  0.49149906174E+01  0.98751926872E+01  0.51100000000E-03 0. -1.
        -11    1    3    3    0    0  0.58648620540E+01 -0.29490038879E+01  0.13431707682E+02  0.14950050246E+02  0.51100000000E-03 0.  1.
        -12    1    3    3    0    0 -0.24482076538E+01  0.19763587688E+02  0.16250624296E+02  0.25703616653E+02  0.00000000000E+00 0.  1.
</event>
<event>
 7    1  0.2973028E-011  0.5052888E+02  0.7816164E-02  0.1300439E+00
        -11   -1    0    0    0    0  0.00000000000E+00  0.00000000000E+00  0.45593999997E+02  0.45594000000E+02  0.51100000000E-03 0.  1.
         11   -1    0    0    0    0 -0.00000000000E+00 -0.00000000000E+00 -0.45593999997E+02  0.45594000000E+02  0.51100000000E-03 0. -1.
    9900012    2    1    2    0    0  0.27059989197E+02  0.26515765285E+01  0.30230620572E+02  0.50528876871E+02  0.30000051737E+02 0.  0.
         12    1    1    2    0    0 -0.27059989197E+02 -0.26515765285E+01 -0.30230620572E+02  0.40659123129E+02  0.00000000000E+00 0. -1.
         11    1    3    3    0    0  0.30025454026E+01 -0.11894346033E+02  0.98352956173E+01  0.15723351633E+02  0.51100000000E-03 0. -1.
        -11    1    3    3    0    0  0.12980674058E+02  0.78536725249E+01  0.12391997302E+02  0.19589274323E+02  0.51100000000E-03 0.  1.
         12    1    3    3    0    0  0.11076769737E+02  0.66922500367E+01  0.80033276528E+01  0.15216250914E+02  0.00000000000E+00 0. -1.
</event>
<event>
 7    1  0.2973028E-011  0.5052887E+02  0.7816164E-02  0.1300439E+00
        -11   -1    0    0    0    0  0.00000000000E+00  0.00000000000E+00  0.45593999997E+02  0.45594000000E+02  0.51100000000E-03 0. -1.
         11   -1    0    0    0    0 -0.00000000000E+00 -0.00000000000E+00 -0.45593999997E+02  0.45594000000E+02  0.51100000000E-03 0.  1.
    9900012    2    1    2    0    0  0.86867485661E+00  0.40587130695E+02 -0.22572810897E+01  0.50528867053E+02  0.30000021894E+02 0.  0.
         12    1    1    2    0    0 -0.86867485661E+00 -0.40587130695E+02  0.22572810897E+01  0.40659132947E+02  0.00000000000E+00 0. -1.
         11    1    3    3    0    0  0.23350558748E+01  0.35030149639E+02 -0.12225484895E+02  0.37175615003E+02  0.51100000000E-03 0. -1.
        -11    1    3    3    0    0 -0.29382228468E+01  0.15679465419E+01  0.80046798384E+01  0.86698621346E+01  0.51100000000E-03 0.  1.
         12    1    3    3    0    0  0.14718418286E+01  0.39890345145E+01  0.19635239673E+01  0.46833899150E+01  0.00000000000E+00 0. -1.
</event>
<event>
 7    1  0.2973028E-011  0.5052886E+02  0.7816164E-02  0.1300439E+00
        -11   -1    0    0    0    0  0.00000000000E+00  0.00000000000E+00  0.45593999997E+02  0.45594000000E+02  0.51100000000E-03 0.  1.
         11   -1    0    0    0    0 -0.00000000000E+00 -0.00000000000E+00 -0.45593999997E+02  0.45594000000E+02  0.51100000000E-03 0. -1.
    9900012    2    1    2    0    0 -0.23291576130E+02  0.23530619321E+02  0.23600381379E+02  0.50528861231E+02  0.30000004197E+02 0.  0.
         12    1    1    2    0    0  0.23291576130E+02 -0.23530619321E+02 -0.23600381379E+02  0.40659138769E+02  0.00000000000E+00 0. -1.
         11    1    3    3    0    0 -0.51197561852E+01  0.12368290449E+02 -0.12416058705E+00  0.13386632443E+02  0.51100000000E-03 0. -1.
        -11    1    3    3    0    0 -0.85242772514E+01  0.86986094446E+01  0.24286570390E+02  0.27169221750E+02  0.51100000000E-03 0.  1.
        -12    1    3    3    0    0 -0.96475426936E+01  0.24637194266E+01 -0.56202842406E+00  0.99730070383E+01  0.00000000000E+00 0.  1.
</event>
<event>
 7    1  0.2973028E-011  0.5052885E+02  0.7816164E-02  0.1300439E+00
        -11   -1    0    0    0    0  0.00000000000E+00  0.00000000000E+00  0.45593999997E+02  0.45594000000E+02  0.51100000000E-03 0.  1.
         11   -1    0    0    0    0 -0.00000000000E+00 -0.00000000000E+00 -0.45593999997E+02  0.45594000000E+02  0.51100000000E-03 0. -1.
    9900012    2    1    2    0    0 -0.19347964523E+02  0.53600068270E+01  0.35356649605E+02  0.50528854957E+02  0.29999985128E+02 0.  0.
         12    1    1    2    0    0  0.19347964523E+02 -0.53600068270E+01 -0.35356649605E+02  0.40659145043E+02  0.00000000000E+00 0. -1.
         11    1    3    3    0    0 -0.22612363964E+01  0.52464599686E+01  0.11434574171E+02  0.12782332298E+02  0.51100000000E-03 0.  1.
        -11    1    3    3    0    0 -0.13289675069E+01 -0.14227101812E+01 -0.46722426224E+01  0.50616311875E+01  0.51100000000E-03 0. -1.
        -12    1    3    3    0    0 -0.15757760619E+02  0.15362570396E+01  0.28594318056E+02  0.32684891472E+02  0.00000000000E+00 0.  1.
</event>
<event>
 7    1  0.2973028E-011  0.5052886E+02  0.7816164E-02  0.1300439E+00
        -11   -1    0    0    0    0  0.00000000000E+00  0.00000000000E+00  0.45593999997E+02  0.45594000000E+02  0.51100000000E-03 0.  1.
         11   -1    0    0    0    0 -0.00000000000E+00 -0.00000000000E+00 -0.45593999997E+02  0.45594000000E+02  0.51100000000E-03 0. -1.
    9900012    2    1    2    0    0 -0.19686995374E+02 -0.19291136168E+02  0.29890466555E+02  0.50528859424E+02  0.29999998704E+02 0.  0.
         12    1    1    2    0    0  0.19686995374E+02  0.19291136168E+02 -0.29890466555E+02  0.40659140576E+02  0.00000000000E+00 0. -1.
         11    1    3    3    0    0 -0.14852676753E+02 -0.30230160517E+01  0.44702198076E+00  0.15163787841E+02  0.51100000000E-03 0. -1.
        -11    1    3    3    0    0 -0.19858543152E+01 -0.16086545717E+02  0.21506196847E+02  0.26930226021E+02  0.51100000000E-03 0.  1.
         12    1    3    3    0    0 -0.28484643058E+01 -0.18157439996E+00  0.79372477276E+01  0.84348455619E+01  0.00000000000E+00 0. -1.
</event>
<event>
 7    1  0.2973028E-011  0.5052886E+02  0.7816164E-02  0.1300439E+00
        -11   -1    0    0    0    0  0.00000000000E+00  0.00000000000E+00  0.45593999997E+02  0.45594000000E+02  0.51100000000E-03 0.  1.
         11   -1    0    0    0    0 -0.00000000000E+00 -0.00000000000E+00 -0.45593999997E+02  0.45594000000E+02  0.51100000000E-03 0. -1.
    9900012    2    1    2    0    0 -0.18496126873E+02  0.32437424787E+02  0.16089509616E+02  0.50528861350E+02  0.30000004558E+02 0.  0.
         12    1    1    2    0    0  0.18496126873E+02 -0.32437424787E+02 -0.16089509616E+02  0.40659138650E+02  0.00000000000E+00 0. -1.
         11    1    3    3    0    0  0.10856514948E+01  0.18711627124E+01 -0.50723138635E+01  0.55143682553E+01  0.51100000000E-03 0. -1.
        -11    1    3    3    0    0 -0.77808645245E+00  0.14553204088E+02  0.11210926143E+02  0.18387115951E+02  0.51100000000E-03 0.  1.
         12    1    3    3    0    0 -0.18803691915E+02  0.16013057986E+02  0.99508973366E+01  0.26627377143E+02  0.00000000000E+00 0. -1.
</event>
<event>
 7    1  0.2973028E-011  0.5052886E+02  0.7816164E-02  0.1300439E+00
        -11   -1    0    0    0    0  0.00000000000E+00  0.00000000000E+00  0.45593999997E+02  0.45594000000E+02  0.51100000000E-03 0.  1.
         11   -1    0    0    0    0 -0.00000000000E+00 -0.00000000000E+00 -0.45593999997E+02  0.45594000000E+02  0.51100000000E-03 0. -1.
    9900012    2    1    2    0    0 -0.19139675527E+02  0.18858253990E+01  0.35822923813E+02  0.50528863422E+02  0.30000010859E+02 0.  0.
         12    1    1    2    0    0  0.19139675527E+02 -0.18858253990E+01 -0.35822923813E+02  0.40659136578E+02  0.00000000000E+00 0. -1.
         11    1    3    3    0    0  0.44008651171E+01  0.27707132469E+01  0.73196433140E+01  0.89789556287E+01  0.51100000000E-03 0. -1.
        -11    1    3    3    0    0 -0.22365154277E+02  0.43149785879E+01  0.15652684266E+02  0.27637396604E+02  0.51100000000E-03 0.  1.
        -12    1    3    3    0    0 -0.11753863673E+01 -0.51998664358E+01  0.12850596233E+02  0.13912511189E+02  0.00000000000E+00 0.  1.
</event>
<event>
 7    1  0.2973028E-011  0.5052886E+02  0.7816164E-02  0.1300439E+00
        -11   -1    0    0    0    0  0.00000000000E+00  0.00000000000E+00  0.45593999997E+02  0.45594000000E+02  0.51100000000E-03 0. -1.
         11   -1    0    0    0    0 -0.00000000000E+00 -0.00000000000E+00 -0.45593999997E+02  0.45594000000E+02  0.51100000000E-03 0.  1.
    9900012    2    1    2    0    0 -0.30303808767E+02  0.21002895268E+02 -0.17138358043E+02  0.50528858939E+02  0.29999997232E+02 0.  0.
         12    1    1    2    0    0  0.30303808767E+02 -0.21002895268E+02  0.17138358043E+02  0.40659141061E+02  0.00000000000E+00 0. -1.
         11    1    3    3    0    0  0.38432435890E+01  0.83932867480E+01 -0.95318952072E+00  0.92804285592E+01  0.51100000000E-03 0. -1.
        -11    1    3    3    0    0 -0.10252861400E+02  0.56737514404E+01 -0.10483241375E+02  0.15722944135E+02  0.51100000000E-03 0.  1.
         12    1    3    3    0    0 -0.23894190955E+02  0.69358570791E+01 -0.57019271480E+01  0.25525486245E+02  0.00000000000E+00 0. -1.
</event>
<event>
 7    1  0.2973028E-011  0.5052896E+02  0.7816164E-02  0.1300438E+00
        -11   -1    0    0    0    0  0.00000000000E+00  0.00000000000E+00  0.45593999997E+02  0.45594000000E+02  0.51100000000E-03 0. -1.
         11   -1    0    0    0    0 -0.00000000000E+00 -0.00000000000E+00 -0.45593999997E+02  0.45594000000E+02  0.51100000000E-03 0.  1.
    9900012    2    1    2    0    0  0.18017897875E+02  0.34261965024E+02 -0.12435049318E+02  0.50528962349E+02  0.30000311555E+02 0.  0.
         12    1    1    2    0    0 -0.18017897875E+02 -0.34261965024E+02  0.12435049318E+02  0.40659037651E+02  0.00000000000E+00 0. -1.
         11    1    3    3    0    0  0.44895947280E+01  0.19889771802E+02 -0.12924604787E+02  0.24141352329E+02  0.51100000000E-03 0. -1.
        -11    1    3    3    0    0  0.13308137518E+02  0.16842411687E+02  0.42506749446E+01  0.21882449437E+02  0.51100000000E-03 0.  1.
         12    1    3    3    0    0  0.22016562947E+00 -0.24702184642E+01 -0.37611194759E+01  0.45051605829E+01  0.00000000000E+00 0. -1.
</event>
<event>
 7    1  0.2973028E-011  0.5052885E+02  0.7816164E-02  0.1300439E+00
        -11   -1    0    0    0    0  0.00000000000E+00  0.00000000000E+00  0.45593999997E+02  0.45594000000E+02  0.51100000000E-03 0.  1.
         11   -1    0    0    0    0 -0.00000000000E+00 -0.00000000000E+00 -0.45593999997E+02  0.45594000000E+02  0.51100000000E-03 0. -1.
    9900012    2    1    2    0    0 -0.14465954354E+02  0.54960127781E+00  0.37994741230E+02  0.50528852714E+02  0.29999978308E+02 0.  0.
         12    1    1    2    0    0  0.14465954354E+02 -0.54960127781E+00 -0.37994741230E+02  0.40659147286E+02  0.00000000000E+00 0. -1.
         11    1    3    3    0    0 -0.26183981957E+01  0.75096829645E+01 -0.14934437360E+01  0.80920777179E+01  0.51100000000E-03 0. -1.
        -11    1    3    3    0    0 -0.74726393292E+01 -0.31313625989E+00  0.21608741602E+02  0.22866484355E+02  0.51100000000E-03 0.  1.
         12    1    3    3    0    0 -0.43749168287E+01 -0.66469454268E+01  0.17879443364E+02  0.19570290641E+02  0.00000000000E+00 0. -1.
</event>
<event>
 7    1  0.2973028E-011  0.5052886E+02  0.7816164E-02  0.1300439E+00
        -11   -1    0    0    0    0  0.00000000000E+00  0.00000000000E+00  0.45593999997E+02  0.45594000000E+02  0.51100000000E-03 0.  1.
         11   -1    0    0    0    0 -0.00000000000E+00 -0.00000000000E+00 -0.45593999997E+02  0.45594000000E+02  0.51100000000E-03 0. -1.
    9900012    2    1    2    0    0  0.71092642795E+01  0.39469224001E+02 -0.66935787408E+01  0.50528864764E+02  0.30000014936E+02 0.  0.
         12    1    1    2    0    0 -0.71092642795E+01 -0.39469224001E+02  0.66935787408E+01  0.40659135236E+02  0.00000000000E+00 0. -1.
         11    1    3    3    0    0  0.86918993511E+01  0.22579592977E+02 -0.16702390987E+02  0.29399948951E+02  0.51100000000E-03 0. -1.
        -11    1    3    3    0    0  0.27674755145E+01  0.31616629747E+01  0.20490838066E+01  0.46748024767E+01  0.51100000000E-03 0.  1.
         12    1    3    3    0    0 -0.43501105862E+01  0.13727968049E+02  0.79597284397E+01  0.16454113336E+02  0.00000000000E+00 0. -1.
</event>
<event>
 7    1  0.2973028E-011  0.5052887E+02  0.7816164E-02  0.1300439E+00
        -11   -1    0    0    0    0  0.00000000000E+00  0.00000000000E+00  0.45593999997E+02  0.45594000000E+02  0.51100000000E-03 0. -1.
         11   -1    0    0    0    0 -0.00000000000E+00 -0.00000000000E+00 -0.45593999997E+02  0.45594000000E+02  0.51100000000E-03 0.  1.
    9900012    2    1    2    0    0  0.32857178513E+02  0.19563615894E+02 -0.13814332823E+02  0.50528867717E+02  0.30000023913E+02 0.  0.
         12    1    1    2    0    0 -0.32857178513E+02 -0.19563615894E+02  0.13814332823E+02  0.40659132283E+02  0.00000000000E+00 0. -1.
         11    1    3    3    0    0  0.24880752748E+02  0.13244030771E+01 -0.47817594155E+01  0.25370674492E+02  0.51100000000E-03 0. -1.
        -11    1    3    3    0    0  0.21908973954E+01  0.13351985154E+02 -0.10880402417E+02  0.17362565938E+02  0.51100000000E-03 0.  1.
        -12    1    3    3    0    0  0.57855283694E+01  0.48872276628E+01  0.18478290094E+01  0.77956272864E+01  0.00000000000E+00 0.  1.
</event>
<event>
 7    1  0.2973028E-011  0.5052885E+02  0.7816164E-02  0.1300439E+00
        -11   -1    0    0    0    0  0.00000000000E+00  0.00000000000E+00  0.45593999997E+02  0.45594000000E+02  0.51100000000E-03 0.  1.
         11   -1    0    0    0    0 -0.00000000000E+00 -0.00000000000E+00 -0.45593999997E+02  0.45594000000E+02  0.51100000000E-03 0. -1.
    9900012    2    1    2    0    0  0.25342030430E+01 -0.29588237080E+02  0.27771942675E+02  0.50528846559E+02  0.29999959600E+02 0.  0.
         12    1    1    2    0    0 -0.25342030430E+01  0.29588237080E+02 -0.27771942675E+02  0.40659153441E+02  0.00000000000E+00 0. -1.
         11    1    3    3    0    0 -0.10850356414E+02 -0.64587515032E+01  0.40853530134E+01  0.13271616887E+02  0.51100000000E-03 0. -1.
        -11    1    3    3    0    0  0.78153002572E+01 -0.77443106913E+01  0.41142279130E+01  0.11746494702E+02  0.51100000000E-03 0.  1.
         12    1    3    3    0    0  0.55692591996E+01 -0.15385174886E+02  0.19572361749E+02  0.25510734970E+02  0.00000000000E+00 0. -1.
</event>
<event>
 7    1  0.2973028E-011  0.5052887E+02  0.7816164E-02  0.1300439E+00
        -11   -1    0    0    0    0  0.00000000000E+00  0.00000000000E+00  0.45593999997E+02  0.45594000000E+02  0.51100000000E-03 0. -1.
         11   -1    0    0    0    0 -0.00000000000E+00 -0.00000000000E+00 -0.45593999997E+02  0.45594000000E+02  0.51100000000E-03 0.  1.
    9900012    2    1    2    0    0  0.21916412087E+01  0.85557570622E+01 -0.39688295898E+02  0.50528866937E+02  0.30000021542E+02 0.  0.
         12    1    1    2    0    0 -0.21916412087E+01 -0.85557570622E+01  0.39688295898E+02  0.40659133063E+02  0.00000000000E+00 0. -1.
         11    1    3    3    0    0 -0.22271468999E+01 -0.65623197977E+01 -0.16892606212E+02  0.18258816209E+02  0.51100000000E-03 0. -1.
        -11    1    3    3    0    0  0.70666468149E+00  0.16582466914E+02 -0.11241534307E+02  0.20046188609E+02  0.51100000000E-03 0.  1.
        -12    1    3    3    0    0  0.37121234271E+01 -0.14643900545E+01 -0.11554155380E+02  0.12223862119E+02  0.00000000000E+00 0.  1.
</event>
<event>
 7    1  0.2973028E-011  0.5052885E+02  0.7816164E-02  0.1300439E+00
        -11   -1    0    0    0    0  0.00000000000E+00  0.00000000000E+00  0.45593999997E+02  0.45594000000E+02  0.51100000000E-03 0. -1.
         11   -1    0    0    0    0 -0.00000000000E+00 -0.00000000000E+00 -0.45593999997E+02  0.45594000000E+02  0.51100000000E-03 0.  1.
    9900012    2    1    2    0    0  0.21075036907E+02 -0.24920539650E+02 -0.24248209090E+02  0.50528854397E+02  0.29999983425E+02 0.  0.
         12    1    1    2    0    0 -0.21075036907E+02  0.24920539650E+02  0.24248209090E+02  0.40659145603E+02  0.00000000000E+00 0. -1.
         11    1    3    3    0    0  0.54496709095E+01 -0.33472474189E+01  0.10705980435E+01  0.64845322681E+01  0.51100000000E-03 0. -1.
        -11    1    3    3    0    0 -0.28917482364E+00  0.21755382566E+01 -0.12539216528E+02  0.12729828757E+02  0.51100000000E-03 0.  1.
        -12    1    3    3    0    0  0.15914540821E+02 -0.23748830488E+02 -0.12779590606E+02  0.31314493372E+02  0.00000000000E+00 0.  1.
</event>
<event>
 7    1  0.2973028E-011  0.5052885E+02  0.7816164E-02  0.1300439E+00
        -11   -1    0    0    0    0  0.00000000000E+00  0.00000000000E+00  0.45593999997E+02  0.45594000000E+02  0.51100000000E-03 0.  1.
         11   -1    0    0    0    0 -0.00000000000E+00 -0.00000000000E+00 -0.45593999997E+02  0.45594000000E+02  0.51100000000E-03 0. -1.
    9900012    2    1    2    0    0  0.40157157058E+02  0.62582196555E+01  0.11848803140E+01  0.50528849522E+02  0.29999968608E+02 0.  0.
         12    1    1    2    0    0 -0.40157157058E+02 -0.62582196555E+01 -0.11848803140E+01  0.40659150478E+02  0.00000000000E+00 0. -1.
         11    1    3    3    0    0  0.23812729312E+02 -0.11927058658E+01 -0.13369452722E+02  0.27335158513E+02  0.51100000000E-03 0. -1.
        -11    1    3    3    0    0  0.35016551233E+01  0.14130474290E+01  0.40535673331E+01  0.55398285193E+01  0.51100000000E-03 0.  1.
         12    1    3    3    0    0  0.12842772622E+02  0.60378780923E+01  0.10500765703E+02  0.17653862490E+02  0.00000000000E+00 0. -1.
</event>
<event>
 7    1  0.2973028E-011  0.5052887E+02  0.7816164E-02  0.1300439E+00
        -11   -1    0    0    0    0  0.00000000000E+00  0.00000000000E+00  0.45593999997E+02  0.45594000000E+02  0.51100000000E-03 0.  1.
         11   -1    0    0    0    0 -0.00000000000E+00 -0.00000000000E+00 -0.45593999997E+02  0.45594000000E+02  0.51100000000E-03 0. -1.
    9900012    2    1    2    0    0  0.16234853757E+02 -0.36179421235E+02 -0.89801873724E+01  0.50528871104E+02  0.30000034206E+02 0.  0.
         12    1    1    2    0    0 -0.16234853757E+02  0.36179421235E+02  0.89801873724E+01  0.40659128896E+02  0.00000000000E+00 0. -1.
         11    1    3    3    0    0  0.44512980462E+01  0.13148303115E+01  0.31369310042E+01  0.56020683172E+01  0.51100000000E-03 0. -1.
        -11    1    3    3    0    0  0.10454229926E+02 -0.37611493578E+02 -0.70271425082E+01  0.39664796793E+02  0.51100000000E-03 0.  1.
        -12    1    3    3    0    0  0.13293257843E+01  0.11724203215E+00 -0.50899758683E+01  0.52620059935E+01  0.00000000000E+00 0.  1.
</event>
<event>
 7    1  0.2973028E-011  0.5052886E+02  0.7816164E-02  0.1300439E+00
        -11   -1    0    0    0    0  0.00000000000E+00  0.00000000000E+00  0.45593999997E+02  0.45594000000E+02  0.51100000000E-03 0. -1.
         11   -1    0    0    0    0 -0.00000000000E+00 -0.00000000000E+00 -0.45593999997E+02  0.45594000000E+02  0.51100000000E-03 0.  1.
    9900012    2    1    2    0    0 -0.24632499514E+02  0.11022731285E+02 -0.30412254893E+02  0.50528857301E+02  0.29999992254E+02 0.  0.
         12    1    1    2    0    0  0.24632499514E+02 -0.11022731285E+02  0.30412254893E+02  0.40659142699E+02  0.00000000000E+00 0. -1.
         11    1    3    3    0    0 -0.20555599849E+02 -0.27433011506E+01 -0.69295622027E+01  0.21864976994E+02  0.51100000000E-03 0. -1.
        -11    1    3    3    0    0 -0.24543837309E+01  0.39374843760E+01 -0.14591749174E+02  0.15311659836E+02  0.51100000000E-03 0.  1.
         12    1    3    3    0    0 -0.16225159340E+01  0.98285480593E+01 -0.88909435165E+01  0.13352220472E+02  0.00000000000E+00 0. -1.
</event>
<event>
 7    1  0.2973028E-011  0.5052885E+02  0.7816164E-02  0.1300439E+00
        -11   -1    0    0    0    0  0.00000000000E+00  0.00000000000E+00  0.45593999997E+02  0.45594000000E+02  0.51100000000E-03 0. -1.
         11   -1    0    0    0    0 -0.00000000000E+00 -0.00000000000E+00 -0.45593999997E+02  0.45594000000E+02  0.51100000000E-03 0.  1.
    9900012    2    1    2    0    0 -0.19003079994E+01 -0.39992785460E+02 -0.70803969511E+01  0.50528854900E+02  0.29999984953E+02 0.  0.
         12    1    1    2    0    0  0.19003079994E+01  0.39992785460E+02  0.70803969511E+01  0.40659145100E+02  0.00000000000E+00 0. -1.
         11    1    3    3    0    0  0.22017953742E+01 -0.11401474776E+01  0.65317936170E+01  0.69865704933E+01  0.51100000000E-03 0. -1.
        -11    1    3    3    0    0 -0.33816339589E+01 -0.28922032981E+02 -0.34623885702E+01  0.29324180719E+02  0.51100000000E-03 0.  1.
         12    1    3    3    0    0 -0.72046941476E+00 -0.99306050011E+01 -0.10149801998E+02  0.14218103687E+02  0.00000000000E+00 0. -1.
</event>
<event>
 7    1  0.2973028E-011  0.5052886E+02  0.7816164E-02  0.1300439E+00
        -11   -1    0    0    0    0  0.00000000000E+00  0.00000000000E+00  0.45593999997E+02  0.45594000000E+02  0.51100000000E-03 0.  1.
         11   -1    0    0    0    0 -0.00000000000E+00 -0.00000000000E+00 -0.45593999997E+02  0.45594000000E+02  0.51100000000E-03 0. -1.
    9900012    2    1    2    0    0 -0.28167624564E+02  0.21717968587E+02  0.19699755694E+02  0.50528860713E+02  0.30000002624E+02 0.  0.
         12    1    1    2    0    0  0.28167624564E+02 -0.21717968587E+02 -0.19699755694E+02  0.40659139287E+02  0.00000000000E+00 0. -1.
         11    1    3    3    0    0 -0.36954670050E+01  0.11137247640E+02  0.43672705095E-01  0.11734422395E+02  0.51100000000E-03 0. -1.
        -11    1    3    3    0    0 -0.27556972699E+02  0.10397765080E+02  0.20120075825E+02  0.35669562857E+02  0.51100000000E-03 0.  1.
        -12    1    3    3    0    0  0.30848151396E+01  0.18295586735E+00 -0.46399283634E+00  0.31248754610E+01  0.00000000000E+00 0.  1.
</event>
<event>
 7    1  0.2973028E-011  0.5052895E+02  0.7816164E-02  0.1300438E+00
        -11   -1    0    0    0    0  0.00000000000E+00  0.00000000000E+00  0.45593999997E+02  0.45594000000E+02  0.51100000000E-03 0. -1.
         11   -1    0    0    0    0 -0.00000000000E+00 -0.00000000000E+00 -0.45593999997E+02  0.45594000000E+02  0.51100000000E-03 0.  1.
    9900012    2    1    2    0    0  0.11225248996E+02 -0.15793970081E+02 -0.35744971669E+02  0.50528945589E+02  0.30000260611E+02 0.  0.
         12    1    1    2    0    0 -0.11225248996E+02  0.15793970081E+02  0.35744971669E+02  0.40659054411E+02  0.00000000000E+00 0. -1.
         11    1    3    3    0    0  0.39094405226E+00  0.59288129825E+01 -0.17880643119E+01  0.62049040990E+01  0.51100000000E-03 0. -1.
        -11    1    3    3    0    0  0.55171481148E+01 -0.19991061435E+02 -0.32487033743E+02  0.38542039675E+02  0.51100000000E-03 0.  1.
        -12    1    3    3    0    0  0.53171568291E+01 -0.17317216291E+01 -0.14698736141E+01  0.57820018149E+01  0.00000000000E+00 0.  1.
</event>
<event>
 7    1  0.2973028E-011  0.5052885E+02  0.7816164E-02  0.1300439E+00
        -11   -1    0    0    0    0  0.00000000000E+00  0.00000000000E+00  0.45593999997E+02  0.45594000000E+02  0.51100000000E-03 0.  1.
         11   -1    0    0    0    0 -0.00000000000E+00 -0.00000000000E+00 -0.45593999997E+02  0.45594000000E+02  0.51100000000E-03 0. -1.
    9900012    2    1    2    0    0  0.28541373213E+02 -0.17965017736E+02  0.22711558269E+02  0.50528846957E+02  0.29999960811E+02 0.  0.
         12    1    1    2    0    0 -0.28541373213E+02  0.17965017736E+02 -0.22711558269E+02  0.40659153043E+02  0.00000000000E+00 0. -1.
         11    1    3    3    0    0  0.31571133798E+02 -0.14572987617E+02  0.12232980569E+02  0.36861284178E+02  0.51100000000E-03 0.  1.
        -11    1    3    3    0    0 -0.30925437218E+01  0.17930975769E+01  0.46688730718E+01  0.58802552337E+01  0.51100000000E-03 0. -1.
        -12    1    3    3    0    0  0.62783136936E-01 -0.51851276950E+01  0.58097046286E+01  0.77873075454E+01  0.00000000000E+00 0.  1.
</event>
<event>
 7    1  0.2973028E-011  0.5052887E+02  0.7816164E-02  0.1300439E+00
        -11   -1    0    0    0    0  0.00000000000E+00  0.00000000000E+00  0.45593999997E+02  0.45594000000E+02  0.51100000000E-03 0. -1.
         11   -1    0    0    0    0 -0.00000000000E+00 -0.00000000000E+00 -0.45593999997E+02  0.45594000000E+02  0.51100000000E-03 0.  1.
    9900012    2    1    2    0    0 -0.33969651549E+02 -0.19399783309E+02  0.11084962056E+02  0.50528865693E+02  0.30000017761E+02 0.  0.
         12    1    1    2    0    0  0.33969651549E+02  0.19399783309E+02 -0.11084962056E+02  0.40659134307E+02  0.00000000000E+00 0. -1.
         11    1    3    3    0    0 -0.14738954912E+02 -0.37692597502E+01 -0.57560723479E+01  0.16265807084E+02  0.51100000000E-03 0. -1.
        -11    1    3    3    0    0  0.17664003101E+00 -0.67338162687E+01 -0.50526523554E+00  0.67550556223E+01  0.51100000000E-03 0.  1.
         12    1    3    3    0    0 -0.19407336668E+02 -0.88967072904E+01  0.17346299640E+02  0.27508002987E+02  0.00000000000E+00 0. -1.
</event>
<event>
 7    1  0.2973028E-011  0.5052886E+02  0.7816164E-02  0.1300439E+00
        -11   -1    0    0    0    0  0.00000000000E+00  0.00000000000E+00  0.45593999997E+02  0.45594000000E+02  0.51100000000E-03 0.  1.
         11   -1    0    0    0    0 -0.00000000000E+00 -0.00000000000E+00 -0.45593999997E+02  0.45594000000E+02  0.51100000000E-03 0. -1.
    9900012    2    1    2    0    0  0.18151812451E+02 -0.35293246665E+02  0.88354034263E+01  0.50528857004E+02  0.29999991350E+02 0.  0.
         12    1    1    2    0    0 -0.18151812451E+02  0.35293246665E+02 -0.88354034263E+01  0.40659142996E+02  0.00000000000E+00 0. -1.
         11    1    3    3    0    0 -0.23208469883E+01 -0.15798470250E+01 -0.54769886087E+00  0.28604582970E+01  0.51100000000E-03 0. -1.
        -11    1    3    3    0    0  0.21296574627E+02 -0.14663255816E+02 -0.11549683763E+01  0.25882216176E+02  0.51100000000E-03 0.  1.
        -12    1    3    3    0    0 -0.82391518736E+00 -0.19050143824E+02  0.10538070663E+02  0.21786182531E+02  0.00000000000E+00 0.  1.
</event>
<event>
 7    1  0.2973028E-011  0.5052879E+02  0.7816164E-02  0.1300439E+00
        -11   -1    0    0    0    0  0.00000000000E+00  0.00000000000E+00  0.45593999997E+02  0.45594000000E+02  0.51100000000E-03 0. -1.
         11   -1    0    0    0    0 -0.00000000000E+00 -0.00000000000E+00 -0.45593999997E+02  0.45594000000E+02  0.51100000000E-03 0.  1.
    9900012    2    1    2    0    0 -0.10615633181E+02 -0.24124996114E+02 -0.30959080137E+02  0.50528785199E+02  0.29999773090E+02 0.  0.
         12    1    1    2    0    0  0.10615633181E+02  0.24124996114E+02  0.30959080137E+02  0.40659214801E+02  0.00000000000E+00 0. -1.
         11    1    3    3    0    0 -0.14876323504E+02 -0.21835605383E+02 -0.19262960633E+02  0.32698017005E+02  0.51100000000E-03 0. -1.
        -11    1    3    3    0    0  0.60204327313E+00  0.31387447518E+00 -0.13106590827E+02  0.13124164608E+02  0.51100000000E-03 0.  1.
         12    1    3    3    0    0  0.36586470496E+01 -0.26032652056E+01  0.14104713234E+01  0.47066035863E+01  0.00000000000E+00 0. -1.
</event>
<event>
 7    1  0.2973028E-011  0.5052892E+02  0.7816164E-02  0.1300439E+00
        -11   -1    0    0    0    0  0.00000000000E+00  0.00000000000E+00  0.45593999997E+02  0.45594000000E+02  0.51100000000E-03 0.  1.
         11   -1    0    0    0    0 -0.00000000000E+00 -0.00000000000E+00 -0.45593999997E+02  0.45594000000E+02  0.51100000000E-03 0. -1.
    9900012    2    1    2    0    0 -0.45718395291E+01 -0.22544906090E+02  0.33525905659E+02  0.50528919126E+02  0.30000180173E+02 0.  0.
         12    1    1    2    0    0  0.45718395291E+01  0.22544906090E+02 -0.33525905659E+02  0.40659080874E+02  0.00000000000E+00 0. -1.
         11    1    3    3    0    0 -0.13225384035E+02 -0.40108941816E+01  0.58500670029E+01  0.15007376160E+02  0.51100000000E-03 0. -1.
        -11    1    3    3    0    0  0.27479247667E+01 -0.13835295376E+00  0.52000746597E+01  0.58831121689E+01  0.51100000000E-03 0.  1.
         12    1    3    3    0    0  0.59056197389E+01 -0.18395658954E+02  0.22475763997E+02  0.29638430797E+02  0.00000000000E+00 0. -1.
</event>
<event>
 7    1  0.2973028E-011  0.5052886E+02  0.7816164E-02  0.1300439E+00
        -11   -1    0    0    0    0  0.00000000000E+00  0.00000000000E+00  0.45593999997E+02  0.45594000000E+02  0.51100000000E-03 0. -1.
         11   -1    0    0    0    0 -0.00000000000E+00 -0.00000000000E+00 -0.45593999997E+02  0.45594000000E+02  0.51100000000E-03 0.  1.
    9900012    2    1    2    0    0 -0.29803236160E+02 -0.23754164745E+02  0.14165879710E+02  0.50528863557E+02  0.30000011267E+02 0.  0.
         12    1    1    2    0    0  0.29803236160E+02  0.23754164745E+02 -0.14165879710E+02  0.40659136443E+02  0.00000000000E+00 0. -1.
         11    1    3    3    0    0 -0.30985611063E+02 -0.13231725718E+02  0.16777826728E+02  0.37638838032E+02  0.51100000000E-03 0. -1.
        -11    1    3    3    0    0 -0.57236139823E+00 -0.42349187437E-01 -0.21810687009E+01  0.22553163776E+01  0.51100000000E-03 0.  1.
         12    1    3    3    0    0  0.17547363005E+01 -0.10480089839E+02 -0.43087831727E+00  0.10634709147E+02  0.00000000000E+00 0. -1.
</event>
<event>
 7    1  0.2973028E-011  0.5052889E+02  0.7816164E-02  0.1300439E+00
        -11   -1    0    0    0    0  0.00000000000E+00  0.00000000000E+00  0.45593999997E+02  0.45594000000E+02  0.51100000000E-03 0. -1.
         11   -1    0    0    0    0 -0.00000000000E+00 -0.00000000000E+00 -0.45593999997E+02  0.45594000000E+02  0.51100000000E-03 0.  1.
    9900012    2    1    2    0    0 -0.31220716946E+02 -0.25978504056E+02 -0.18834102207E+01  0.50528891874E+02  0.30000097339E+02 0.  0.
         12    1    1    2    0    0  0.31220716946E+02  0.25978504056E+02  0.18834102207E+01  0.40659108126E+02  0.00000000000E+00 0. -1.
         11    1    3    3    0    0 -0.25088236227E+02 -0.25993964291E+02  0.82714116790E+01  0.37061058106E+02  0.51100000000E-03 0. -1.
        -11    1    3    3    0    0 -0.14925657273E+01  0.29772838666E+01 -0.41635187984E+01  0.53316846042E+01  0.51100000000E-03 0.  1.
        -12    1    3    3    0    0 -0.46399149918E+01 -0.29618236313E+01 -0.59913031013E+01  0.81361491632E+01  0.00000000000E+00 0.  1.
</event>
<event>
 7    1  0.2973028E-011  0.5052887E+02  0.7816164E-02  0.1300439E+00
        -11   -1    0    0    0    0  0.00000000000E+00  0.00000000000E+00  0.45593999997E+02  0.45594000000E+02  0.51100000000E-03 0.  1.
         11   -1    0    0    0    0 -0.00000000000E+00 -0.00000000000E+00 -0.45593999997E+02  0.45594000000E+02  0.51100000000E-03 0. -1.
    9900012    2    1    2    0    0 -0.13088555579E+01 -0.25479294077E+02  0.31658452872E+02  0.50528866121E+02  0.30000019061E+02 0.  0.
         12    1    1    2    0    0  0.13088555579E+01  0.25479294077E+02 -0.31658452872E+02  0.40659133879E+02  0.00000000000E+00 0. -1.
         11    1    3    3    0    0 -0.24301953955E+01 -0.78223078266E+00  0.21884599443E+02  0.22033007687E+02  0.51100000000E-03 0. -1.
        -11    1    3    3    0    0  0.36322054494E+01 -0.89259130848E+01  0.78133856707E+01  0.12406201543E+02  0.51100000000E-03 0.  1.
         12    1    3    3    0    0 -0.25108656118E+01 -0.15771150209E+02  0.19604677584E+01  0.16089656891E+02  0.00000000000E+00 0. -1.
</event>
<event>
 7    1  0.2973028E-011  0.5052885E+02  0.7816164E-02  0.1300439E+00
        -11   -1    0    0    0    0  0.00000000000E+00  0.00000000000E+00  0.45593999997E+02  0.45594000000E+02  0.51100000000E-03 0.  1.
         11   -1    0    0    0    0 -0.00000000000E+00 -0.00000000000E+00 -0.45593999997E+02  0.45594000000E+02  0.51100000000E-03 0. -1.
    9900012    2    1    2    0    0  0.30305059692E+02  0.23906890118E+02  0.12776156640E+02  0.50528853224E+02  0.29999979860E+02 0.  0.
         12    1    1    2    0    0 -0.30305059692E+02 -0.23906890118E+02 -0.12776156640E+02  0.40659146776E+02  0.00000000000E+00 0. -1.
         11    1    3    3    0    0 -0.31090360893E+01  0.73501205921E+01  0.43914104945E+01  0.91090539858E+01  0.51100000000E-03 0. -1.
        -11    1    3    3    0    0  0.19251472955E+02  0.16797601604E+02  0.93878167405E+01  0.27219657125E+02  0.51100000000E-03 0.  1.
         12    1    3    3    0    0  0.14162622827E+02 -0.24083207813E+00 -0.10030705949E+01  0.14200142114E+02  0.00000000000E+00 0. -1.
</event>
<event>
 7    1  0.2973028E-011  0.5052886E+02  0.7816164E-02  0.1300439E+00
        -11   -1    0    0    0    0  0.00000000000E+00  0.00000000000E+00  0.45593999997E+02  0.45594000000E+02  0.51100000000E-03 0.  1.
         11   -1    0    0    0    0 -0.00000000000E+00 -0.00000000000E+00 -0.45593999997E+02  0.45594000000E+02  0.51100000000E-03 0. -1.
    9900012    2    1    2    0    0  0.18846645401E+02 -0.21684767230E+02  0.28770480484E+02  0.50528859331E+02  0.29999998423E+02 0.  0.
         12    1    1    2    0    0 -0.18846645401E+02  0.21684767230E+02 -0.28770480484E+02  0.40659140669E+02  0.00000000000E+00 0. -1.
         11    1    3    3    0    0  0.19642925171E+02 -0.77664938963E+01  0.90021744779E+01  0.22960881566E+02  0.51100000000E-03 0. -1.
        -11    1    3    3    0    0  0.17420521574E+01 -0.11891573121E+02  0.20915931073E+02  0.24123026964E+02  0.51100000000E-03 0.  1.
         12    1    3    3    0    0 -0.25383319276E+01 -0.20267002124E+01 -0.11476250669E+01  0.34449508008E+01  0.00000000000E+00 0. -1.
</event>
<event>
 7    1  0.3422719E-011  0.5052886E+02  0.7816164E-02  0.1300439E+00
        -11   -1    0    0    0    0  0.00000000000E+00  0.00000000000E+00  0.45593999997E+02  0.45594000000E+02  0.51100000000E-03 0. -1.
         11   -1    0    0    0    0 -0.00000000000E+00 -0.00000000000E+00 -0.45593999997E+02  0.45594000000E+02  0.51100000000E-03 0.  1.
    9900012    2    1    2    0    0  0.14821621010E+02  0.60290410169E+01 -0.37378278211E+02  0.50528862442E+02  0.30000007879E+02 0.  0.
         12    1    1    2    0    0 -0.14821621010E+02 -0.60290410169E+01  0.37378278211E+02  0.40659137558E+02  0.00000000000E+00 0. -1.
         11    1    3    3    0    0 -0.73808467465E+01 -0.15773102502E+01 -0.58793758857E+01  0.95672288248E+01  0.51100000000E-03 0. -1.
        -11    1    3    3    0    0  0.82650453686E+01  0.52239358970E+01 -0.21574679719E+02  0.23686858940E+02  0.51100000000E-03 0.  1.
         12    1    3    3    0    0  0.13937422388E+02  0.23824153702E+01 -0.99242226064E+01  0.17274774678E+02  0.00000000000E+00 0. -1.
</event>
<event>
 7    1  0.2973028E-011  0.5052885E+02  0.7816164E-02  0.1300439E+00
        -11   -1    0    0    0    0  0.00000000000E+00  0.00000000000E+00  0.45593999997E+02  0.45594000000E+02  0.51100000000E-03 0.  1.
         11   -1    0    0    0    0 -0.00000000000E+00 -0.00000000000E+00 -0.45593999997E+02  0.45594000000E+02  0.51100000000E-03 0. -1.
    9900012    2    1    2    0    0  0.10054328390E+02  0.34394971727E+02  0.19211000837E+02  0.50528854010E+02  0.29999982249E+02 0.  0.
         12    1    1    2    0    0 -0.10054328390E+02 -0.34394971727E+02 -0.19211000837E+02  0.40659145990E+02  0.00000000000E+00 0. -1.
         11    1    3    3    0    0  0.84919492966E+01  0.19515518943E+01  0.20233263450E+01  0.89451443483E+01  0.51100000000E-03 0. -1.
        -11    1    3    3    0    0  0.69838945396E+00  0.30834279215E+02  0.75209376410E+01  0.31745945029E+02  0.51100000000E-03 0.  1.
        -12    1    3    3    0    0  0.86398963973E+00  0.16091406177E+01  0.96667368512E+01  0.98377646331E+01  0.00000000000E+00 0.  1.
</event>
<event>
 7    1  0.2973028E-011  0.5052886E+02  0.7816164E-02  0.1300439E+00
        -11   -1    0    0    0    0  0.00000000000E+00  0.00000000000E+00  0.45593999997E+02  0.45594000000E+02  0.51100000000E-03 0.  1.
         11   -1    0    0    0    0 -0.00000000000E+00 -0.00000000000E+00 -0.45593999997E+02  0.45594000000E+02  0.51100000000E-03 0. -1.
    9900012    2    1    2    0    0  0.29988417097E+02 -0.16067277385E+02  0.22264389441E+02  0.50528860810E+02  0.30000002917E+02 0.  0.
         12    1    1    2    0    0 -0.29988417097E+02  0.16067277385E+02 -0.22264389441E+02  0.40659139190E+02  0.00000000000E+00 0. -1.
         11    1    3    3    0    0  0.10446348770E+01 -0.21797026282E+00 -0.16533037383E+01  0.19677872278E+01  0.51100000000E-03 0. -1.
        -11    1    3    3    0    0  0.66838509335E+01 -0.18169639469E+02  0.14909342250E+02  0.24435591835E+02  0.51100000000E-03 0.  1.
        -12    1    3    3    0    0  0.22259931286E+02  0.23203323468E+01  0.90083509292E+01  0.24125481747E+02  0.00000000000E+00 0.  1.
</event>
<event>
 7    1  0.2973028E-011  0.5052886E+02  0.7816164E-02  0.1300439E+00
        -11   -1    0    0    0    0  0.00000000000E+00  0.00000000000E+00  0.45593999997E+02  0.45594000000E+02  0.51100000000E-03 0.  1.
         11   -1    0    0    0    0 -0.00000000000E+00 -0.00000000000E+00 -0.45593999997E+02  0.45594000000E+02  0.51100000000E-03 0. -1.
    9900012    2    1    2    0    0 -0.25676573865E+02  0.23548388913E+02  0.20960739793E+02  0.50528859841E+02  0.29999999972E+02 0.  0.
         12    1    1    2    0    0  0.25676573865E+02 -0.23548388913E+02 -0.20960739793E+02  0.40659140159E+02  0.00000000000E+00 0. -1.
         11    1    3    3    0    0 -0.31167869277E+02  0.18629417471E+02  0.12732151098E+02  0.38478551720E+02  0.51100000000E-03 0. -1.
        -11    1    3    3    0    0  0.40768532061E+01  0.44964577377E+00  0.41801845279E+01  0.58563517939E+01  0.51100000000E-03 0.  1.
         12    1    3    3    0    0  0.14144422067E+01  0.44693256679E+01  0.40484041668E+01  0.61939563270E+01  0.00000000000E+00 0. -1.
</event>
<event>
 7    1  0.2973028E-011  0.5052886E+02  0.7816164E-02  0.1300439E+00
        -11   -1    0    0    0    0  0.00000000000E+00  0.00000000000E+00  0.45593999997E+02  0.45594000000E+02  0.51100000000E-03 0.  1.
         11   -1    0    0    0    0 -0.00000000000E+00 -0.00000000000E+00 -0.45593999997E+02  0.45594000000E+02  0.51100000000E-03 0. -1.
    9900012    2    1    2    0    0 -0.22142748028E+02  0.25353123199E+02  0.22805340603E+02  0.50528859500E+02  0.29999998936E+02 0.  0.
         12    1    1    2    0    0  0.22142748028E+02 -0.25353123199E+02 -0.22805340603E+02  0.40659140500E+02  0.00000000000E+00 0. -1.
         11    1    3    3    0    0 -0.18209267477E+02  0.19934127852E+02  0.16227496796E+02  0.31500452819E+02  0.51100000000E-03 0.  1.
        -11    1    3    3    0    0 -0.71364796356E+01 -0.37591992503E+01  0.21577611638E+01  0.83496619149E+01  0.51100000000E-03 0. -1.
        -12    1    3    3    0    0  0.32029990846E+01  0.91781945974E+01  0.44200826437E+01  0.10678744766E+02  0.00000000000E+00 0.  1.
</event>
<event>
 7    1  0.2973028E-011  0.5052886E+02  0.7816164E-02  0.1300439E+00
        -11   -1    0    0    0    0  0.00000000000E+00  0.00000000000E+00  0.45593999997E+02  0.45594000000E+02  0.51100000000E-03 0. -1.
         11   -1    0    0    0    0 -0.00000000000E+00 -0.00000000000E+00 -0.45593999997E+02  0.45594000000E+02  0.51100000000E-03 0.  1.
    9900012    2    1    2    0    0  0.51039635063E+01 -0.36712247960E+02 -0.16713050125E+02  0.50528860336E+02  0.30000001477E+02 0.  0.
         12    1    1    2    0    0 -0.51039635063E+01  0.36712247960E+02  0.16713050125E+02  0.40659139664E+02  0.00000000000E+00 0. -1.
         11    1    3    3    0    0  0.17449989868E+00 -0.10154776932E+02  0.10437180935E+01  0.10209764565E+02  0.51100000000E-03 0. -1.
        -11    1    3    3    0    0  0.89387171806E+01 -0.19136732746E+02 -0.22319879276E+02  0.30729338037E+02  0.51100000000E-03 0.  1.
        -12    1    3    3    0    0 -0.40092535730E+01 -0.74207382822E+01  0.45631110581E+01  0.95897577339E+01  0.00000000000E+00 0.  1.
</event>
<event>
 7    1  0.2973028E-011  0.5052886E+02  0.7816164E-02  0.1300439E+00
        -11   -1    0    0    0    0  0.00000000000E+00  0.00000000000E+00  0.45593999997E+02  0.45594000000E+02  0.51100000000E-03 0.  1.
         11   -1    0    0    0    0 -0.00000000000E+00 -0.00000000000E+00 -0.45593999997E+02  0.45594000000E+02  0.51100000000E-03 0. -1.
    9900012    2    1    2    0    0 -0.25735398132E+01 -0.25476219534E+02  0.31583294234E+02  0.50528863959E+02  0.30000012490E+02 0.  0.
         12    1    1    2    0    0  0.25735398132E+01  0.25476219534E+02 -0.31583294234E+02  0.40659136041E+02  0.00000000000E+00 0. -1.
         11    1    3    3    0    0  0.90322953773E+01 -0.21672358918E+02  0.23984765972E+02  0.33564006016E+02  0.51100000000E-03 0.  1.
        -11    1    3    3    0    0 -0.74793393691E+01  0.22695069266E+01  0.42151851328E+01  0.88802570376E+01  0.51100000000E-03 0. -1.
        -12    1    3    3    0    0 -0.41264958214E+01 -0.60733675429E+01  0.33833431289E+01  0.80846009056E+01  0.00000000000E+00 0.  1.
</event>
<event>
 7    1  0.2973028E-011  0.5052886E+02  0.7816164E-02  0.1300439E+00
        -11   -1    0    0    0    0  0.00000000000E+00  0.00000000000E+00  0.45593999997E+02  0.45594000000E+02  0.51100000000E-03 0.  1.
         11   -1    0    0    0    0 -0.00000000000E+00 -0.00000000000E+00 -0.45593999997E+02  0.45594000000E+02  0.51100000000E-03 0. -1.
    9900012    2    1    2    0    0  0.14373332601E+02 -0.33119032646E+02  0.18700345806E+02  0.50528856542E+02  0.29999989946E+02 0.  0.
         12    1    1    2    0    0 -0.14373332601E+02  0.33119032646E+02 -0.18700345806E+02  0.40659143458E+02  0.00000000000E+00 0. -1.
         11    1    3    3    0    0  0.59087155831E+01  0.26374004086E+01  0.10377143811E+02  0.12229223797E+02  0.51100000000E-03 0. -1.
        -11    1    3    3    0    0  0.33309682524E+01 -0.11350300028E+02  0.59659162111E+01  0.13248275990E+02  0.51100000000E-03 0.  1.
         12    1    3    3    0    0  0.51336487659E+01 -0.24406133027E+02  0.23572857840E+01  0.25051356754E+02  0.00000000000E+00 0. -1.
</event>
<event>
 7    1  0.2973028E-011  0.5052885E+02  0.7816164E-02  0.1300439E+00
        -11   -1    0    0    0    0  0.00000000000E+00  0.00000000000E+00  0.45593999997E+02  0.45594000000E+02  0.51100000000E-03 0. -1.
         11   -1    0    0    0    0 -0.00000000000E+00 -0.00000000000E+00 -0.45593999997E+02  0.45594000000E+02  0.51100000000E-03 0.  1.
    9900012    2    1    2    0    0 -0.27991674831E+02 -0.26110173075E+02  0.13707338046E+02  0.50528854483E+02  0.29999983687E+02 0.  0.
         12    1    1    2    0    0  0.27991674831E+02  0.26110173075E+02 -0.13707338046E+02  0.40659145517E+02  0.00000000000E+00 0. -1.
         11    1    3    3    0    0 -0.18251966947E+02 -0.61462166979E+01  0.93319658481E+01  0.21400837927E+02  0.51100000000E-03 0. -1.
        -11    1    3    3    0    0  0.18399348546E+01 -0.15327777758E+02 -0.11607086617E+01  0.15481388056E+02  0.51100000000E-03 0.  1.
        -12    1    3    3    0    0 -0.11579642738E+02 -0.46361786187E+01  0.55360808600E+01  0.13646628500E+02  0.00000000000E+00 0.  1.
</event>
<event>
 7    1  0.2973028E-011  0.5052884E+02  0.7816164E-02  0.1300439E+00
        -11   -1    0    0    0    0  0.00000000000E+00  0.00000000000E+00  0.45593999997E+02  0.45594000000E+02  0.51100000000E-03 0. -1.
         11   -1    0    0    0    0 -0.00000000000E+00 -0.00000000000E+00 -0.45593999997E+02  0.45594000000E+02  0.51100000000E-03 0.  1.
    9900012    2    1    2    0    0  0.64438853582E+01  0.32561076162E+02 -0.23482331900E+02  0.50528840506E+02  0.29999941201E+02 0.  0.
         12    1    1    2    0    0 -0.64438853582E+01 -0.32561076162E+02  0.23482331900E+02  0.40659159494E+02  0.00000000000E+00 0. -1.
         11    1    3    3    0    0  0.57681886478E+01 -0.45608538290E+01 -0.40653893174E+01  0.84024269404E+01  0.51100000000E-03 0. -1.
        -11    1    3    3    0    0  0.23562667497E+01  0.25572587866E+02 -0.12525288814E+02  0.28572576071E+02  0.51100000000E-03 0.  1.
        -12    1    3    3    0    0 -0.16805700394E+01  0.11549342124E+02 -0.68916537683E+01  0.13553837494E+02  0.00000000000E+00 0.  1.
</event>
<event>
 7    1  0.2973028E-011  0.5052886E+02  0.7816164E-02  0.1300439E+00
        -11   -1    0    0    0    0  0.00000000000E+00  0.00000000000E+00  0.45593999997E+02  0.45594000000E+02  0.51100000000E-03 0.  1.
         11   -1    0    0    0    0 -0.00000000000E+00 -0.00000000000E+00 -0.45593999997E+02  0.45594000000E+02  0.51100000000E-03 0. -1.
    9900012    2    1    2    0    0  0.21665491592E+00  0.34808153839E+02  0.21012170890E+02  0.50528857872E+02  0.29999993989E+02 0.  0.
         12    1    1    2    0    0 -0.21665491592E+00 -0.34808153839E+02 -0.21012170890E+02  0.40659142128E+02  0.00000000000E+00 0. -1.
         11    1    3    3    0    0  0.25554467485E+01  0.35832859951E+00 -0.14264853173E+01  0.29484857285E+01  0.51100000000E-03 0. -1.
        -11    1    3    3    0    0 -0.22019944206E+01  0.33714910319E+02  0.26818799097E+02  0.43136897692E+02  0.51100000000E-03 0.  1.
        -12    1    3    3    0    0 -0.13679741203E+00  0.73491492068E+00 -0.43801428894E+01  0.44434744519E+01  0.00000000000E+00 0.  1.
</event>
<event>
 7    1  0.2973028E-011  0.5052886E+02  0.7816164E-02  0.1300439E+00
        -11   -1    0    0    0    0  0.00000000000E+00  0.00000000000E+00  0.45593999997E+02  0.45594000000E+02  0.51100000000E-03 0.  1.
         11   -1    0    0    0    0 -0.00000000000E+00 -0.00000000000E+00 -0.45593999997E+02  0.45594000000E+02  0.51100000000E-03 0. -1.
    9900012    2    1    2    0    0  0.16281024824E+02  0.27080285129E+02  0.25588124485E+02  0.50528859249E+02  0.29999998172E+02 0.  0.
         12    1    1    2    0    0 -0.16281024824E+02 -0.27080285129E+02 -0.25588124485E+02  0.40659140751E+02  0.00000000000E+00 0. -1.
         11    1    3    3    0    0 -0.54400792467E+01  0.19840804934E+01  0.13715035067E+02  0.14887351167E+02  0.51100000000E-03 0. -1.
        -11    1    3    3    0    0  0.21456758247E+02  0.25346768111E+02  0.11898455383E+02  0.35276399602E+02  0.51100000000E-03 0.  1.
        -12    1    3    3    0    0  0.26434582376E+00 -0.25056347505E+00 -0.25365965252E-01  0.36510847944E+00  0.00000000000E+00 0.  1.
</event>
<event>
 7    1  0.2973028E-011  0.5052885E+02  0.7816164E-02  0.1300439E+00
        -11   -1    0    0    0    0  0.00000000000E+00  0.00000000000E+00  0.45593999997E+02  0.45594000000E+02  0.51100000000E-03 0.  1.
         11   -1    0    0    0    0 -0.00000000000E+00 -0.00000000000E+00 -0.45593999997E+02  0.45594000000E+02  0.51100000000E-03 0. -1.
    9900012    2    1    2    0    0 -0.65697113184E+01 -0.19961597787E+02  0.34807182585E+02  0.50528850323E+02  0.29999971040E+02 0.  0.
         12    1    1    2    0    0  0.65697113184E+01  0.19961597787E+02 -0.34807182585E+02  0.40659149677E+02  0.00000000000E+00 0. -1.
         11    1    3    3    0    0 -0.13339022805E+02 -0.18594426972E+02  0.31353619728E+02  0.38816642231E+02  0.51100000000E-03 0.  1.
        -11    1    3    3    0    0  0.62923564646E+01  0.13836167181E+01 -0.93571575792E+00  0.65102772092E+01  0.51100000000E-03 0. -1.
         12    1    3    3    0    0  0.47695502183E+00 -0.27507875332E+01  0.43892786148E+01  0.52019308823E+01  0.00000000000E+00 0. -1.
</event>
<event>
 7    1  0.2973028E-011  0.5052889E+02  0.7816164E-02  0.1300439E+00
        -11   -1    0    0    0    0  0.00000000000E+00  0.00000000000E+00  0.45593999997E+02  0.45594000000E+02  0.51100000000E-03 0. -1.
         11   -1    0    0    0    0 -0.00000000000E+00 -0.00000000000E+00 -0.45593999997E+02  0.45594000000E+02  0.51100000000E-03 0.  1.
    9900012    2    1    2    0    0  0.31192184389E+02 -0.26080802450E+02 -0.49827662495E-01  0.50528891473E+02  0.30000096123E+02 0.  0.
         12    1    1    2    0    0 -0.31192184389E+02  0.26080802450E+02  0.49827662495E-01  0.40659108527E+02  0.00000000000E+00 0. -1.
         11    1    3    3    0    0  0.62191385753E+00 -0.10063138898E+02 -0.74735784390E+01  0.12550215786E+02  0.51100000000E-03 0. -1.
        -11    1    3    3    0    0  0.31716244849E+02 -0.14757777534E+02  0.84534168544E+01  0.35988504301E+02  0.51100000000E-03 0.  1.
        -12    1    3    3    0    0 -0.11459743178E+01 -0.12598860174E+01 -0.10296660779E+01  0.19901713860E+01  0.00000000000E+00 0.  1.
</event>
<event>
 7    1  0.2973028E-011  0.5052887E+02  0.7816164E-02  0.1300439E+00
        -11   -1    0    0    0    0  0.00000000000E+00  0.00000000000E+00  0.45593999997E+02  0.45594000000E+02  0.51100000000E-03 0.  1.
         11   -1    0    0    0    0 -0.00000000000E+00 -0.00000000000E+00 -0.45593999997E+02  0.45594000000E+02  0.51100000000E-03 0. -1.
    9900012    2    1    2    0    0  0.16378272863E+02 -0.32599356385E+02  0.17949912040E+02  0.50528865713E+02  0.30000017822E+02 0.  0.
         12    1    1    2    0    0 -0.16378272863E+02  0.32599356385E+02 -0.17949912040E+02  0.40659134287E+02  0.00000000000E+00 0. -1.
         11    1    3    3    0    0  0.22673941232E+02 -0.23090616808E+02  0.11608298787E+02  0.34380762012E+02  0.51100000000E-03 0. -1.
        -11    1    3    3    0    0 -0.64696870203E+01 -0.11158981010E+02  0.65656076308E+01  0.14473662672E+02  0.51100000000E-03 0.  1.
        -12    1    3    3    0    0  0.17401865056E+00  0.16502414327E+01 -0.22399437792E+00  0.16744410286E+01  0.00000000000E+00 0.  1.
</event>
<event>
 7    1  0.2973028E-011  0.5052885E+02  0.7816164E-02  0.1300439E+00
        -11   -1    0    0    0    0  0.00000000000E+00  0.00000000000E+00  0.45593999997E+02  0.45594000000E+02  0.51100000000E-03 0.  1.
         11   -1    0    0    0    0 -0.00000000000E+00 -0.00000000000E+00 -0.45593999997E+02  0.45594000000E+02  0.51100000000E-03 0. -1.
    9900012    2    1    2    0    0 -0.11033001654E+01  0.21419214138E+02  0.34542242486E+02  0.50528849474E+02  0.29999968462E+02 0.  0.
         12    1    1    2    0    0  0.11033001654E+01 -0.21419214138E+02 -0.34542242486E+02  0.40659150526E+02  0.00000000000E+00 0. -1.
         11    1    3    3    0    0  0.10230421528E+02  0.47352526933E+01  0.10602200959E+01  0.11322906412E+02  0.51100000000E-03 0. -1.
        -11    1    3    3    0    0 -0.58800347871E+01  0.10941670923E+02  0.19002276647E+02  0.22702015102E+02  0.51100000000E-03 0.  1.
         12    1    3    3    0    0 -0.54536869063E+01  0.57422905211E+01  0.14479745743E+02  0.16503927959E+02  0.00000000000E+00 0. -1.
</event>
<event>
 7    1  0.2973028E-011  0.5052887E+02  0.7816164E-02  0.1300439E+00
        -11   -1    0    0    0    0  0.00000000000E+00  0.00000000000E+00  0.45593999997E+02  0.45594000000E+02  0.51100000000E-03 0.  1.
         11   -1    0    0    0    0 -0.00000000000E+00 -0.00000000000E+00 -0.45593999997E+02  0.45594000000E+02  0.51100000000E-03 0. -1.
    9900012    2    1    2    0    0 -0.16047698209E+02  0.87210504725E+00  0.37348035039E+02  0.50528869337E+02  0.30000028837E+02 0.  0.
         12    1    1    2    0    0  0.16047698209E+02 -0.87210504725E+00 -0.37348035039E+02  0.40659130663E+02  0.00000000000E+00 0. -1.
         11    1    3    3    0    0  0.27325610885E+01  0.37720029636E+01  0.13586698771E+02  0.14362913361E+02  0.51100000000E-03 0. -1.
        -11    1    3    3    0    0 -0.20652290338E+02 -0.11489426855E+01  0.11554081350E+02  0.23692487450E+02  0.51100000000E-03 0.  1.
        -12    1    3    3    0    0  0.18720310402E+01 -0.17509552309E+01  0.12207254918E+02  0.12473468526E+02  0.00000000000E+00 0.  1.
</event>
<event>
 7    1  0.2973028E-011  0.5052885E+02  0.7816164E-02  0.1300439E+00
        -11   -1    0    0    0    0  0.00000000000E+00  0.00000000000E+00  0.45593999997E+02  0.45594000000E+02  0.51100000000E-03 0. -1.
         11   -1    0    0    0    0 -0.00000000000E+00 -0.00000000000E+00 -0.45593999997E+02  0.45594000000E+02  0.51100000000E-03 0.  1.
    9900012    2    1    2    0    0 -0.19441513208E+02  0.17171864251E+02 -0.31310076537E+02  0.50528852807E+02  0.29999978593E+02 0.  0.
         12    1    1    2    0    0  0.19441513208E+02 -0.17171864251E+02  0.31310076537E+02  0.40659147193E+02  0.00000000000E+00 0. -1.
         11    1    3    3    0    0 -0.82406680718E+01  0.92796895146E+01  0.11114647962E+00  0.12411027417E+02  0.51100000000E-03 0. -1.
        -11    1    3    3    0    0 -0.14703159948E+02  0.68911282481E+01 -0.18139568992E+02  0.24345729081E+02  0.51100000000E-03 0.  1.
         12    1    3    3    0    0  0.35023148120E+01  0.10010464887E+01 -0.13281654024E+02  0.13772096309E+02  0.00000000000E+00 0. -1.
</event>
<event>
 7    1  0.2973028E-011  0.5052886E+02  0.7816164E-02  0.1300439E+00
        -11   -1    0    0    0    0  0.00000000000E+00  0.00000000000E+00  0.45593999997E+02  0.45594000000E+02  0.51100000000E-03 0.  1.
         11   -1    0    0    0    0 -0.00000000000E+00 -0.00000000000E+00 -0.45593999997E+02  0.45594000000E+02  0.51100000000E-03 0. -1.
    9900012    2    1    2    0    0 -0.24342233536E+01 -0.11138712525E+02  0.39027802532E+02  0.50528859201E+02  0.29999998026E+02 0.  0.
         12    1    1    2    0    0  0.24342233536E+01  0.11138712525E+02 -0.39027802532E+02  0.40659140799E+02  0.00000000000E+00 0. -1.
         11    1    3    3    0    0  0.51266163574E+01 -0.17276405881E+02  0.18862114433E+02  0.26087080262E+02  0.51100000000E-03 0. -1.
        -11    1    3    3    0    0  0.11319727332E+01  0.36430604069E+01  0.10656655205E+02  0.11318902412E+02  0.51100000000E-03 0.  1.
        -12    1    3    3    0    0 -0.86928124442E+01  0.24946329496E+01  0.95090328949E+01  0.13122876527E+02  0.00000000000E+00 0.  1.
</event>
<event>
 7    1  0.2973028E-011  0.5052886E+02  0.7816164E-02  0.1300439E+00
        -11   -1    0    0    0    0  0.00000000000E+00  0.00000000000E+00  0.45593999997E+02  0.45594000000E+02  0.51100000000E-03 0.  1.
         11   -1    0    0    0    0 -0.00000000000E+00 -0.00000000000E+00 -0.45593999997E+02  0.45594000000E+02  0.51100000000E-03 0. -1.
    9900012    2    1    2    0    0 -0.30290169452E+02 -0.56477237976E+01  0.26528752894E+02  0.50528857367E+02  0.29999992452E+02 0.  0.
         12    1    1    2    0    0  0.30290169452E+02  0.56477237976E+01 -0.26528752894E+02  0.40659142633E+02  0.00000000000E+00 0. -1.
         11    1    3    3    0    0 -0.34638688416E+01  0.92688347346E+00 -0.26621804862E+01  0.44659495661E+01  0.51100000000E-03 0. -1.
        -11    1    3    3    0    0  0.87593064553E+00  0.67487294215E+00  0.13237565588E+02  0.13283668580E+02  0.51100000000E-03 0.  1.
         12    1    3    3    0    0 -0.27702231256E+02 -0.72494802132E+01  0.15953367792E+02  0.32779239220E+02  0.00000000000E+00 0. -1.
</event>
<event>
 7    1  0.2973028E-011  0.5052886E+02  0.7816164E-02  0.1300439E+00
        -11   -1    0    0    0    0  0.00000000000E+00  0.00000000000E+00  0.45593999997E+02  0.45594000000E+02  0.51100000000E-03 0. -1.
         11   -1    0    0    0    0 -0.00000000000E+00 -0.00000000000E+00 -0.45593999997E+02  0.45594000000E+02  0.51100000000E-03 0.  1.
    9900012    2    1    2    0    0  0.38387652977E+02  0.10830598846E+02 -0.78899816489E+01  0.50528861017E+02  0.30000003546E+02 0.  0.
         12    1    1    2    0    0 -0.38387652977E+02 -0.10830598846E+02  0.78899816489E+01  0.40659138983E+02  0.00000000000E+00 0. -1.
         11    1    3    3    0    0  0.26125078854E+01  0.22272018089E+00 -0.65397405648E+01  0.70457794918E+01  0.51100000000E-03 0. -1.
        -11    1    3    3    0    0  0.91418828739E+01  0.13281678194E+02  0.28942459025E+01  0.16381503525E+02  0.51100000000E-03 0.  1.
        -12    1    3    3    0    0  0.26633262218E+02 -0.26737995296E+01 -0.42444869866E+01  0.27101578000E+02  0.00000000000E+00 0.  1.
</event>
<event>
 7    1  0.2973028E-011  0.5052886E+02  0.7816164E-02  0.1300439E+00
        -11   -1    0    0    0    0  0.00000000000E+00  0.00000000000E+00  0.45593999997E+02  0.45594000000E+02  0.51100000000E-03 0.  1.
         11   -1    0    0    0    0 -0.00000000000E+00 -0.00000000000E+00 -0.45593999997E+02  0.45594000000E+02  0.51100000000E-03 0. -1.
    9900012    2    1    2    0    0 -0.85724836825E+01 -0.34122534051E+02  0.20379665165E+02  0.50528861313E+02  0.30000004447E+02 0.  0.
         12    1    1    2    0    0  0.85724836825E+01  0.34122534051E+02 -0.20379665165E+02  0.40659138687E+02  0.00000000000E+00 0. -1.
         11    1    3    3    0    0  0.36104737778E+01 -0.17314037041E+02  0.11719749330E+01  0.17725262341E+02  0.51100000000E-03 0.  1.
        -11    1    3    3    0    0 -0.15455859032E+02 -0.12238443405E+02  0.10228421875E+02  0.22209990764E+02  0.51100000000E-03 0. -1.
        -12    1    3    3    0    0  0.32729015721E+01 -0.45700536047E+01  0.89792683569E+01  0.10593608209E+02  0.00000000000E+00 0.  1.
</event>
<event>
 7    1  0.2973028E-011  0.5052887E+02  0.7816164E-02  0.1300439E+00
        -11   -1    0    0    0    0  0.00000000000E+00  0.00000000000E+00  0.45593999997E+02  0.45594000000E+02  0.51100000000E-03 0.  1.
         11   -1    0    0    0    0 -0.00000000000E+00 -0.00000000000E+00 -0.45593999997E+02  0.45594000000E+02  0.51100000000E-03 0. -1.
    9900012    2    1    2    0    0  0.21257799226E+02 -0.29885750522E+02  0.17553150090E+02  0.50528865845E+02  0.30000018223E+02 0.  0.
         12    1    1    2    0    0 -0.21257799226E+02  0.29885750522E+02 -0.17553150090E+02  0.40659134155E+02  0.00000000000E+00 0. -1.
         11    1    3    3    0    0  0.15219184071E+02 -0.26658379135E+01 -0.25954715437E+01  0.15667377839E+02  0.51100000000E-03 0. -1.
        -11    1    3    3    0    0  0.69706450265E+00 -0.13000875077E+02  0.11567094397E+02  0.17415691911E+02  0.51100000000E-03 0.  1.
         12    1    3    3    0    0  0.53415506524E+01 -0.14219037531E+02  0.85815272366E+01  0.17445796095E+02  0.00000000000E+00 0. -1.
</event>
<event>
 7    1  0.2973028E-011  0.5052885E+02  0.7816164E-02  0.1300439E+00
        -11   -1    0    0    0    0  0.00000000000E+00  0.00000000000E+00  0.45593999997E+02  0.45594000000E+02  0.51100000000E-03 0.  1.
         11   -1    0    0    0    0 -0.00000000000E+00 -0.00000000000E+00 -0.45593999997E+02  0.45594000000E+02  0.51100000000E-03 0. -1.
    9900012    2    1    2    0    0  0.13818407726E+02 -0.12988294432E+02  0.35965567301E+02  0.50528853236E+02  0.29999979895E+02 0.  0.
         12    1    1    2    0    0 -0.13818407726E+02  0.12988294432E+02 -0.35965567301E+02  0.40659146764E+02  0.00000000000E+00 0. -1.
         11    1    3    3    0    0 -0.12671768117E+01  0.16832791494E+01 -0.67501987739E+00  0.22124235270E+01  0.51100000000E-03 0. -1.
        -11    1    3    3    0    0  0.36488959637E+01 -0.16455486409E+02  0.31341064180E+02  0.35585949178E+02  0.51100000000E-03 0.  1.
        -12    1    3    3    0    0  0.11436688574E+02  0.17839128280E+01  0.52995229983E+01  0.12730480530E+02  0.00000000000E+00 0.  1.
</event>
<event>
 7    1  0.2973028E-011  0.5052885E+02  0.7816164E-02  0.1300439E+00
        -11   -1    0    0    0    0  0.00000000000E+00  0.00000000000E+00  0.45593999997E+02  0.45594000000E+02  0.51100000000E-03 0. -1.
         11   -1    0    0    0    0 -0.00000000000E+00 -0.00000000000E+00 -0.45593999997E+02  0.45594000000E+02  0.51100000000E-03 0.  1.
    9900012    2    1    2    0    0  0.14221423708E+02  0.44247686433E+01 -0.37833036081E+02  0.50528854794E+02  0.29999984631E+02 0.  0.
         12    1    1    2    0    0 -0.14221423708E+02 -0.44247686433E+01  0.37833036081E+02  0.40659145206E+02  0.00000000000E+00 0. -1.
         11    1    3    3    0    0 -0.31640371619E+01  0.74211956890E+01 -0.38233823316E+00  0.80765994949E+01  0.51100000000E-03 0. -1.
        -11    1    3    3    0    0  0.53261546556E+01 -0.90508808870E+00 -0.36925453193E+01  0.65438520048E+01  0.51100000000E-03 0.  1.
         12    1    3    3    0    0  0.12059306214E+02 -0.20913389570E+01 -0.33758152528E+02  0.35908403294E+02  0.00000000000E+00 0. -1.
</event>
<event>
 7    1  0.2973028E-011  0.5052886E+02  0.7816164E-02  0.1300439E+00
        -11   -1    0    0    0    0  0.00000000000E+00  0.00000000000E+00  0.45593999997E+02  0.45594000000E+02  0.51100000000E-03 0.  1.
         11   -1    0    0    0    0 -0.00000000000E+00 -0.00000000000E+00 -0.45593999997E+02  0.45594000000E+02  0.51100000000E-03 0. -1.
    9900012    2    1    2    0    0 -0.34671454410E+02 -0.36212626607E+01  0.20927077261E+02  0.50528857647E+02  0.29999993305E+02 0.  0.
         12    1    1    2    0    0  0.34671454410E+02  0.36212626607E+01 -0.20927077261E+02  0.40659142353E+02  0.00000000000E+00 0. -1.
         11    1    3    3    0    0 -0.16280599302E+02  0.65056908191E+01  0.19817755471E+02  0.26459882064E+02  0.51100000000E-03 0. -1.
        -11    1    3    3    0    0 -0.17483397850E+02 -0.62839789297E+01  0.42087481230E+01  0.19049177215E+02  0.51100000000E-03 0.  1.
         12    1    3    3    0    0 -0.90745725805E+00 -0.38429745501E+01 -0.30994263325E+01  0.50197983683E+01  0.00000000000E+00 0. -1.
</event>
<event>
 7    1  0.2973028E-011  0.5052886E+02  0.7816164E-02  0.1300439E+00
        -11   -1    0    0    0    0  0.00000000000E+00  0.00000000000E+00  0.45593999997E+02  0.45594000000E+02  0.51100000000E-03 0. -1.
         11   -1    0    0    0    0 -0.00000000000E+00 -0.00000000000E+00 -0.45593999997E+02  0.45594000000E+02  0.51100000000E-03 0.  1.
    9900012    2    1    2    0    0 -0.27015540156E+02  0.16552867651E+02  0.25481936176E+02  0.50528857010E+02  0.29999991368E+02 0.  0.
         12    1    1    2    0    0  0.27015540156E+02 -0.16552867651E+02 -0.25481936176E+02  0.40659142990E+02  0.00000000000E+00 0. -1.
         11    1    3    3    0    0 -0.80151492617E+01  0.10650379076E+02  0.13838094046E+02  0.19213694055E+02  0.51100000000E-03 0. -1.
        -11    1    3    3    0    0 -0.54294158930E+01 -0.52859021214E+01 -0.32718424656E+01  0.82537428817E+01  0.51100000000E-03 0.  1.
        -12    1    3    3    0    0 -0.13570975002E+02  0.11188390697E+02  0.14915684595E+02  0.23061420074E+02  0.00000000000E+00 0.  1.
</event>
<event>
 7    1  0.2973028E-011  0.5052886E+02  0.7816164E-02  0.1300439E+00
        -11   -1    0    0    0    0  0.00000000000E+00  0.00000000000E+00  0.45593999997E+02  0.45594000000E+02  0.51100000000E-03 0.  1.
         11   -1    0    0    0    0 -0.00000000000E+00 -0.00000000000E+00 -0.45593999997E+02  0.45594000000E+02  0.51100000000E-03 0. -1.
    9900012    2    1    2    0    0  0.16340201012E+02 -0.69317387179E+01  0.36580247212E+02  0.50528860107E+02  0.30000000782E+02 0.  0.
         12    1    1    2    0    0 -0.16340201012E+02  0.69317387179E+01 -0.36580247212E+02  0.40659139893E+02  0.00000000000E+00 0. -1.
         11    1    3    3    0    0  0.18675662702E+02 -0.52841372686E+01  0.27345683867E+02  0.33533399924E+02  0.51100000000E-03 0. -1.
        -11    1    3    3    0    0  0.62710262991E+00  0.54828045875E+01  0.70846980299E+01  0.89803869788E+01  0.51100000000E-03 0.  1.
         12    1    3    3    0    0 -0.29625643203E+01 -0.71304060368E+01  0.21498653151E+01  0.80150732046E+01  0.00000000000E+00 0. -1.
</event>
<event>
 7    1  0.2973028E-011  0.5052886E+02  0.7816164E-02  0.1300439E+00
        -11   -1    0    0    0    0  0.00000000000E+00  0.00000000000E+00  0.45593999997E+02  0.45594000000E+02  0.51100000000E-03 0. -1.
         11   -1    0    0    0    0 -0.00000000000E+00 -0.00000000000E+00 -0.45593999997E+02  0.45594000000E+02  0.51100000000E-03 0.  1.
    9900012    2    1    2    0    0 -0.37585928996E+02 -0.14908154976E+02 -0.42674224825E+01  0.50528855420E+02  0.29999986535E+02 0.  0.
         12    1    1    2    0    0  0.37585928996E+02  0.14908154976E+02  0.42674224825E+01  0.40659144580E+02  0.00000000000E+00 0. -1.
         11    1    3    3    0    0 -0.20449399314E+02 -0.17360175757E+01  0.75859739663E+01  0.21880098049E+02  0.51100000000E-03 0. -1.
        -11    1    3    3    0    0 -0.17830769170E+02 -0.13236868558E+02 -0.63439742092E+01  0.23095389744E+02  0.51100000000E-03 0.  1.
         12    1    3    3    0    0  0.69423948745E+00  0.64731157706E-01 -0.55094222396E+01  0.55533676272E+01  0.00000000000E+00 0. -1.
</event>
<event>
 7    1  0.2973028E-011  0.5052886E+02  0.7816164E-02  0.1300439E+00
        -11   -1    0    0    0    0  0.00000000000E+00  0.00000000000E+00  0.45593999997E+02  0.45594000000E+02  0.51100000000E-03 0.  1.
         11   -1    0    0    0    0 -0.00000000000E+00 -0.00000000000E+00 -0.45593999997E+02  0.45594000000E+02  0.51100000000E-03 0. -1.
    9900012    2    1    2    0    0  0.22536614294E+01 -0.34878948137E+02  0.20773670040E+02  0.50528863513E+02  0.30000011133E+02 0.  0.
         12    1    1    2    0    0 -0.22536614294E+01  0.34878948137E+02 -0.20773670040E+02  0.40659136487E+02  0.00000000000E+00 0. -1.
         11    1    3    3    0    0  0.72008802665E+01 -0.95260414649E+00 -0.50675980522E+00  0.72812730366E+01  0.51100000000E-03 0. -1.
        -11    1    3    3    0    0 -0.83516099252E+01 -0.22332552317E+02  0.76678629830E+01  0.25045726269E+02  0.51100000000E-03 0.  1.
        -12    1    3    3    0    0  0.34043910881E+01 -0.11593791673E+02  0.13612566862E+02  0.18201864207E+02  0.00000000000E+00 0.  1.
</event>
<event>
 7    1  0.2973028E-011  0.5052886E+02  0.7816164E-02  0.1300439E+00
        -11   -1    0    0    0    0  0.00000000000E+00  0.00000000000E+00  0.45593999997E+02  0.45594000000E+02  0.51100000000E-03 0.  1.
         11   -1    0    0    0    0 -0.00000000000E+00 -0.00000000000E+00 -0.45593999997E+02  0.45594000000E+02  0.51100000000E-03 0. -1.
    9900012    2    1    2    0    0 -0.22623202802E+02  0.17372440225E+01  0.33739267329E+02  0.50528862260E+02  0.30000007326E+02 0.  0.
         12    1    1    2    0    0  0.22623202802E+02 -0.17372440225E+01 -0.33739267329E+02  0.40659137740E+02  0.00000000000E+00 0. -1.
         11    1    3    3    0    0 -0.12860666476E+02  0.13420850690E+02  0.10608159574E+02  0.21402079928E+02  0.51100000000E-03 0. -1.
        -11    1    3    3    0    0 -0.88044836314E+01 -0.35500754514E+01  0.11764044990E+02  0.15116703428E+02  0.51100000000E-03 0.  1.
         12    1    3    3    0    0 -0.95805269444E+00 -0.81335312157E+01  0.11367062765E+02  0.14010078904E+02  0.00000000000E+00 0. -1.
</event>
<event>
 7    1  0.2973028E-011  0.5052888E+02  0.7816164E-02  0.1300439E+00
        -11   -1    0    0    0    0  0.00000000000E+00  0.00000000000E+00  0.45593999997E+02  0.45594000000E+02  0.51100000000E-03 0.  1.
         11   -1    0    0    0    0 -0.00000000000E+00 -0.00000000000E+00 -0.45593999997E+02  0.45594000000E+02  0.51100000000E-03 0. -1.
    9900012    2    1    2    0    0 -0.10180061820E+02  0.22014691181E+02  0.32632555352E+02  0.50528881032E+02  0.30000064385E+02 0.  0.
         12    1    1    2    0    0  0.10180061820E+02 -0.22014691181E+02 -0.32632555352E+02  0.40659118968E+02  0.00000000000E+00 0. -1.
         11    1    3    3    0    0  0.15463345001E+01  0.14723362683E+01  0.19811673749E+02  0.19926398106E+02  0.51100000000E-03 0. -1.
        -11    1    3    3    0    0 -0.11469567496E+02  0.17928390054E+02  0.15891624503E+02  0.26561661809E+02  0.51100000000E-03 0.  1.
         12    1    3    3    0    0 -0.25682882388E+00  0.26139648594E+01 -0.30707429010E+01  0.40408211164E+01  0.00000000000E+00 0. -1.
</event>
<event>
 7    1  0.2973028E-011  0.5052892E+02  0.7816164E-02  0.1300439E+00
        -11   -1    0    0    0    0  0.00000000000E+00  0.00000000000E+00  0.45593999997E+02  0.45594000000E+02  0.51100000000E-03 0.  1.
         11   -1    0    0    0    0 -0.00000000000E+00 -0.00000000000E+00 -0.45593999997E+02  0.45594000000E+02  0.51100000000E-03 0. -1.
    9900012    2    1    2    0    0  0.19566468777E+01 -0.39052064630E+01  0.40423772060E+02  0.50528924112E+02  0.30000195330E+02 0.  0.
         12    1    1    2    0    0 -0.19566468777E+01  0.39052064630E+01 -0.40423772060E+02  0.40659075888E+02  0.00000000000E+00 0. -1.
         11    1    3    3    0    0 -0.58582385002E+01 -0.34270166350E+01  0.58394354447E+01  0.89533461854E+01  0.51100000000E-03 0. -1.
        -11    1    3    3    0    0  0.11659284249E+02 -0.64142302881E+01  0.12031412588E+02  0.17939792321E+02  0.51100000000E-03 0.  1.
        -12    1    3    3    0    0 -0.38443988713E+01  0.59360404601E+01  0.22552924027E+02  0.23635785606E+02  0.00000000000E+00 0.  1.
</event>
<event>
 7    1  0.2973028E-011  0.5052885E+02  0.7816164E-02  0.1300439E+00
        -11   -1    0    0    0    0  0.00000000000E+00  0.00000000000E+00  0.45593999997E+02  0.45594000000E+02  0.51100000000E-03 0.  1.
         11   -1    0    0    0    0 -0.00000000000E+00 -0.00000000000E+00 -0.45593999997E+02  0.45594000000E+02  0.51100000000E-03 0. -1.
    9900012    2    1    2    0    0  0.33702034466E+02  0.56265980388E+01  0.22038172585E+02  0.50528846252E+02  0.29999958668E+02 0.  0.
         12    1    1    2    0    0 -0.33702034466E+02 -0.56265980388E+01 -0.22038172585E+02  0.40659153748E+02  0.00000000000E+00 0. -1.
         11    1    3    3    0    0  0.98055167175E+01  0.98207488928E+01 -0.22417690887E+01  0.14057766388E+02  0.51100000000E-03 0. -1.
        -11    1    3    3    0    0  0.82744276928E+01  0.40015412224E+01  0.11316705654E+02  0.14578968171E+02  0.51100000000E-03 0.  1.
         12    1    3    3    0    0  0.15622090055E+02 -0.81956920764E+01  0.12963236019E+02  0.21892111693E+02  0.00000000000E+00 0. -1.
</event>
<event>
 7    1  0.2973028E-011  0.5052886E+02  0.7816164E-02  0.1300439E+00
        -11   -1    0    0    0    0  0.00000000000E+00  0.00000000000E+00  0.45593999997E+02  0.45594000000E+02  0.51100000000E-03 0.  1.
         11   -1    0    0    0    0 -0.00000000000E+00 -0.00000000000E+00 -0.45593999997E+02  0.45594000000E+02  0.51100000000E-03 0. -1.
    9900012    2    1    2    0    0 -0.39571654222E+02 -0.90692945293E+01 -0.22355747848E+01  0.50528859383E+02  0.29999998581E+02 0.  0.
         12    1    1    2    0    0  0.39571654222E+02  0.90692945293E+01  0.22355747848E+01  0.40659140617E+02  0.00000000000E+00 0. -1.
         11    1    3    3    0    0 -0.27902505671E+02 -0.27691900625E+01  0.63335008849E+01  0.28745981807E+02  0.51100000000E-03 0.  1.
        -11    1    3    3    0    0 -0.34675740594E+00  0.41375931906E+01  0.15867158776E-01  0.41521283864E+01  0.51100000000E-03 0. -1.
         12    1    3    3    0    0 -0.11322391145E+02 -0.10437697657E+02 -0.85849428285E+01  0.17630749190E+02  0.00000000000E+00 0. -1.
</event>
<event>
 7    1  0.2973028E-011  0.5052887E+02  0.7816164E-02  0.1300439E+00
        -11   -1    0    0    0    0  0.00000000000E+00  0.00000000000E+00  0.45593999997E+02  0.45594000000E+02  0.51100000000E-03 0. -1.
         11   -1    0    0    0    0 -0.00000000000E+00 -0.00000000000E+00 -0.45593999997E+02  0.45594000000E+02  0.51100000000E-03 0.  1.
    9900012    2    1    2    0    0  0.44334678590E+01 -0.24194446175E+02 -0.32374961065E+02  0.50528868591E+02  0.30000026568E+02 0.  0.
         12    1    1    2    0    0 -0.44334678590E+01  0.24194446175E+02  0.32374961065E+02  0.40659131409E+02  0.00000000000E+00 0. -1.
         11    1    3    3    0    0  0.31140796330E+01  0.32742661558E+01  0.20435980183E+01  0.49592947020E+01  0.51100000000E-03 0. -1.
        -11    1    3    3    0    0  0.11950659515E+01 -0.44451330900E+01 -0.14202899225E+02  0.14930162005E+02  0.51100000000E-03 0.  1.
         12    1    3    3    0    0  0.12432227453E+00 -0.23023579241E+02 -0.20215659858E+02  0.30639411884E+02  0.00000000000E+00 0. -1.
</event>
<event>
 7    1  0.2973028E-011  0.5052885E+02  0.7816164E-02  0.1300439E+00
        -11   -1    0    0    0    0  0.00000000000E+00  0.00000000000E+00  0.45593999997E+02  0.45594000000E+02  0.51100000000E-03 0.  1.
         11   -1    0    0    0    0 -0.00000000000E+00 -0.00000000000E+00 -0.45593999997E+02  0.45594000000E+02  0.51100000000E-03 0. -1.
    9900012    2    1    2    0    0 -0.22491976201E+02 -0.23855204944E+02  0.24045925325E+02  0.50528851939E+02  0.29999975953E+02 0.  0.
         12    1    1    2    0    0  0.22491976201E+02  0.23855204944E+02 -0.24045925325E+02  0.40659148061E+02  0.00000000000E+00 0. -1.
         11    1    3    3    0    0 -0.12027570662E+02  0.32669183240E+01  0.14573596273E+01  0.12548271144E+02  0.51100000000E-03 0. -1.
        -11    1    3    3    0    0 -0.10451898349E+02 -0.23007980613E+02  0.22545728836E+02  0.33866196125E+02  0.51100000000E-03 0.  1.
        -12    1    3    3    0    0 -0.12507190100E-01 -0.41141426549E+01  0.42836862480E-01  0.41143846699E+01  0.00000000000E+00 0.  1.
</event>
<event>
 7    1  0.2973028E-011  0.5052886E+02  0.7816164E-02  0.1300439E+00
        -11   -1    0    0    0    0  0.00000000000E+00  0.00000000000E+00  0.45593999997E+02  0.45594000000E+02  0.51100000000E-03 0.  1.
         11   -1    0    0    0    0 -0.00000000000E+00 -0.00000000000E+00 -0.45593999997E+02  0.45594000000E+02  0.51100000000E-03 0. -1.
    9900012    2    1    2    0    0  0.81041235813E+01  0.24269253131E+01  0.39769316578E+02  0.50528864168E+02  0.30000013126E+02 0.  0.
         12    1    1    2    0    0 -0.81041235813E+01 -0.24269253131E+01 -0.39769316578E+02  0.40659135832E+02  0.00000000000E+00 0. -1.
         11    1    3    3    0    0  0.73871871297E+01 -0.44976839402E+01  0.17433522638E+02  0.19460919977E+02  0.51100000000E-03 0.  1.
        -11    1    3    3    0    0  0.33221740826E+01  0.11489804184E+02  0.50187380415E+01  0.12970742947E+02  0.51100000000E-03 0. -1.
        -12    1    3    3    0    0 -0.26052376310E+01 -0.45651949306E+01  0.17317055899E+02  0.18097201244E+02  0.00000000000E+00 0.  1.
</event>
<event>
 7    1  0.2973028E-011  0.5052886E+02  0.7816164E-02  0.1300439E+00
        -11   -1    0    0    0    0  0.00000000000E+00  0.00000000000E+00  0.45593999997E+02  0.45594000000E+02  0.51100000000E-03 0.  1.
         11   -1    0    0    0    0 -0.00000000000E+00 -0.00000000000E+00 -0.45593999997E+02  0.45594000000E+02  0.51100000000E-03 0. -1.
    9900012    2    1    2    0    0 -0.29284753252E+02 -0.26294541403E+02  0.10206159177E+02  0.50528863687E+02  0.30000011663E+02 0.  0.
         12    1    1    2    0    0  0.29284753252E+02  0.26294541403E+02 -0.10206159177E+02  0.40659136313E+02  0.00000000000E+00 0. -1.
         11    1    3    3    0    0 -0.19265391315E+02 -0.19185459010E+02  0.43657073589E+01  0.27537184696E+02  0.51100000000E-03 0. -1.
        -11    1    3    3    0    0  0.52227297384E+01 -0.41779884570E+01  0.22900592278E+01  0.70694317308E+01  0.51100000000E-03 0.  1.
        -12    1    3    3    0    0 -0.15242091675E+02 -0.29310939353E+01  0.35503925899E+01  0.15922247261E+02  0.00000000000E+00 0.  1.
</event>
<event>
 7    1  0.2973028E-011  0.5052886E+02  0.7816164E-02  0.1300439E+00
        -11   -1    0    0    0    0  0.00000000000E+00  0.00000000000E+00  0.45593999997E+02  0.45594000000E+02  0.51100000000E-03 0.  1.
         11   -1    0    0    0    0 -0.00000000000E+00 -0.00000000000E+00 -0.45593999997E+02  0.45594000000E+02  0.51100000000E-03 0. -1.
    9900012    2    1    2    0    0  0.94725477804E+01 -0.34101851256E+02  0.20012495527E+02  0.50528863293E+02  0.30000010467E+02 0.  0.
         12    1    1    2    0    0 -0.94725477804E+01  0.34101851256E+02 -0.20012495527E+02  0.40659136707E+02  0.00000000000E+00 0. -1.
         11    1    3    3    0    0  0.14342466043E+02 -0.12765991512E+02  0.19983457992E+02  0.27713091943E+02  0.51100000000E-03 0. -1.
        -11    1    3    3    0    0  0.18813606748E+00 -0.10458574366E+02  0.20266310878E+01  0.10654783281E+02  0.51100000000E-03 0.  1.
         12    1    3    3    0    0 -0.50580543306E+01 -0.10877285378E+02 -0.19975935530E+01  0.12160988069E+02  0.00000000000E+00 0. -1.
</event>
<event>
 7    1  0.2973028E-011  0.5052886E+02  0.7816164E-02  0.1300439E+00
        -11   -1    0    0    0    0  0.00000000000E+00  0.00000000000E+00  0.45593999997E+02  0.45594000000E+02  0.51100000000E-03 0. -1.
         11   -1    0    0    0    0 -0.00000000000E+00 -0.00000000000E+00 -0.45593999997E+02  0.45594000000E+02  0.51100000000E-03 0.  1.
    9900012    2    1    2    0    0 -0.31054717668E+02  0.24681493761E+02 -0.89215505021E+01  0.50528859735E+02  0.29999999650E+02 0.  0.
         12    1    1    2    0    0  0.31054717668E+02 -0.24681493761E+02  0.89215505021E+01  0.40659140265E+02  0.00000000000E+00 0. -1.
         11    1    3    3    0    0  0.17991963886E+01  0.90563826368E+00 -0.28880531327E+01  0.35210991846E+01  0.51100000000E-03 0. -1.
        -11    1    3    3    0    0 -0.16598651601E+02  0.19913779595E+02  0.57604742530E+01  0.26556673674E+02  0.51100000000E-03 0.  1.
        -12    1    3    3    0    0 -0.16255262456E+02  0.38620759017E+01 -0.11793971622E+02  0.20451086876E+02  0.00000000000E+00 0.  1.
</event>
<event>
 7    1  0.2973028E-011  0.5052885E+02  0.7816164E-02  0.1300439E+00
        -11   -1    0    0    0    0  0.00000000000E+00  0.00000000000E+00  0.45593999997E+02  0.45594000000E+02  0.51100000000E-03 0.  1.
         11   -1    0    0    0    0 -0.00000000000E+00 -0.00000000000E+00 -0.45593999997E+02  0.45594000000E+02  0.51100000000E-03 0. -1.
    9900012    2    1    2    0    0  0.37675137591E+02 -0.10913739698E+02  0.10707054199E+02  0.50528847079E+02  0.29999961180E+02 0.  0.
         12    1    1    2    0    0 -0.37675137591E+02  0.10913739698E+02 -0.10707054199E+02  0.40659152921E+02  0.00000000000E+00 0. -1.
         11    1    3    3    0    0  0.76232689581E+01  0.60149978605E+01 -0.65844224825E+01  0.11732393130E+02  0.51100000000E-03 0. -1.
        -11    1    3    3    0    0  0.19803487969E+02 -0.13238671967E+02  0.11308209781E+02  0.26368848664E+02  0.51100000000E-03 0.  1.
        -12    1    3    3    0    0  0.10248380664E+02 -0.36900655916E+01  0.59832669006E+01  0.12427605285E+02  0.00000000000E+00 0.  1.
</event>
<event>
 7    1  0.2973028E-011  0.5052887E+02  0.7816164E-02  0.1300439E+00
        -11   -1    0    0    0    0  0.00000000000E+00  0.00000000000E+00  0.45593999997E+02  0.45594000000E+02  0.51100000000E-03 0.  1.
         11   -1    0    0    0    0 -0.00000000000E+00 -0.00000000000E+00 -0.45593999997E+02  0.45594000000E+02  0.51100000000E-03 0. -1.
    9900012    2    1    2    0    0  0.36907416827E+01 -0.36166023672E+01  0.40329440622E+02  0.50528866122E+02  0.30000019063E+02 0.  0.
         12    1    1    2    0    0 -0.36907416827E+01  0.36166023672E+01 -0.40329440622E+02  0.40659133878E+02  0.00000000000E+00 0. -1.
         11    1    3    3    0    0  0.83707237487E+00 -0.11351631527E+00 -0.39481533030E+01  0.40375104804E+01  0.51100000000E-03 0. -1.
        -11    1    3    3    0    0  0.24897545831E+01  0.31939565241E+01  0.33861054660E+02  0.34102364421E+02  0.51100000000E-03 0.  1.
        -12    1    3    3    0    0  0.36391472474E+00 -0.66970425761E+01  0.10416539265E+02  0.12388991220E+02  0.00000000000E+00 0.  1.
</event>
<event>
 7    1  0.2973028E-011  0.5052886E+02  0.7816164E-02  0.1300439E+00
        -11   -1    0    0    0    0  0.00000000000E+00  0.00000000000E+00  0.45593999997E+02  0.45594000000E+02  0.51100000000E-03 0.  1.
         11   -1    0    0    0    0 -0.00000000000E+00 -0.00000000000E+00 -0.45593999997E+02  0.45594000000E+02  0.51100000000E-03 0. -1.
    9900012    2    1    2    0    0  0.35758245548E+01  0.12509901058E+02  0.38521181315E+02  0.50528861352E+02  0.30000004566E+02 0.  0.
         12    1    1    2    0    0 -0.35758245548E+01 -0.12509901058E+02 -0.38521181315E+02  0.40659138648E+02  0.00000000000E+00 0. -1.
         11    1    3    3    0    0 -0.34234653551E+01 -0.54246761241E+01  0.23058652680E+01  0.68164683659E+01  0.51100000000E-03 0. -1.
        -11    1    3    3    0    0  0.11722358632E+02  0.13700892702E+02  0.28492884658E+02  0.33719024736E+02  0.51100000000E-03 0.  1.
        -12    1    3    3    0    0 -0.47230687225E+01  0.42336844799E+01  0.77224313884E+01  0.99933682501E+01  0.00000000000E+00 0.  1.
</event>
<event>
 7    1  0.2973028E-011  0.5052887E+02  0.7816164E-02  0.1300439E+00
        -11   -1    0    0    0    0  0.00000000000E+00  0.00000000000E+00  0.45593999997E+02  0.45594000000E+02  0.51100000000E-03 0. -1.
         11   -1    0    0    0    0 -0.00000000000E+00 -0.00000000000E+00 -0.45593999997E+02  0.45594000000E+02  0.51100000000E-03 0.  1.
    9900012    2    1    2    0    0  0.52906640264E+01  0.23698299800E+02 -0.32612334275E+02  0.50528869585E+02  0.30000029591E+02 0.  0.
         12    1    1    2    0    0 -0.52906640264E+01 -0.23698299800E+02  0.32612334275E+02  0.40659130415E+02  0.00000000000E+00 0. -1.
         11    1    3    3    0    0 -0.24837590765E+01  0.76450365971E+01 -0.12409615154E+01  0.81336110962E+01  0.51100000000E-03 0. -1.
        -11    1    3    3    0    0  0.16319856600E+01 -0.20072233103E+01 -0.20041866912E+02  0.20208135792E+02  0.51100000000E-03 0.  1.
        -12    1    3    3    0    0  0.61424374430E+01  0.18060486513E+02 -0.11329505848E+02  0.22187122697E+02  0.00000000000E+00 0.  1.
</event>
<event>
 7    1  0.2973028E-011  0.5052887E+02  0.7816164E-02  0.1300439E+00
        -11   -1    0    0    0    0  0.00000000000E+00  0.00000000000E+00  0.45593999997E+02  0.45594000000E+02  0.51100000000E-03 0.  1.
         11   -1    0    0    0    0 -0.00000000000E+00 -0.00000000000E+00 -0.45593999997E+02  0.45594000000E+02  0.51100000000E-03 0. -1.
    9900012    2    1    2    0    0 -0.33610395718E+02 -0.18957514970E+02  0.12810871452E+02  0.50528874315E+02  0.30000043967E+02 0.  0.
         12    1    1    2    0    0  0.33610395718E+02  0.18957514970E+02 -0.12810871452E+02  0.40659125685E+02  0.00000000000E+00 0. -1.
         11    1    3    3    0    0 -0.53544819765E+01  0.49954552735E+01 -0.53132302026E+01  0.90474010673E+01  0.51100000000E-03 0. -1.
        -11    1    3    3    0    0 -0.13871752284E+02 -0.12628584585E+02  0.67915290583E+01  0.19950727487E+02  0.51100000000E-03 0.  1.
         12    1    3    3    0    0 -0.14384161457E+02 -0.11324385658E+02  0.11332572596E+02  0.21530745760E+02  0.00000000000E+00 0. -1.
</event>
<event>
 7    1  0.2973028E-011  0.5052886E+02  0.7816164E-02  0.1300439E+00
        -11   -1    0    0    0    0  0.00000000000E+00  0.00000000000E+00  0.45593999997E+02  0.45594000000E+02  0.51100000000E-03 0.  1.
         11   -1    0    0    0    0 -0.00000000000E+00 -0.00000000000E+00 -0.45593999997E+02  0.45594000000E+02  0.51100000000E-03 0. -1.
    9900012    2    1    2    0    0  0.17025777998E+02 -0.34555157851E+02  0.13008826573E+02  0.50528860568E+02  0.30000002184E+02 0.  0.
         12    1    1    2    0    0 -0.17025777998E+02  0.34555157851E+02 -0.13008826573E+02  0.40659139432E+02  0.00000000000E+00 0. -1.
         11    1    3    3    0    0  0.16912833974E+01 -0.12096947779E+02  0.80846495929E+01  0.14647803398E+02  0.51100000000E-03 0. -1.
        -11    1    3    3    0    0  0.13483962551E+02 -0.57594208640E+00  0.67329166573E+00  0.13513041008E+02  0.51100000000E-03 0.  1.
        -12    1    3    3    0    0  0.18505320490E+01 -0.21882267985E+02  0.42508853145E+01  0.22368016161E+02  0.00000000000E+00 0.  1.
</event>
<event>
 7    1  0.2973028E-011  0.5052886E+02  0.7816164E-02  0.1300439E+00
        -11   -1    0    0    0    0  0.00000000000E+00  0.00000000000E+00  0.45593999997E+02  0.45594000000E+02  0.51100000000E-03 0.  1.
         11   -1    0    0    0    0 -0.00000000000E+00 -0.00000000000E+00 -0.45593999997E+02  0.45594000000E+02  0.51100000000E-03 0. -1.
    9900012    2    1    2    0    0 -0.38109016601E+02  0.14119557854E+02 -0.12273692075E+01  0.50528862091E+02  0.30000006813E+02 0.  0.
         12    1    1    2    0    0  0.38109016601E+02 -0.14119557854E+02  0.12273692075E+01  0.40659137909E+02  0.00000000000E+00 0. -1.
         11    1    3    3    0    0 -0.36028595965E+02  0.63458677278E+01  0.15262732433E+01  0.36615014334E+02  0.51100000000E-03 0. -1.
        -11    1    3    3    0    0  0.34998187056E+01 -0.44797605391E+00 -0.17152383884E+01  0.39231946813E+01  0.51100000000E-03 0.  1.
         12    1    3    3    0    0 -0.55802393420E+01  0.82216661798E+01 -0.10384040624E+01  0.99906530759E+01  0.00000000000E+00 0. -1.
</event>
<event>
 7    1  0.2973028E-011  0.5052886E+02  0.7816164E-02  0.1300439E+00
        -11   -1    0    0    0    0  0.00000000000E+00  0.00000000000E+00  0.45593999997E+02  0.45594000000E+02  0.51100000000E-03 0.  1.
         11   -1    0    0    0    0 -0.00000000000E+00 -0.00000000000E+00 -0.45593999997E+02  0.45594000000E+02  0.51100000000E-03 0. -1.
    9900012    2    1    2    0    0 -0.14532839572E+02  0.27664251757E+02  0.26012526810E+02  0.50528858318E+02  0.29999995343E+02 0.  0.
         12    1    1    2    0    0  0.14532839572E+02 -0.27664251757E+02 -0.26012526810E+02  0.40659141682E+02  0.00000000000E+00 0. -1.
         11    1    3    3    0    0  0.38095895579E+01 -0.22368483409E+01  0.20763762762E+01  0.48813729423E+01  0.51100000000E-03 0. -1.
        -11    1    3    3    0    0 -0.69851608364E+01  0.24768502901E+02  0.19951675098E+02  0.32562870686E+02  0.51100000000E-03 0.  1.
        -12    1    3    3    0    0 -0.11357268293E+02  0.51325971967E+01  0.39844754358E+01  0.13084614689E+02  0.00000000000E+00 0.  1.
</event>
<event>
 7    1  0.2973028E-011  0.5052884E+02  0.7816164E-02  0.1300439E+00
        -11   -1    0    0    0    0  0.00000000000E+00  0.00000000000E+00  0.45593999997E+02  0.45594000000E+02  0.51100000000E-03 0. -1.
         11   -1    0    0    0    0 -0.00000000000E+00 -0.00000000000E+00 -0.45593999997E+02  0.45594000000E+02  0.51100000000E-03 0.  1.
    9900012    2    1    2    0    0 -0.31910044674E+01  0.36736133608E+00 -0.40532079790E+02  0.50528844132E+02  0.29999952222E+02 0.  0.
         12    1    1    2    0    0  0.31910044674E+01 -0.36736133608E+00  0.40532079790E+02  0.40659155868E+02  0.00000000000E+00 0. -1.
         11    1    3    3    0    0 -0.92063128644E+01 -0.11939855521E+02 -0.17072709466E+02  0.22777044479E+02  0.51100000000E-03 0. -1.
        -11    1    3    3    0    0  0.14256542843E+01  0.84239300012E+01 -0.11095993450E+02  0.14004147875E+02  0.51100000000E-03 0.  1.
         12    1    3    3    0    0  0.45896541127E+01  0.38832868559E+01 -0.12363376874E+02  0.13747651778E+02  0.00000000000E+00 0. -1.
</event>
<event>
 7    1  0.2973028E-011  0.5052883E+02  0.7816164E-02  0.1300439E+00
        -11   -1    0    0    0    0  0.00000000000E+00  0.00000000000E+00  0.45593999997E+02  0.45594000000E+02  0.51100000000E-03 0.  1.
         11   -1    0    0    0    0 -0.00000000000E+00 -0.00000000000E+00 -0.45593999997E+02  0.45594000000E+02  0.51100000000E-03 0. -1.
    9900012    2    1    2    0    0 -0.40536665471E+01 -0.23113629384E+02  0.33203854925E+02  0.50528830583E+02  0.29999911041E+02 0.  0.
         12    1    1    2    0    0  0.40536665471E+01  0.23113629384E+02 -0.33203854925E+02  0.40659169417E+02  0.00000000000E+00 0. -1.
         11    1    3    3    0    0  0.66341724517E+01 -0.12180194106E+02  0.82782561332E+01  0.16152365073E+02  0.51100000000E-03 0. -1.
        -11    1    3    3    0    0 -0.77702776053E+01 -0.26100904119E+01  0.24172506211E+02  0.25524494957E+02  0.51100000000E-03 0.  1.
         12    1    3    3    0    0 -0.29175613935E+01 -0.83233448657E+01  0.75309258022E+00  0.88519705530E+01  0.00000000000E+00 0. -1.
</event>
<event>
 7    1  0.2973028E-011  0.5052885E+02  0.7816164E-02  0.1300439E+00
        -11   -1    0    0    0    0  0.00000000000E+00  0.00000000000E+00  0.45593999997E+02  0.45594000000E+02  0.51100000000E-03 0.  1.
         11   -1    0    0    0    0 -0.00000000000E+00 -0.00000000000E+00 -0.45593999997E+02  0.45594000000E+02  0.51100000000E-03 0. -1.
    9900012    2    1    2    0    0 -0.16789077068E+02 -0.36948434505E+02 -0.24712048654E+01  0.50528846361E+02  0.29999958999E+02 0.  0.
         12    1    1    2    0    0  0.16789077068E+02  0.36948434505E+02  0.24712048654E+01  0.40659153639E+02  0.00000000000E+00 0. -1.
         11    1    3    3    0    0 -0.73274191296E+01 -0.16678635817E+01 -0.19917130301E+01  0.77743013244E+01  0.51100000000E-03 0. -1.
        -11    1    3    3    0    0 -0.48095953917E+01 -0.37172714796E+02  0.10729839439E+01  0.37497922982E+02  0.51100000000E-03 0.  1.
        -12    1    3    3    0    0 -0.46520625471E+01  0.18921438732E+01 -0.15524757792E+01  0.52566220546E+01  0.00000000000E+00 0.  1.
</event>
<event>
 7    1  0.2973028E-011  0.5052887E+02  0.7816164E-02  0.1300439E+00
        -11   -1    0    0    0    0  0.00000000000E+00  0.00000000000E+00  0.45593999997E+02  0.45594000000E+02  0.51100000000E-03 0. -1.
         11   -1    0    0    0    0 -0.00000000000E+00 -0.00000000000E+00 -0.45593999997E+02  0.45594000000E+02  0.51100000000E-03 0.  1.
    9900012    2    1    2    0    0  0.28376697547E+02  0.25235823580E+02 -0.14528640139E+02  0.50528866466E+02  0.30000020111E+02 0.  0.
         12    1    1    2    0    0 -0.28376697547E+02 -0.25235823580E+02  0.14528640139E+02  0.40659133534E+02  0.00000000000E+00 0. -1.
         11    1    3    3    0    0  0.18679681986E+01  0.20838779681E+02 -0.29134495730E+01  0.21124209629E+02  0.51100000000E-03 0. -1.
        -11    1    3    3    0    0  0.63342774330E+01  0.11819429845E+00 -0.19480364681E+01  0.66281133690E+01  0.51100000000E-03 0.  1.
         12    1    3    3    0    0  0.20174451915E+02  0.42788496000E+01 -0.96671540983E+01  0.22776543468E+02  0.00000000000E+00 0. -1.
</event>
<event>
 7    1  0.2973028E-011  0.5052886E+02  0.7816164E-02  0.1300439E+00
        -11   -1    0    0    0    0  0.00000000000E+00  0.00000000000E+00  0.45593999997E+02  0.45594000000E+02  0.51100000000E-03 0.  1.
         11   -1    0    0    0    0 -0.00000000000E+00 -0.00000000000E+00 -0.45593999997E+02  0.45594000000E+02  0.51100000000E-03 0. -1.
    9900012    2    1    2    0    0  0.34596245290E+02  0.63180212787E+01  0.20404605157E+02  0.50528862126E+02  0.30000006919E+02 0.  0.
         12    1    1    2    0    0 -0.34596245290E+02 -0.63180212787E+01 -0.20404605157E+02  0.40659137874E+02  0.00000000000E+00 0. -1.
         11    1    3    3    0    0  0.22051942739E+02  0.66205260700E+01 -0.22843728206E+01  0.23137370279E+02  0.51100000000E-03 0. -1.
        -11    1    3    3    0    0  0.59450808280E+01 -0.37220642503E+01  0.15671468978E+02  0.17169527907E+02  0.51100000000E-03 0.  1.
        -12    1    3    3    0    0  0.65992217231E+01  0.34195594590E+01  0.70175089991E+01  0.10221963940E+02  0.00000000000E+00 0.  1.
</event>
<event>
 7    1  0.2973028E-011  0.5052886E+02  0.7816164E-02  0.1300439E+00
        -11   -1    0    0    0    0  0.00000000000E+00  0.00000000000E+00  0.45593999997E+02  0.45594000000E+02  0.51100000000E-03 0.  1.
         11   -1    0    0    0    0 -0.00000000000E+00 -0.00000000000E+00 -0.45593999997E+02  0.45594000000E+02  0.51100000000E-03 0. -1.
    9900012    2    1    2    0    0 -0.37838445907E+02  0.12549995654E+02 -0.79947076793E+01  0.50528859202E+02  0.29999998031E+02 0.  0.
         12    1    1    2    0    0  0.37838445907E+02 -0.12549995654E+02  0.79947076793E+01  0.40659140798E+02  0.00000000000E+00 0. -1.
         11    1    3    3    0    0  0.98658147511E-01 -0.38305185584E+01 -0.44218836713E+01  0.58511247910E+01  0.51100000000E-03 0. -1.
        -11    1    3    3    0    0 -0.24454090761E+02  0.64518710322E+01  0.51314531878E+01  0.25806220313E+02  0.51100000000E-03 0.  1.
         12    1    3    3    0    0 -0.13483013293E+02  0.99286431798E+01 -0.87042771958E+01  0.18871514098E+02  0.00000000000E+00 0. -1.
</event>
<event>
 7    1  0.2973028E-011  0.5052886E+02  0.7816164E-02  0.1300439E+00
        -11   -1    0    0    0    0  0.00000000000E+00  0.00000000000E+00  0.45593999997E+02  0.45594000000E+02  0.51100000000E-03 0.  1.
         11   -1    0    0    0    0 -0.00000000000E+00 -0.00000000000E+00 -0.45593999997E+02  0.45594000000E+02  0.51100000000E-03 0. -1.
    9900012    2    1    2    0    0 -0.79000819591E+01  0.24715339376E+02 -0.31303449852E+02  0.50528864889E+02  0.30000015315E+02 0.  0.
         12    1    1    2    0    0  0.79000819591E+01 -0.24715339376E+02  0.31303449852E+02  0.40659135111E+02  0.00000000000E+00 0. -1.
         11    1    3    3    0    0  0.10551173349E+01  0.76310584402E+01 -0.21723874344E+02  0.23049360996E+02  0.51100000000E-03 0. -1.
        -11    1    3    3    0    0 -0.48470651975E+01  0.77375976365E+01  0.44268207163E+01  0.10146979853E+02  0.51100000000E-03 0.  1.
        -12    1    3    3    0    0 -0.41081340965E+01  0.93466832989E+01 -0.14006396223E+02  0.17332524040E+02  0.00000000000E+00 0.  1.
</event>
<event>
 7    1  0.2973028E-011  0.5052887E+02  0.7816164E-02  0.1300439E+00
        -11   -1    0    0    0    0  0.00000000000E+00  0.00000000000E+00  0.45593999997E+02  0.45594000000E+02  0.51100000000E-03 0.  1.
         11   -1    0    0    0    0 -0.00000000000E+00 -0.00000000000E+00 -0.45593999997E+02  0.45594000000E+02  0.51100000000E-03 0. -1.
    9900012    2    1    2    0    0 -0.88561832375E+01  0.19674436239E+02  0.34462295845E+02  0.50528865015E+02  0.30000015699E+02 0.  0.
         12    1    1    2    0    0  0.88561832375E+01 -0.19674436239E+02 -0.34462295845E+02  0.40659134985E+02  0.00000000000E+00 0. -1.
         11    1    3    3    0    0 -0.12817386059E+02  0.91412786796E+01  0.86876248806E+01  0.17981189827E+02  0.51100000000E-03 0. -1.
        -11    1    3    3    0    0  0.99067263169E+01  0.41281594623E+01  0.10907677503E+02  0.15302364381E+02  0.51100000000E-03 0.  1.
        -12    1    3    3    0    0 -0.59455234955E+01  0.64049980967E+01  0.14866993461E+02  0.17245310807E+02  0.00000000000E+00 0.  1.
</event>
<event>
 7    1  0.2973028E-011  0.5052885E+02  0.7816164E-02  0.1300439E+00
        -11   -1    0    0    0    0  0.00000000000E+00  0.00000000000E+00  0.45593999997E+02  0.45594000000E+02  0.51100000000E-03 0. -1.
         11   -1    0    0    0    0 -0.00000000000E+00 -0.00000000000E+00 -0.45593999997E+02  0.45594000000E+02  0.51100000000E-03 0.  1.
    9900012    2    1    2    0    0 -0.22393878785E+01  0.40127822336E+02 -0.61570371852E+01  0.50528854775E+02  0.29999984575E+02 0.  0.
         12    1    1    2    0    0  0.22393878785E+01 -0.40127822336E+02  0.61570371852E+01  0.40659145225E+02  0.00000000000E+00 0. -1.
         11    1    3    3    0    0  0.92941315680E+01  0.99422183865E+01  0.46486539898E+01  0.14381883473E+02  0.51100000000E-03 0. -1.
        -11    1    3    3    0    0 -0.12839069703E+01  0.60601626141E+01 -0.74991244986E+01  0.97268112208E+01  0.51100000000E-03 0.  1.
         12    1    3    3    0    0 -0.10249612476E+02  0.24125441335E+02 -0.33065666764E+01  0.26420160082E+02  0.00000000000E+00 0. -1.
</event>
<event>
 7    1  0.2973028E-011  0.5052885E+02  0.7816164E-02  0.1300439E+00
        -11   -1    0    0    0    0  0.00000000000E+00  0.00000000000E+00  0.45593999997E+02  0.45594000000E+02  0.51100000000E-03 0.  1.
         11   -1    0    0    0    0 -0.00000000000E+00 -0.00000000000E+00 -0.45593999997E+02  0.45594000000E+02  0.51100000000E-03 0. -1.
    9900012    2    1    2    0    0  0.13780177136E+02  0.74863072982E+01  0.37513046912E+02  0.50528846449E+02  0.29999959267E+02 0.  0.
         12    1    1    2    0    0 -0.13780177136E+02 -0.74863072982E+01 -0.37513046912E+02  0.40659153551E+02  0.00000000000E+00 0. -1.
         11    1    3    3    0    0 -0.81774518994E+01  0.24385409390E+01  0.56272657287E+01  0.10221708337E+02  0.51100000000E-03 0. -1.
        -11    1    3    3    0    0  0.35383846578E+01 -0.26564414061E+01  0.37076295055E+01  0.57726392354E+01  0.51100000000E-03 0.  1.
         12    1    3    3    0    0  0.18419244377E+02  0.77042077653E+01  0.28178151678E+02  0.34534498877E+02  0.00000000000E+00 0. -1.
</event>
<event>
 7    1  0.2973028E-011  0.5052884E+02  0.7816164E-02  0.1300439E+00
        -11   -1    0    0    0    0  0.00000000000E+00  0.00000000000E+00  0.45593999997E+02  0.45594000000E+02  0.51100000000E-03 0.  1.
         11   -1    0    0    0    0 -0.00000000000E+00 -0.00000000000E+00 -0.45593999997E+02  0.45594000000E+02  0.51100000000E-03 0. -1.
    9900012    2    1    2    0    0  0.39103944998E+02 -0.79304189507E+01 -0.78203039431E+01  0.50528840972E+02  0.29999942618E+02 0.  0.
         12    1    1    2    0    0 -0.39103944998E+02  0.79304189507E+01  0.78203039431E+01  0.40659159028E+02  0.00000000000E+00 0. -1.
         11    1    3    3    0    0  0.82313901980E+00  0.27729329021E+01  0.65527765209E+01  0.71627924108E+01  0.51100000000E-03 0. -1.
        -11    1    3    3    0    0  0.36206850778E+02 -0.12177958587E+02 -0.14392144566E+02  0.40821226636E+02  0.51100000000E-03 0.  1.
         12    1    3    3    0    0  0.20739551999E+01  0.14746067340E+01  0.19064101798E-01  0.25448219252E+01  0.00000000000E+00 0. -1.
</event>
<event>
 7    1  0.2973028E-011  0.5052888E+02  0.7816164E-02  0.1300439E+00
        -11   -1    0    0    0    0  0.00000000000E+00  0.00000000000E+00  0.45593999997E+02  0.45594000000E+02  0.51100000000E-03 0. -1.
         11   -1    0    0    0    0 -0.00000000000E+00 -0.00000000000E+00 -0.45593999997E+02  0.45594000000E+02  0.51100000000E-03 0.  1.
    9900012    2    1    2    0    0 -0.14313848790E+02  0.36857182216E+02 -0.94776732466E+01  0.50528875092E+02  0.30000046330E+02 0.  0.
         12    1    1    2    0    0  0.14313848790E+02 -0.36857182216E+02  0.94776732466E+01  0.40659124908E+02  0.00000000000E+00 0. -1.
         11    1    3    3    0    0  0.14650400669E+01  0.24214850138E+02 -0.62531897502E+01  0.25052099551E+02  0.51100000000E-03 0. -1.
        -11    1    3    3    0    0 -0.18131727854E+02  0.12851762993E+02 -0.46667135813E+01  0.22709151964E+02  0.51100000000E-03 0.  1.
         12    1    3    3    0    0  0.23528389963E+01 -0.20943091462E+00  0.14422300850E+01  0.27676235778E+01  0.00000000000E+00 0. -1.
</event>
<event>
 7    1  0.2973028E-011  0.5052887E+02  0.7816164E-02  0.1300439E+00
        -11   -1    0    0    0    0  0.00000000000E+00  0.00000000000E+00  0.45593999997E+02  0.45594000000E+02  0.51100000000E-03 0.  1.
         11   -1    0    0    0    0 -0.00000000000E+00 -0.00000000000E+00 -0.45593999997E+02  0.45594000000E+02  0.51100000000E-03 0. -1.
    9900012    2    1    2    0    0  0.12364384021E+02 -0.16422699584E+02  0.35079651912E+02  0.50528867789E+02  0.30000024132E+02 0.  0.
         12    1    1    2    0    0 -0.12364384021E+02  0.16422699584E+02 -0.35079651912E+02  0.40659132211E+02  0.00000000000E+00 0. -1.
         11    1    3    3    0    0 -0.12840917653E+01  0.70203940357E+01  0.75528091510E+01  0.10391330541E+02  0.51100000000E-03 0. -1.
        -11    1    3    3    0    0  0.66281419617E+01 -0.13952897497E+02  0.81946747061E+01  0.17486231962E+02  0.51100000000E-03 0.  1.
         12    1    3    3    0    0  0.70203338241E+01 -0.94901961223E+01  0.19332168055E+02  0.22651305286E+02  0.00000000000E+00 0. -1.
</event>
<event>
 7    1  0.2973028E-011  0.5052882E+02  0.7816164E-02  0.1300439E+00
        -11   -1    0    0    0    0  0.00000000000E+00  0.00000000000E+00  0.45593999997E+02  0.45594000000E+02  0.51100000000E-03 0. -1.
         11   -1    0    0    0    0 -0.00000000000E+00 -0.00000000000E+00 -0.45593999997E+02  0.45594000000E+02  0.51100000000E-03 0.  1.
    9900012    2    1    2    0    0 -0.27175626991E+02  0.27303655016E+02  0.13006331147E+02  0.50528819862E+02  0.29999878451E+02 0.  0.
         12    1    1    2    0    0  0.27175626991E+02 -0.27303655016E+02 -0.13006331147E+02  0.40659180138E+02  0.00000000000E+00 0. -1.
         11    1    3    3    0    0  0.38395770271E+01  0.21726712016E+00  0.69104458793E+01  0.79084650382E+01  0.51100000000E-03 0. -1.
        -11    1    3    3    0    0 -0.27927955736E+02  0.20699137925E+02  0.30371967767E+01  0.34894836107E+02  0.51100000000E-03 0.  1.
         12    1    3    3    0    0 -0.30872482826E+01  0.63872499708E+01  0.30586884915E+01  0.77255187163E+01  0.00000000000E+00 0. -1.
</event>
<event>
 7    1  0.2973028E-011  0.5052882E+02  0.7816164E-02  0.1300439E+00
        -11   -1    0    0    0    0  0.00000000000E+00  0.00000000000E+00  0.45593999997E+02  0.45594000000E+02  0.51100000000E-03 0. -1.
         11   -1    0    0    0    0 -0.00000000000E+00 -0.00000000000E+00 -0.45593999997E+02  0.45594000000E+02  0.51100000000E-03 0.  1.
    9900012    2    1    2    0    0  0.32440454858E+02 -0.18707026331E+02 -0.15837701365E+02  0.50528822315E+02  0.29999885907E+02 0.  0.
         12    1    1    2    0    0 -0.32440454858E+02  0.18707026331E+02  0.15837701365E+02  0.40659177685E+02  0.00000000000E+00 0. -1.
         11    1    3    3    0    0  0.14000485078E+02 -0.14324741498E+02 -0.81721520435E+01  0.21633212214E+02  0.51100000000E-03 0. -1.
        -11    1    3    3    0    0 -0.56015231500E+00  0.34053937686E+01 -0.76159057414E+01  0.83613693770E+01  0.51100000000E-03 0.  1.
        -12    1    3    3    0    0  0.19000122095E+02 -0.77876786014E+01 -0.49643579807E-01  0.20534240724E+02  0.00000000000E+00 0.  1.
</event>
<event>
 7    1  0.2973028E-011  0.5052886E+02  0.7816164E-02  0.1300439E+00
        -11   -1    0    0    0    0  0.00000000000E+00  0.00000000000E+00  0.45593999997E+02  0.45594000000E+02  0.51100000000E-03 0.  1.
         11   -1    0    0    0    0 -0.00000000000E+00 -0.00000000000E+00 -0.45593999997E+02  0.45594000000E+02  0.51100000000E-03 0. -1.
    9900012    2    1    2    0    0 -0.88933932752E+00 -0.20287661850E+02  0.35224787763E+02  0.50528858092E+02  0.29999994655E+02 0.  0.
         12    1    1    2    0    0  0.88933932752E+00  0.20287661850E+02 -0.35224787763E+02  0.40659141908E+02  0.00000000000E+00 0. -1.
         11    1    3    3    0    0 -0.17926056043E+01 -0.52507991201E+01 -0.38641609801E+01  0.67613657343E+01  0.51100000000E-03 0. -1.
        -11    1    3    3    0    0 -0.54368878524E+01 -0.10598143865E+02  0.25004401736E+02  0.27696579380E+02  0.51100000000E-03 0.  1.
        -12    1    3    3    0    0  0.63401541292E+01 -0.44387188653E+01  0.14084547007E+02  0.16070912978E+02  0.00000000000E+00 0.  1.
</event>
<event>
 7    1  0.2973028E-011  0.5052885E+02  0.7816164E-02  0.1300439E+00
        -11   -1    0    0    0    0  0.00000000000E+00  0.00000000000E+00  0.45593999997E+02  0.45594000000E+02  0.51100000000E-03 0. -1.
         11   -1    0    0    0    0 -0.00000000000E+00 -0.00000000000E+00 -0.45593999997E+02  0.45594000000E+02  0.51100000000E-03 0.  1.
    9900012    2    1    2    0    0  0.21822595718E+02 -0.34299026909E+02 -0.71933878667E+00  0.50528851226E+02  0.29999973785E+02 0.  0.
         12    1    1    2    0    0 -0.21822595718E+02  0.34299026909E+02  0.71933878667E+00  0.40659148774E+02  0.00000000000E+00 0. -1.
         11    1    3    3    0    0  0.45502912330E+01 -0.41601365576E+01 -0.12112713419E+02  0.13591530934E+02  0.51100000000E-03 0. -1.
        -11    1    3    3    0    0  0.71072420127E+01 -0.15096568636E+02  0.30725189231E+01  0.16966427037E+02  0.51100000000E-03 0.  1.
         12    1    3    3    0    0  0.10165062472E+02 -0.15042321716E+02  0.83208557096E+01  0.19970893255E+02  0.00000000000E+00 0. -1.
</event>
<event>
 7    1  0.2973028E-011  0.5052886E+02  0.7816164E-02  0.1300439E+00
        -11   -1    0    0    0    0  0.00000000000E+00  0.00000000000E+00  0.45593999997E+02  0.45594000000E+02  0.51100000000E-03 0.  1.
         11   -1    0    0    0    0 -0.00000000000E+00 -0.00000000000E+00 -0.45593999997E+02  0.45594000000E+02  0.51100000000E-03 0. -1.
    9900012    2    1    2    0    0 -0.39497732878E+02  0.94712471781E+01  0.18411593449E+01  0.50528864577E+02  0.30000014369E+02 0.  0.
         12    1    1    2    0    0  0.39497732878E+02 -0.94712471781E+01 -0.18411593449E+01  0.40659135423E+02  0.00000000000E+00 0. -1.
         11    1    3    3    0    0 -0.12147782848E+02  0.34467080099E+01  0.13038514556E+02  0.18150792994E+02  0.51100000000E-03 0. -1.
        -11    1    3    3    0    0 -0.24511516579E+02  0.83196044728E+01 -0.12166139183E+02  0.28601489584E+02  0.51100000000E-03 0.  1.
        -12    1    3    3    0    0 -0.28384334514E+01 -0.22950653047E+01  0.96878397133E+00  0.37765819988E+01  0.00000000000E+00 0.  1.
</event>
<event>
 7    1  0.2973028E-011  0.5052887E+02  0.7816164E-02  0.1300439E+00
        -11   -1    0    0    0    0  0.00000000000E+00  0.00000000000E+00  0.45593999997E+02  0.45594000000E+02  0.51100000000E-03 0.  1.
         11   -1    0    0    0    0 -0.00000000000E+00 -0.00000000000E+00 -0.45593999997E+02  0.45594000000E+02  0.51100000000E-03 0. -1.
    9900012    2    1    2    0    0 -0.30592328815E+02  0.11168742585E+01  0.26758682714E+02  0.50528867065E+02  0.30000021930E+02 0.  0.
         12    1    1    2    0    0  0.30592328815E+02 -0.11168742585E+01 -0.26758682714E+02  0.40659132935E+02  0.00000000000E+00 0. -1.
         11    1    3    3    0    0 -0.13375981407E+02 -0.80967082511E+01  0.85728156754E+01  0.17831621686E+02  0.51100000000E-03 0. -1.
        -11    1    3    3    0    0 -0.15563601381E+02  0.12884765443E+02  0.79761360893E+01  0.21722375921E+02  0.51100000000E-03 0.  1.
         12    1    3    3    0    0 -0.16527460275E+01 -0.36711829329E+01  0.10209730949E+02  0.10974869458E+02  0.00000000000E+00 0. -1.
</event>
<event>
 7    1  0.2973028E-011  0.5052887E+02  0.7816164E-02  0.1300439E+00
        -11   -1    0    0    0    0  0.00000000000E+00  0.00000000000E+00  0.45593999997E+02  0.45594000000E+02  0.51100000000E-03 0.  1.
         11   -1    0    0    0    0 -0.00000000000E+00 -0.00000000000E+00 -0.45593999997E+02  0.45594000000E+02  0.51100000000E-03 0. -1.
    9900012    2    1    2    0    0  0.31043249135E+02  0.13489450327E+02  0.22528120572E+02  0.50528870601E+02  0.30000032679E+02 0.  0.
         12    1    1    2    0    0 -0.31043249135E+02 -0.13489450327E+02 -0.22528120572E+02  0.40659129399E+02  0.00000000000E+00 0. -1.
         11    1    3    3    0    0  0.69137051004E+01 -0.18063136018E+00  0.19000380970E+02  0.20219951116E+02  0.51100000000E-03 0. -1.
        -11    1    3    3    0    0  0.18170875472E+02  0.55098933377E+01 -0.14538471144E+01  0.19043458502E+02  0.51100000000E-03 0.  1.
         12    1    3    3    0    0  0.59586685625E+01  0.81601883494E+01  0.49815867170E+01  0.11265460983E+02  0.00000000000E+00 0. -1.
</event>
<event>
 7    1  0.2973028E-011  0.5052882E+02  0.7816164E-02  0.1300439E+00
        -11   -1    0    0    0    0  0.00000000000E+00  0.00000000000E+00  0.45593999997E+02  0.45594000000E+02  0.51100000000E-03 0.  1.
         11   -1    0    0    0    0 -0.00000000000E+00 -0.00000000000E+00 -0.45593999997E+02  0.45594000000E+02  0.51100000000E-03 0. -1.
    9900012    2    1    2    0    0 -0.31035823346E+02 -0.10028174563E+02  0.24277197386E+02  0.50528819871E+02  0.29999878481E+02 0.  0.
         12    1    1    2    0    0  0.31035823346E+02  0.10028174563E+02 -0.24277197386E+02  0.40659180129E+02  0.00000000000E+00 0. -1.
         11    1    3    3    0    0 -0.32323918989E+01 -0.14069355504E+02  0.24768452326E+01  0.14646838712E+02  0.51100000000E-03 0. -1.
        -11    1    3    3    0    0 -0.14417535517E+02 -0.67353954463E-01  0.97131103434E+01  0.17384314187E+02  0.51100000000E-03 0.  1.
         12    1    3    3    0    0 -0.13385895930E+02  0.41085348962E+01  0.12087241810E+02  0.18497666972E+02  0.00000000000E+00 0. -1.
</event>
<event>
 7    1  0.2973028E-011  0.5052887E+02  0.7816164E-02  0.1300439E+00
        -11   -1    0    0    0    0  0.00000000000E+00  0.00000000000E+00  0.45593999997E+02  0.45594000000E+02  0.51100000000E-03 0.  1.
         11   -1    0    0    0    0 -0.00000000000E+00 -0.00000000000E+00 -0.45593999997E+02  0.45594000000E+02  0.51100000000E-03 0. -1.
    9900012    2    1    2    0    0  0.18280703153E+02  0.12577095839E+02  0.34070474513E+02  0.50528872107E+02  0.30000037255E+02 0.  0.
         12    1    1    2    0    0 -0.18280703153E+02 -0.12577095839E+02 -0.34070474513E+02  0.40659127893E+02  0.00000000000E+00 0. -1.
         11    1    3    3    0    0  0.35428208146E+01  0.22099558291E+01 -0.16724006696E+01  0.44980449477E+01  0.51100000000E-03 0. -1.
        -11    1    3    3    0    0  0.17325313420E+02  0.57165140130E+00  0.29239264524E+02  0.33991585144E+02  0.51100000000E-03 0.  1.
        -12    1    3    3    0    0 -0.25874310818E+01  0.97954886091E+01  0.65036106581E+01  0.12039242015E+02  0.00000000000E+00 0.  1.
</event>
<event>
 7    1  0.2973028E-011  0.5052886E+02  0.7816164E-02  0.1300439E+00
        -11   -1    0    0    0    0  0.00000000000E+00  0.00000000000E+00  0.45593999997E+02  0.45594000000E+02  0.51100000000E-03 0.  1.
         11   -1    0    0    0    0 -0.00000000000E+00 -0.00000000000E+00 -0.45593999997E+02  0.45594000000E+02  0.51100000000E-03 0. -1.
    9900012    2    1    2    0    0 -0.45744184294E+01 -0.96806543644E+01  0.39224042198E+02  0.50528857618E+02  0.29999993215E+02 0.  0.
         12    1    1    2    0    0  0.45744184294E+01  0.96806543644E+01 -0.39224042198E+02  0.40659142382E+02  0.00000000000E+00 0. -1.
         11    1    3    3    0    0  0.76508932451E+01 -0.24149333837E+01  0.54768470322E+00  0.80416434571E+01  0.51100000000E-03 0. -1.
        -11    1    3    3    0    0 -0.14058393374E+02 -0.57155238057E+01  0.32872701614E+02  0.36206631275E+02  0.51100000000E-03 0.  1.
        -12    1    3    3    0    0  0.18330816996E+01 -0.15501971750E+01  0.58036558807E+01  0.62805828854E+01  0.00000000000E+00 0.  1.
</event>
<event>
 7    1  0.2973028E-011  0.5052886E+02  0.7816164E-02  0.1300439E+00
        -11   -1    0    0    0    0  0.00000000000E+00  0.00000000000E+00  0.45593999997E+02  0.45594000000E+02  0.51100000000E-03 0.  1.
         11   -1    0    0    0    0 -0.00000000000E+00 -0.00000000000E+00 -0.45593999997E+02  0.45594000000E+02  0.51100000000E-03 0. -1.
    9900012    2    1    2    0    0 -0.27843205525E+02  0.26039743301E+02  0.14136946825E+02  0.50528860921E+02  0.30000003257E+02 0.  0.
         12    1    1    2    0    0  0.27843205525E+02 -0.26039743301E+02 -0.14136946825E+02  0.40659139079E+02  0.00000000000E+00 0. -1.
         11    1    3    3    0    0 -0.90798203357E+01  0.10416743954E+02 -0.23728894182E+01  0.14020780877E+02  0.51100000000E-03 0. -1.
        -11    1    3    3    0    0 -0.23141137323E+02  0.95987960212E+01  0.13656435689E+02  0.28533267560E+02  0.51100000000E-03 0.  1.
        -12    1    3    3    0    0  0.43777521337E+01  0.60242033250E+01  0.28534005543E+01  0.79748124848E+01  0.00000000000E+00 0.  1.
</event>
<event>
 7    1  0.2973028E-011  0.5052886E+02  0.7816164E-02  0.1300439E+00
        -11   -1    0    0    0    0  0.00000000000E+00  0.00000000000E+00  0.45593999997E+02  0.45594000000E+02  0.51100000000E-03 0. -1.
         11   -1    0    0    0    0 -0.00000000000E+00 -0.00000000000E+00 -0.45593999997E+02  0.45594000000E+02  0.51100000000E-03 0.  1.
    9900012    2    1    2    0    0  0.18005445901E+02 -0.34389045153E+02  0.12098054045E+02  0.50528863016E+02  0.30000009623E+02 0.  0.
         12    1    1    2    0    0 -0.18005445901E+02  0.34389045153E+02 -0.12098054045E+02  0.40659136984E+02  0.00000000000E+00 0. -1.
         11    1    3    3    0    0  0.23130116457E+02 -0.16452208657E+02  0.83838544431E+01  0.29596730775E+02  0.51100000000E-03 0. -1.
        -11    1    3    3    0    0  0.56179224006E+00 -0.12739720954E+02  0.35077138492E+01  0.13225738437E+02  0.51100000000E-03 0.  1.
         12    1    3    3    0    0 -0.56864627958E+01 -0.51971155417E+01  0.20648575264E+00  0.77063938031E+01  0.00000000000E+00 0. -1.
</event>
<event>
 7    1  0.2973028E-011  0.5052888E+02  0.7816164E-02  0.1300439E+00
        -11   -1    0    0    0    0  0.00000000000E+00  0.00000000000E+00  0.45593999997E+02  0.45594000000E+02  0.51100000000E-03 0.  1.
         11   -1    0    0    0    0 -0.00000000000E+00 -0.00000000000E+00 -0.45593999997E+02  0.45594000000E+02  0.51100000000E-03 0. -1.
    9900012    2    1    2    0    0 -0.62792665872E+01 -0.48514977174E+01  0.39877286182E+02  0.50528878363E+02  0.30000056274E+02 0.  0.
         12    1    1    2    0    0  0.62792665872E+01  0.48514977174E+01 -0.39877286182E+02  0.40659121637E+02  0.00000000000E+00 0. -1.
         11    1    3    3    0    0  0.40088053193E+01  0.14649894390E+01 -0.22409369454E+01  0.48206340661E+01  0.51100000000E-03 0. -1.
        -11    1    3    3    0    0 -0.23932285146E+01 -0.89964950442E+01  0.19669184979E+02  0.21761004200E+02  0.51100000000E-03 0.  1.
         12    1    3    3    0    0 -0.78948433920E+01  0.26800078878E+01  0.22449038149E+02  0.23947240097E+02  0.00000000000E+00 0. -1.
</event>
<event>
 7    1  0.2973028E-011  0.5052886E+02  0.7816164E-02  0.1300439E+00
        -11   -1    0    0    0    0  0.00000000000E+00  0.00000000000E+00  0.45593999997E+02  0.45594000000E+02  0.51100000000E-03 0. -1.
         11   -1    0    0    0    0 -0.00000000000E+00 -0.00000000000E+00 -0.45593999997E+02  0.45594000000E+02  0.51100000000E-03 0.  1.
    9900012    2    1    2    0    0  0.82139914778E+01 -0.38752353147E+02 -0.91625051217E+01  0.50528855511E+02  0.29999986813E+02 0.  0.
         12    1    1    2    0    0 -0.82139914778E+01  0.38752353147E+02  0.91625051217E+01  0.40659144489E+02  0.00000000000E+00 0. -1.
         11    1    3    3    0    0 -0.91812348066E+01 -0.17707483488E+02 -0.77367158840E+01  0.21394083691E+02  0.51100000000E-03 0. -1.
        -11    1    3    3    0    0  0.10110830576E+02 -0.18702995678E+02 -0.25025394034E+01  0.21407794048E+02  0.51100000000E-03 0.  1.
         12    1    3    3    0    0  0.72843957084E+01 -0.23418739815E+01  0.10767501658E+01  0.77269777728E+01  0.00000000000E+00 0. -1.
</event>
<event>
 7    1  0.2973028E-011  0.5052886E+02  0.7816164E-02  0.1300439E+00
        -11   -1    0    0    0    0  0.00000000000E+00  0.00000000000E+00  0.45593999997E+02  0.45594000000E+02  0.51100000000E-03 0.  1.
         11   -1    0    0    0    0 -0.00000000000E+00 -0.00000000000E+00 -0.45593999997E+02  0.45594000000E+02  0.51100000000E-03 0. -1.
    9900012    2    1    2    0    0  0.62707725202E+01 -0.39863827845E+02 -0.49717339945E+01  0.50528862068E+02  0.30000006742E+02 0.  0.
         12    1    1    2    0    0 -0.62707725202E+01  0.39863827845E+02  0.49717339945E+01  0.40659137932E+02  0.00000000000E+00 0. -1.
         11    1    3    3    0    0 -0.48331331950E+01 -0.86156520246E+01 -0.12756883686E+02  0.16134643409E+02  0.51100000000E-03 0. -1.
        -11    1    3    3    0    0  0.10745396157E+02 -0.24754693332E+02  0.66345410196E+01  0.27789845543E+02  0.51100000000E-03 0.  1.
         12    1    3    3    0    0  0.35850955866E+00 -0.64934824890E+01  0.11506086722E+01  0.66043731160E+01  0.00000000000E+00 0. -1.
</event>
<event>
 7    1  0.2973028E-011  0.5052886E+02  0.7816164E-02  0.1300439E+00
        -11   -1    0    0    0    0  0.00000000000E+00  0.00000000000E+00  0.45593999997E+02  0.45594000000E+02  0.51100000000E-03 0.  1.
         11   -1    0    0    0    0 -0.00000000000E+00 -0.00000000000E+00 -0.45593999997E+02  0.45594000000E+02  0.51100000000E-03 0. -1.
    9900012    2    1    2    0    0  0.63406156721E+01  0.21158848359E+02  0.34135984188E+02  0.50528859731E+02  0.29999999637E+02 0.  0.
         12    1    1    2    0    0 -0.63406156721E+01 -0.21158848359E+02 -0.34135984188E+02  0.40659140269E+02  0.00000000000E+00 0. -1.
         11    1    3    3    0    0  0.27275549302E+01  0.21326082675E+02  0.26125356013E+02  0.33834532437E+02  0.51100000000E-03 0. -1.
        -11    1    3    3    0    0 -0.13720657927E+01 -0.28621874084E+01  0.10151749363E+02  0.10636385509E+02  0.51100000000E-03 0.  1.
         12    1    3    3    0    0  0.49851265347E+01  0.26949530924E+01 -0.21411211875E+01  0.60579417855E+01  0.00000000000E+00 0. -1.
</event>
<event>
 7    1  0.2973028E-011  0.5052886E+02  0.7816164E-02  0.1300439E+00
        -11   -1    0    0    0    0  0.00000000000E+00  0.00000000000E+00  0.45593999997E+02  0.45594000000E+02  0.51100000000E-03 0. -1.
         11   -1    0    0    0    0 -0.00000000000E+00 -0.00000000000E+00 -0.45593999997E+02  0.45594000000E+02  0.51100000000E-03 0.  1.
    9900012    2    1    2    0    0  0.27603918573E+02 -0.24165153142E+02  0.17528122821E+02  0.50528855437E+02  0.29999986586E+02 0.  0.
         12    1    1    2    0    0 -0.27603918573E+02  0.24165153142E+02 -0.17528122821E+02  0.40659144563E+02  0.00000000000E+00 0. -1.
         11    1    3    3    0    0  0.20617196262E+02 -0.67321460468E+00  0.10241392795E+02  0.23030591096E+02  0.51100000000E-03 0. -1.
        -11    1    3    3    0    0  0.55081229912E+01 -0.43869524905E+01  0.38663702654E+01  0.80332801726E+01  0.51100000000E-03 0.  1.
         12    1    3    3    0    0  0.14785993204E+01 -0.19104986046E+02  0.34203597608E+01  0.19464984168E+02  0.00000000000E+00 0. -1.
</event>
<event>
 7    1  0.2973028E-011  0.5052885E+02  0.7816164E-02  0.1300439E+00
        -11   -1    0    0    0    0  0.00000000000E+00  0.00000000000E+00  0.45593999997E+02  0.45594000000E+02  0.51100000000E-03 0.  1.
         11   -1    0    0    0    0 -0.00000000000E+00 -0.00000000000E+00 -0.45593999997E+02  0.45594000000E+02  0.51100000000E-03 0. -1.
    9900012    2    1    2    0    0  0.32601872494E+02  0.90008647936E+01  0.22566992015E+02  0.50528846224E+02  0.29999958584E+02 0.  0.
         12    1    1    2    0    0 -0.32601872494E+02 -0.90008647936E+01 -0.22566992015E+02  0.40659153776E+02  0.00000000000E+00 0. -1.
         11    1    3    3    0    0  0.47389940598E+01  0.97206385581E+01  0.47574440860E+01  0.11814489120E+02  0.51100000000E-03 0. -1.
        -11    1    3    3    0    0  0.23808151731E+02  0.76728673560E+01  0.13795036926E+02  0.28565784189E+02  0.51100000000E-03 0.  1.
        -12    1    3    3    0    0  0.40547267030E+01 -0.83926411206E+01  0.40145110032E+01  0.10148572915E+02  0.00000000000E+00 0.  1.
</event>
<event>
 7    1  0.2973028E-011  0.5052886E+02  0.7816164E-02  0.1300439E+00
        -11   -1    0    0    0    0  0.00000000000E+00  0.00000000000E+00  0.45593999997E+02  0.45594000000E+02  0.51100000000E-03 0.  1.
         11   -1    0    0    0    0 -0.00000000000E+00 -0.00000000000E+00 -0.45593999997E+02  0.45594000000E+02  0.51100000000E-03 0. -1.
    9900012    2    1    2    0    0  0.14905420254E+02 -0.37801763645E+02 -0.14215112665E+01  0.50528861028E+02  0.30000003582E+02 0.  0.
         12    1    1    2    0    0 -0.14905420254E+02  0.37801763645E+02  0.14215112665E+01  0.40659138972E+02  0.00000000000E+00 0. -1.
         11    1    3    3    0    0 -0.66921779563E+01 -0.20737327300E+02  0.16437725012E+01  0.21852322020E+02  0.51100000000E-03 0. -1.
        -11    1    3    3    0    0  0.37162321850E+01  0.56236175177E-01  0.10632391839E+00  0.37181782094E+01  0.51100000000E-03 0.  1.
         12    1    3    3    0    0  0.17881366025E+02 -0.17120672520E+02 -0.31716076861E+01  0.24958360799E+02  0.00000000000E+00 0. -1.
</event>
<event>
 7    1  0.2973028E-011  0.5052886E+02  0.7816164E-02  0.1300439E+00
        -11   -1    0    0    0    0  0.00000000000E+00  0.00000000000E+00  0.45593999997E+02  0.45594000000E+02  0.51100000000E-03 0.  1.
         11   -1    0    0    0    0 -0.00000000000E+00 -0.00000000000E+00 -0.45593999997E+02  0.45594000000E+02  0.51100000000E-03 0. -1.
    9900012    2    1    2    0    0 -0.22426403127E+02 -0.14251198638E+02  0.30775401818E+02  0.50528861090E+02  0.30000003769E+02 0.  0.
         12    1    1    2    0    0  0.22426403127E+02  0.14251198638E+02 -0.30775401818E+02  0.40659138910E+02  0.00000000000E+00 0. -1.
         11    1    3    3    0    0 -0.20471660199E+02 -0.55431059379E+01  0.16449550603E+02  0.26840316877E+02  0.51100000000E-03 0. -1.
        -11    1    3    3    0    0  0.88750771764E+00 -0.99561624835E+01  0.16914100589E+02  0.19646873551E+02  0.51100000000E-03 0.  1.
        -12    1    3    3    0    0 -0.28422506459E+01  0.12480697834E+01 -0.25882493739E+01  0.40416706619E+01  0.00000000000E+00 0.  1.
</event>
<event>
 7    1  0.2973028E-011  0.5052886E+02  0.7816164E-02  0.1300439E+00
        -11   -1    0    0    0    0  0.00000000000E+00  0.00000000000E+00  0.45593999997E+02  0.45594000000E+02  0.51100000000E-03 0. -1.
         11   -1    0    0    0    0 -0.00000000000E+00 -0.00000000000E+00 -0.45593999997E+02  0.45594000000E+02  0.51100000000E-03 0.  1.
    9900012    2    1    2    0    0  0.33222173674E+02  0.14234751070E+02 -0.18623236113E+02  0.50528857302E+02  0.29999992254E+02 0.  0.
         12    1    1    2    0    0 -0.33222173674E+02 -0.14234751070E+02  0.18623236113E+02  0.40659142698E+02  0.00000000000E+00 0. -1.
         11    1    3    3    0    0 -0.32223875192E+00  0.84015563614E+00 -0.26885494987E+01  0.28351363238E+01  0.51100000000E-03 0. -1.
        -11    1    3    3    0    0  0.26147529319E+02 -0.70556566571E+00 -0.17834072785E+02  0.31658257450E+02  0.51100000000E-03 0.  1.
        -12    1    3    3    0    0  0.73968831066E+01  0.14100161100E+02  0.18993861707E+01  0.16035463528E+02  0.00000000000E+00 0.  1.
</event>
<event>
 7    1  0.2973028E-011  0.5052886E+02  0.7816164E-02  0.1300439E+00
        -11   -1    0    0    0    0  0.00000000000E+00  0.00000000000E+00  0.45593999997E+02  0.45594000000E+02  0.51100000000E-03 0.  1.
         11   -1    0    0    0    0 -0.00000000000E+00 -0.00000000000E+00 -0.45593999997E+02  0.45594000000E+02  0.51100000000E-03 0. -1.
    9900012    2    1    2    0    0  0.27654433362E+02  0.29058698807E+02  0.66325215634E+01  0.50528855847E+02  0.29999987833E+02 0.  0.
         12    1    1    2    0    0 -0.27654433362E+02 -0.29058698807E+02 -0.66325215634E+01  0.40659144153E+02  0.00000000000E+00 0. -1.
         11    1    3    3    0    0  0.12331353691E+02  0.95463520388E+01 -0.95385970264E+01  0.18280589558E+02  0.51100000000E-03 0. -1.
        -11    1    3    3    0    0  0.97847515287E+01  0.19746424938E+02  0.10848102052E+02  0.24563061265E+02  0.51100000000E-03 0.  1.
         12    1    3    3    0    0  0.55383281428E+01 -0.23407816973E+00  0.53230165375E+01  0.76852050243E+01  0.00000000000E+00 0. -1.
</event>
<event>
 7    1  0.2973028E-011  0.5052886E+02  0.7816164E-02  0.1300439E+00
        -11   -1    0    0    0    0  0.00000000000E+00  0.00000000000E+00  0.45593999997E+02  0.45594000000E+02  0.51100000000E-03 0.  1.
         11   -1    0    0    0    0 -0.00000000000E+00 -0.00000000000E+00 -0.45593999997E+02  0.45594000000E+02  0.51100000000E-03 0. -1.
    9900012    2    1    2    0    0  0.25250475383E+02  0.21901381547E+02  0.23149694493E+02  0.50528863562E+02  0.30000011283E+02 0.  0.
         12    1    1    2    0    0 -0.25250475383E+02 -0.21901381547E+02 -0.23149694493E+02  0.40659136438E+02  0.00000000000E+00 0. -1.
         11    1    3    3    0    0  0.17223295129E+02  0.22731592898E+02  0.11679476867E+02  0.30818458607E+02  0.51100000000E-03 0. -1.
        -11    1    3    3    0    0 -0.18290525310E+01 -0.26321212003E+01  0.87640758955E+01  0.93318016340E+01  0.51100000000E-03 0.  1.
        -12    1    3    3    0    0  0.98562327853E+01  0.18019098498E+01  0.27061417310E+01  0.10378603321E+02  0.00000000000E+00 0.  1.
</event>
<event>
 7    1  0.2973028E-011  0.5052886E+02  0.7816164E-02  0.1300439E+00
        -11   -1    0    0    0    0  0.00000000000E+00  0.00000000000E+00  0.45593999997E+02  0.45594000000E+02  0.51100000000E-03 0.  1.
         11   -1    0    0    0    0 -0.00000000000E+00 -0.00000000000E+00 -0.45593999997E+02  0.45594000000E+02  0.51100000000E-03 0. -1.
    9900012    2    1    2    0    0  0.19826087401E+02  0.22922994622E+02  0.27104027489E+02  0.50528859205E+02  0.29999998039E+02 0.  0.
         12    1    1    2    0    0 -0.19826087401E+02 -0.22922994622E+02 -0.27104027489E+02  0.40659140795E+02  0.00000000000E+00 0. -1.
         11    1    3    3    0    0 -0.91957847031E+00  0.11357317300E+01 -0.40809410156E+01  0.43346961784E+01  0.51100000000E-03 0. -1.
        -11    1    3    3    0    0  0.72173739659E+01  0.18874690729E+02  0.19509466582E+02  0.28088498067E+02  0.51100000000E-03 0.  1.
         12    1    3    3    0    0  0.13528291905E+02  0.29125721629E+01  0.11675501923E+02  0.18105664960E+02  0.00000000000E+00 0. -1.
</event>
<event>
 7    1  0.2973028E-011  0.5052887E+02  0.7816164E-02  0.1300439E+00
        -11   -1    0    0    0    0  0.00000000000E+00  0.00000000000E+00  0.45593999997E+02  0.45594000000E+02  0.51100000000E-03 0.  1.
         11   -1    0    0    0    0 -0.00000000000E+00 -0.00000000000E+00 -0.45593999997E+02  0.45594000000E+02  0.51100000000E-03 0. -1.
    9900012    2    1    2    0    0 -0.13909612801E+02  0.15599311636E+02  0.34876191319E+02  0.50528873439E+02  0.30000041306E+02 0.  0.
         12    1    1    2    0    0  0.13909612801E+02 -0.15599311636E+02 -0.34876191319E+02  0.40659126561E+02  0.00000000000E+00 0. -1.
         11    1    3    3    0    0  0.21154744938E+01 -0.40079615196E+01  0.12520781928E+02  0.13315741370E+02  0.51100000000E-03 0. -1.
        -11    1    3    3    0    0 -0.69785279315E+01  0.18449905047E+02  0.10788478478E+02  0.22483107358E+02  0.51100000000E-03 0.  1.
        -12    1    3    3    0    0 -0.90465593636E+01  0.11573681083E+01  0.11566930913E+02  0.14730024712E+02  0.00000000000E+00 0.  1.
</event>
<event>
 7    1  0.2973028E-011  0.5052886E+02  0.7816164E-02  0.1300439E+00
        -11   -1    0    0    0    0  0.00000000000E+00  0.00000000000E+00  0.45593999997E+02  0.45594000000E+02  0.51100000000E-03 0.  1.
         11   -1    0    0    0    0 -0.00000000000E+00 -0.00000000000E+00 -0.45593999997E+02  0.45594000000E+02  0.51100000000E-03 0. -1.
    9900012    2    1    2    0    0 -0.63389415591E+01  0.44957603843E+01  0.39909542220E+02  0.50528860784E+02  0.30000002840E+02 0.  0.
         12    1    1    2    0    0  0.63389415591E+01 -0.44957603843E+01 -0.39909542220E+02  0.40659139216E+02  0.00000000000E+00 0. -1.
         11    1    3    3    0    0  0.43403411502E+00  0.94732653882E+01  0.25583042508E+02  0.27284120051E+02  0.51100000000E-03 0. -1.
        -11    1    3    3    0    0 -0.52395244047E+01 -0.10584234180E+02  0.64530152320E+01  0.13458084374E+02  0.51100000000E-03 0.  1.
        -12    1    3    3    0    0 -0.15334512694E+01  0.56067291759E+01  0.78734844806E+01  0.97866563603E+01  0.00000000000E+00 0.  1.
</event>
<event>
 7    1  0.2973028E-011  0.5052886E+02  0.7816164E-02  0.1300439E+00
        -11   -1    0    0    0    0  0.00000000000E+00  0.00000000000E+00  0.45593999997E+02  0.45594000000E+02  0.51100000000E-03 0.  1.
         11   -1    0    0    0    0 -0.00000000000E+00 -0.00000000000E+00 -0.45593999997E+02  0.45594000000E+02  0.51100000000E-03 0. -1.
    9900012    2    1    2    0    0  0.10411565132E+02 -0.26067884444E+02  0.29414802029E+02  0.50528857531E+02  0.29999992951E+02 0.  0.
         12    1    1    2    0    0 -0.10411565132E+02  0.26067884444E+02 -0.29414802029E+02  0.40659142469E+02  0.00000000000E+00 0. -1.
         11    1    3    3    0    0 -0.28912035133E+01  0.23503761362E+00 -0.23134202450E+01  0.37102848848E+01  0.51100000000E-03 0. -1.
        -11    1    3    3    0    0  0.37353620875E+01 -0.24376037519E+02  0.23185694321E+02  0.33848494153E+02  0.51100000000E-03 0.  1.
        -12    1    3    3    0    0  0.95674065575E+01 -0.19268845388E+01  0.85425279539E+01  0.12970078493E+02  0.00000000000E+00 0.  1.
</event>
<event>
 7    1  0.2973028E-011  0.5052886E+02  0.7816164E-02  0.1300439E+00
        -11   -1    0    0    0    0  0.00000000000E+00  0.00000000000E+00  0.45593999997E+02  0.45594000000E+02  0.51100000000E-03 0. -1.
         11   -1    0    0    0    0 -0.00000000000E+00 -0.00000000000E+00 -0.45593999997E+02  0.45594000000E+02  0.51100000000E-03 0.  1.
    9900012    2    1    2    0    0 -0.24192299225E+01 -0.16665587367E+01 -0.40552871421E+02  0.50528862381E+02  0.30000007692E+02 0.  0.
         12    1    1    2    0    0  0.24192299225E+01  0.16665587367E+01  0.40552871421E+02  0.40659137619E+02  0.00000000000E+00 0. -1.
         11    1    3    3    0    0  0.55470284328E+01  0.22707156593E+01 -0.30463962615E+02  0.31048006256E+02  0.51100000000E-03 0.  1.
        -11    1    3    3    0    0 -0.11998747850E+02 -0.35458953818E+01 -0.85154460478E+01  0.15134600942E+02  0.51100000000E-03 0. -1.
        -12    1    3    3    0    0  0.40324894946E+01 -0.39137901422E+00 -0.15734627589E+01  0.43462551824E+01  0.00000000000E+00 0.  1.
</event>
<event>
 7    1  0.2973028E-011  0.5052886E+02  0.7816164E-02  0.1300439E+00
        -11   -1    0    0    0    0  0.00000000000E+00  0.00000000000E+00  0.45593999997E+02  0.45594000000E+02  0.51100000000E-03 0. -1.
         11   -1    0    0    0    0 -0.00000000000E+00 -0.00000000000E+00 -0.45593999997E+02  0.45594000000E+02  0.51100000000E-03 0.  1.
    9900012    2    1    2    0    0 -0.91393074710E+01 -0.25132356200E+02 -0.30626840144E+02  0.50528860727E+02  0.30000002665E+02 0.  0.
         12    1    1    2    0    0  0.91393074710E+01  0.25132356200E+02  0.30626840144E+02  0.40659139273E+02  0.00000000000E+00 0. -1.
         11    1    3    3    0    0 -0.16947097178E+02 -0.21655224065E+02 -0.24558800081E+02  0.36868516294E+02  0.51100000000E-03 0. -1.
        -11    1    3    3    0    0  0.75273480755E+01 -0.36426453268E+00 -0.71149658650E+01  0.10364188208E+02  0.51100000000E-03 0.  1.
         12    1    3    3    0    0  0.28044163130E+00 -0.31128676023E+01  0.10469258019E+01  0.32961562239E+01  0.00000000000E+00 0. -1.
</event>
<event>
 7    1  0.2973028E-011  0.5052885E+02  0.7816164E-02  0.1300439E+00
        -11   -1    0    0    0    0  0.00000000000E+00  0.00000000000E+00  0.45593999997E+02  0.45594000000E+02  0.51100000000E-03 0.  1.
         11   -1    0    0    0    0 -0.00000000000E+00 -0.00000000000E+00 -0.45593999997E+02  0.45594000000E+02  0.51100000000E-03 0. -1.
    9900012    2    1    2    0    0  0.39300797765E+02 -0.37943931557E+01  0.97064957351E+01  0.50528853626E+02  0.29999981082E+02 0.  0.
         12    1    1    2    0    0 -0.39300797765E+02  0.37943931557E+01 -0.97064957351E+01  0.40659146374E+02  0.00000000000E+00 0. -1.
         11    1    3    3    0    0  0.13561299760E+02 -0.55131587105E+01 -0.82884044907E+01  0.16822646029E+02  0.51100000000E-03 0. -1.
        -11    1    3    3    0    0  0.18923009400E+02  0.24775492850E+01  0.62075458290E+01  0.20068686073E+02  0.51100000000E-03 0.  1.
         12    1    3    3    0    0  0.68164886046E+01 -0.75878373027E+00  0.11787354397E+02  0.13637521524E+02  0.00000000000E+00 0. -1.
</event>
<event>
 7    1  0.2973028E-011  0.5052886E+02  0.7816164E-02  0.1300439E+00
        -11   -1    0    0    0    0  0.00000000000E+00  0.00000000000E+00  0.45593999997E+02  0.45594000000E+02  0.51100000000E-03 0. -1.
         11   -1    0    0    0    0 -0.00000000000E+00 -0.00000000000E+00 -0.45593999997E+02  0.45594000000E+02  0.51100000000E-03 0.  1.
    9900012    2    1    2    0    0  0.80518075779E+01  0.26491214229E+02 -0.29774981992E+02  0.50528860938E+02  0.30000003308E+02 0.  0.
         12    1    1    2    0    0 -0.80518075779E+01 -0.26491214229E+02  0.29774981992E+02  0.40659139062E+02  0.00000000000E+00 0. -1.
         11    1    3    3    0    0  0.16237873062E+01  0.87668817449E+00 -0.17279332735E+00  0.18534090660E+01  0.51100000000E-03 0. -1.
        -11    1    3    3    0    0  0.95069478961E+01  0.24293049101E+02 -0.86897273196E+01  0.27496284369E+02  0.51100000000E-03 0.  1.
        -12    1    3    3    0    0 -0.30789276244E+01  0.13214769538E+01 -0.20912461345E+02  0.21179167504E+02  0.00000000000E+00 0.  1.
</event>
<event>
 7    1  0.2973028E-011  0.5052886E+02  0.7816164E-02  0.1300439E+00
        -11   -1    0    0    0    0  0.00000000000E+00  0.00000000000E+00  0.45593999997E+02  0.45594000000E+02  0.51100000000E-03 0. -1.
         11   -1    0    0    0    0 -0.00000000000E+00 -0.00000000000E+00 -0.45593999997E+02  0.45594000000E+02  0.51100000000E-03 0.  1.
    9900012    2    1    2    0    0  0.27160198539E+02  0.20943835722E+02 -0.21836778803E+02  0.50528861447E+02  0.30000004854E+02 0.  0.
         12    1    1    2    0    0 -0.27160198539E+02 -0.20943835722E+02  0.21836778803E+02  0.40659138553E+02  0.00000000000E+00 0. -1.
         11    1    3    3    0    0  0.39116199396E+00  0.78642236768E+01  0.16213007110E+01  0.80391316696E+01  0.51100000000E-03 0. -1.
        -11    1    3    3    0    0  0.71091207078E+01 -0.46499271990E+01 -0.87910296212E+01  0.12224713586E+02  0.51100000000E-03 0.  1.
         12    1    3    3    0    0  0.19659915837E+02  0.17729539244E+02 -0.14667049893E+02  0.30265016191E+02  0.00000000000E+00 0. -1.
</event>
<event>
 7    1  0.2973028E-011  0.5052885E+02  0.7816164E-02  0.1300439E+00
        -11   -1    0    0    0    0  0.00000000000E+00  0.00000000000E+00  0.45593999997E+02  0.45594000000E+02  0.51100000000E-03 0. -1.
         11   -1    0    0    0    0 -0.00000000000E+00 -0.00000000000E+00 -0.45593999997E+02  0.45594000000E+02  0.51100000000E-03 0.  1.
    9900012    2    1    2    0    0 -0.28018551609E+02  0.29457398428E+02 -0.62345739122E+00  0.50528852744E+02  0.29999978401E+02 0.  0.
         12    1    1    2    0    0  0.28018551609E+02 -0.29457398428E+02  0.62345739122E+00  0.40659147256E+02  0.00000000000E+00 0. -1.
         11    1    3    3    0    0  0.20517999347E+01  0.41542717403E+01  0.46866668933E+01  0.65903492695E+01  0.51100000000E-03 0. -1.
        -11    1    3    3    0    0 -0.20982551317E+02  0.26754021368E+02 -0.66312013117E+01  0.34641275240E+02  0.51100000000E-03 0.  1.
         12    1    3    3    0    0 -0.90878002272E+01 -0.14508946799E+01  0.13210770272E+01  0.92972282350E+01  0.00000000000E+00 0. -1.
</event>
<event>
 7    1  0.2973028E-011  0.5052886E+02  0.7816164E-02  0.1300439E+00
        -11   -1    0    0    0    0  0.00000000000E+00  0.00000000000E+00  0.45593999997E+02  0.45594000000E+02  0.51100000000E-03 0. -1.
         11   -1    0    0    0    0 -0.00000000000E+00 -0.00000000000E+00 -0.45593999997E+02  0.45594000000E+02  0.51100000000E-03 0.  1.
    9900012    2    1    2    0    0  0.21985200088E+01  0.34159510752E+02 -0.21942194024E+02  0.50528861499E+02  0.30000005014E+02 0.  0.
         12    1    1    2    0    0 -0.21985200088E+01 -0.34159510752E+02  0.21942194024E+02  0.40659138501E+02  0.00000000000E+00 0. -1.
         11    1    3    3    0    0 -0.40993286334E+01 -0.28580305090E+00 -0.48508713379E+01  0.63574469424E+01  0.51100000000E-03 0. -1.
        -11    1    3    3    0    0  0.12766745626E+02  0.28516197212E+02 -0.16607115957E+02  0.35383041107E+02  0.51100000000E-03 0.  1.
        -12    1    3    3    0    0 -0.64688969840E+01  0.59291165911E+01 -0.48420672824E+00  0.87883734499E+01  0.00000000000E+00 0.  1.
</event>
<event>
 7    1  0.2973028E-011  0.5052886E+02  0.7816164E-02  0.1300439E+00
        -11   -1    0    0    0    0  0.00000000000E+00  0.00000000000E+00  0.45593999997E+02  0.45594000000E+02  0.51100000000E-03 0. -1.
         11   -1    0    0    0    0 -0.00000000000E+00 -0.00000000000E+00 -0.45593999997E+02  0.45594000000E+02  0.51100000000E-03 0.  1.
    9900012    2    1    2    0    0 -0.36388392141E+02 -0.36212314755E+01 -0.17774633508E+02  0.50528855932E+02  0.29999988091E+02 0.  0.
         12    1    1    2    0    0  0.36388392141E+02  0.36212314755E+01  0.17774633508E+02  0.40659144068E+02  0.00000000000E+00 0. -1.
         11    1    3    3    0    0 -0.95326629961E+01 -0.10023601060E+02 -0.37740615320E+01  0.14338332634E+02  0.51100000000E-03 0. -1.
        -11    1    3    3    0    0 -0.29740146787E+02  0.65995711777E+01 -0.12446321859E+02  0.32908078016E+02  0.51100000000E-03 0.  1.
        -12    1    3    3    0    0  0.28844176422E+01 -0.19720159322E+00 -0.15542501171E+01  0.32824452820E+01  0.00000000000E+00 0.  1.
</event>
<event>
 7    1  0.2973028E-011  0.5052887E+02  0.7816164E-02  0.1300439E+00
        -11   -1    0    0    0    0  0.00000000000E+00  0.00000000000E+00  0.45593999997E+02  0.45594000000E+02  0.51100000000E-03 0.  1.
         11   -1    0    0    0    0 -0.00000000000E+00 -0.00000000000E+00 -0.45593999997E+02  0.45594000000E+02  0.51100000000E-03 0. -1.
    9900012    2    1    2    0    0  0.22267801461E+02  0.28273825572E+02  0.18918267588E+02  0.50528867657E+02  0.30000023729E+02 0.  0.
         12    1    1    2    0    0 -0.22267801461E+02 -0.28273825572E+02 -0.18918267588E+02  0.40659132343E+02  0.00000000000E+00 0. -1.
         11    1    3    3    0    0  0.14840022774E+02  0.14694513195E+02 -0.21083866516E+01  0.20990480902E+02  0.51100000000E-03 0.  1.
        -11    1    3    3    0    0  0.85487364630E+01  0.16850043565E+01  0.10206463628E+02  0.13419837362E+02  0.51100000000E-03 0. -1.
         12    1    3    3    0    0 -0.11209577755E+01  0.11894308021E+02  0.10820190612E+02  0.16118549392E+02  0.00000000000E+00 0. -1.
</event>
<event>
 7    1  0.2973028E-011  0.5052886E+02  0.7816164E-02  0.1300439E+00
        -11   -1    0    0    0    0  0.00000000000E+00  0.00000000000E+00  0.45593999997E+02  0.45594000000E+02  0.51100000000E-03 0. -1.
         11   -1    0    0    0    0 -0.00000000000E+00 -0.00000000000E+00 -0.45593999997E+02  0.45594000000E+02  0.51100000000E-03 0.  1.
    9900012    2    1    2    0    0  0.35245875411E+02 -0.18773484675E+01 -0.20183401047E+02  0.50528857749E+02  0.29999993614E+02 0.  0.
         12    1    1    2    0    0 -0.35245875411E+02  0.18773484675E+01  0.20183401047E+02  0.40659142251E+02  0.00000000000E+00 0. -1.
         11    1    3    3    0    0  0.56490137311E+01 -0.87917176874E+00  0.17090671977E+01  0.59670101459E+01  0.51100000000E-03 0. -1.
        -11    1    3    3    0    0  0.91598628174E+01 -0.64537378773E+01 -0.20501210004E+02  0.23363506400E+02  0.51100000000E-03 0.  1.
        -12    1    3    3    0    0  0.20436998862E+02  0.54555611785E+01 -0.13912582407E+01  0.21198341203E+02  0.00000000000E+00 0.  1.
</event>
<event>
 7    1  0.2973028E-011  0.5052887E+02  0.7816164E-02  0.1300439E+00
        -11   -1    0    0    0    0  0.00000000000E+00  0.00000000000E+00  0.45593999997E+02  0.45594000000E+02  0.51100000000E-03 0. -1.
         11   -1    0    0    0    0 -0.00000000000E+00 -0.00000000000E+00 -0.45593999997E+02  0.45594000000E+02  0.51100000000E-03 0.  1.
    9900012    2    1    2    0    0 -0.14537004682E+02  0.37971543600E+02  0.47570045780E-01  0.50528869520E+02  0.30000029393E+02 0.  0.
         12    1    1    2    0    0  0.14537004682E+02 -0.37971543600E+02 -0.47570045780E-01  0.40659130480E+02  0.00000000000E+00 0. -1.
         11    1    3    3    0    0 -0.34646687617E+01  0.12059942230E+02  0.11755155780E+02  0.17193889144E+02  0.51100000000E-03 0. -1.
        -11    1    3    3    0    0 -0.23492657336E+01  0.70486429266E+01 -0.10034122564E+02  0.12485432811E+02  0.51100000000E-03 0.  1.
        -12    1    3    3    0    0 -0.87230701866E+01  0.18862958443E+02 -0.16734631702E+01  0.20849547566E+02  0.00000000000E+00 0.  1.
</event>
<event>
 7    1  0.2973028E-011  0.5052888E+02  0.7816164E-02  0.1300439E+00
        -11   -1    0    0    0    0  0.00000000000E+00  0.00000000000E+00  0.45593999997E+02  0.45594000000E+02  0.51100000000E-03 0.  1.
         11   -1    0    0    0    0 -0.00000000000E+00 -0.00000000000E+00 -0.45593999997E+02  0.45594000000E+02  0.51100000000E-03 0. -1.
    9900012    2    1    2    0    0  0.24894509403E+02  0.19863109478E+02  0.25276162627E+02  0.50528879083E+02  0.30000058462E+02 0.  0.
         12    1    1    2    0    0 -0.24894509403E+02 -0.19863109478E+02 -0.25276162627E+02  0.40659120917E+02  0.00000000000E+00 0. -1.
         11    1    3    3    0    0 -0.41598427339E+01  0.76258546452E+01  0.65998199082E+01  0.10909425912E+02  0.51100000000E-03 0. -1.
        -11    1    3    3    0    0  0.10553489545E+02 -0.24355908232E+01  0.90705324268E+01  0.14127377782E+02  0.51100000000E-03 0.  1.
         12    1    3    3    0    0  0.18500862592E+02  0.14672845656E+02  0.96058102923E+01  0.25492075390E+02  0.00000000000E+00 0. -1.
</event>
<event>
 7    1  0.2973028E-011  0.5052884E+02  0.7816164E-02  0.1300439E+00
        -11   -1    0    0    0    0  0.00000000000E+00  0.00000000000E+00  0.45593999997E+02  0.45594000000E+02  0.51100000000E-03 0.  1.
         11   -1    0    0    0    0 -0.00000000000E+00 -0.00000000000E+00 -0.45593999997E+02  0.45594000000E+02  0.51100000000E-03 0. -1.
    9900012    2    1    2    0    0  0.24424768207E+02 -0.13900738487E+02  0.29383111400E+02  0.50528842754E+02  0.29999948036E+02 0.  0.
         12    1    1    2    0    0 -0.24424768207E+02  0.13900738487E+02 -0.29383111400E+02  0.40659157246E+02  0.00000000000E+00 0. -1.
         11    1    3    3    0    0  0.23901023088E+02 -0.58267430258E+01  0.29431691081E+02  0.38359278918E+02  0.51100000000E-03 0.  1.
        -11    1    3    3    0    0 -0.18602760958E+01 -0.92861914297E+01 -0.35645881364E+00  0.94773963497E+01  0.51100000000E-03 0. -1.
         12    1    3    3    0    0  0.23840212143E+01  0.12121959690E+01  0.30787913236E+00  0.26921674869E+01  0.00000000000E+00 0. -1.
</event>
<event>
 7    1  0.2973028E-011  0.5052885E+02  0.7816164E-02  0.1300439E+00
        -11   -1    0    0    0    0  0.00000000000E+00  0.00000000000E+00  0.45593999997E+02  0.45594000000E+02  0.51100000000E-03 0. -1.
         11   -1    0    0    0    0 -0.00000000000E+00 -0.00000000000E+00 -0.45593999997E+02  0.45594000000E+02  0.51100000000E-03 0.  1.
    9900012    2    1    2    0    0  0.42729965657E+01  0.39903585072E+02 -0.65277577830E+01  0.50528853146E+02  0.29999979622E+02 0.  0.
         12    1    1    2    0    0 -0.42729965657E+01 -0.39903585072E+02  0.65277577830E+01  0.40659146854E+02  0.00000000000E+00 0. -1.
         11    1    3    3    0    0 -0.50014463640E+01  0.35312949985E+01  0.27984035566E+01  0.67316842487E+01  0.51100000000E-03 0. -1.
        -11    1    3    3    0    0  0.63877611200E+01  0.10656486796E+02 -0.12621790374E+02  0.17710838362E+02  0.51100000000E-03 0.  1.
         12    1    3    3    0    0  0.28866818097E+01  0.25715803277E+02  0.32956290347E+01  0.26086330536E+02  0.00000000000E+00 0. -1.
</event>
<event>
 7    1  0.2973028E-011  0.5052886E+02  0.7816164E-02  0.1300439E+00
        -11   -1    0    0    0    0  0.00000000000E+00  0.00000000000E+00  0.45593999997E+02  0.45594000000E+02  0.51100000000E-03 0. -1.
         11   -1    0    0    0    0 -0.00000000000E+00 -0.00000000000E+00 -0.45593999997E+02  0.45594000000E+02  0.51100000000E-03 0.  1.
    9900012    2    1    2    0    0  0.39945565283E+02  0.42051144466E+00 -0.75723835324E+01  0.50528855788E+02  0.29999987654E+02 0.  0.
         12    1    1    2    0    0 -0.39945565283E+02 -0.42051144466E+00  0.75723835324E+01  0.40659144212E+02  0.00000000000E+00 0. -1.
         11    1    3    3    0    0 -0.47413732173E+00 -0.19729323700E+01 -0.52817736690E+00  0.20967212329E+01  0.51100000000E-03 0. -1.
        -11    1    3    3    0    0  0.15498322790E+02  0.13549671290E+02 -0.38244932060E+01  0.20938441917E+02  0.51100000000E-03 0.  1.
        -12    1    3    3    0    0  0.24921379815E+02 -0.11156227475E+02 -0.32197129595E+01  0.27493692638E+02  0.00000000000E+00 0.  1.
</event>
<event>
 7    1  0.2973028E-011  0.5052886E+02  0.7816164E-02  0.1300439E+00
        -11   -1    0    0    0    0  0.00000000000E+00  0.00000000000E+00  0.45593999997E+02  0.45594000000E+02  0.51100000000E-03 0. -1.
         11   -1    0    0    0    0 -0.00000000000E+00 -0.00000000000E+00 -0.45593999997E+02  0.45594000000E+02  0.51100000000E-03 0.  1.
    9900012    2    1    2    0    0  0.40300489529E+02  0.23822300178E+01 -0.48333062715E+01  0.50528864180E+02  0.30000013161E+02 0.  0.
         12    1    1    2    0    0 -0.40300489529E+02 -0.23822300178E+01  0.48333062715E+01  0.40659135820E+02  0.00000000000E+00 0. -1.
         11    1    3    3    0    0  0.82784442711E+00  0.25450216706E+01 -0.34107186001E+01  0.43353734937E+01  0.51100000000E-03 0. -1.
        -11    1    3    3    0    0  0.19568617318E+02 -0.51816868616E+01  0.10132806223E+02  0.22637456233E+02  0.51100000000E-03 0.  1.
        -12    1    3    3    0    0  0.19904027783E+02  0.50188952087E+01 -0.11555393894E+02  0.23556034453E+02  0.00000000000E+00 0.  1.
</event>
<event>
 7    1  0.2973028E-011  0.5052885E+02  0.7816164E-02  0.1300439E+00
        -11   -1    0    0    0    0  0.00000000000E+00  0.00000000000E+00  0.45593999997E+02  0.45594000000E+02  0.51100000000E-03 0. -1.
         11   -1    0    0    0    0 -0.00000000000E+00 -0.00000000000E+00 -0.45593999997E+02  0.45594000000E+02  0.51100000000E-03 0.  1.
    9900012    2    1    2    0    0  0.32520247697E+01  0.24663580873E+02  0.32160512005E+02  0.50528850735E+02  0.29999972293E+02 0.  0.
         12    1    1    2    0    0 -0.32520247697E+01 -0.24663580873E+02 -0.32160512005E+02  0.40659149265E+02  0.00000000000E+00 0. -1.
         11    1    3    3    0    0  0.31081538654E+01  0.17509358063E+02  0.69684508139E+01  0.19099674009E+02  0.51100000000E-03 0.  1.
        -11    1    3    3    0    0 -0.64966618610E+01  0.10081845232E+01  0.19875426510E+02  0.20934555896E+02  0.51100000000E-03 0. -1.
        -12    1    3    3    0    0  0.66405327653E+01  0.61460382866E+01  0.53166346812E+01  0.10494620830E+02  0.00000000000E+00 0.  1.
</event>
<event>
 7    1  0.2973028E-011  0.5052886E+02  0.7816164E-02  0.1300439E+00
        -11   -1    0    0    0    0  0.00000000000E+00  0.00000000000E+00  0.45593999997E+02  0.45594000000E+02  0.51100000000E-03 0.  1.
         11   -1    0    0    0    0 -0.00000000000E+00 -0.00000000000E+00 -0.45593999997E+02  0.45594000000E+02  0.51100000000E-03 0. -1.
    9900012    2    1    2    0    0 -0.44900819936E+01  0.71638538732E+01  0.39770389193E+02  0.50528862095E+02  0.30000006824E+02 0.  0.
         12    1    1    2    0    0  0.44900819936E+01 -0.71638538732E+01 -0.39770389193E+02  0.40659137905E+02  0.00000000000E+00 0. -1.
         11    1    3    3    0    0 -0.13922210806E+02 -0.90375120695E-01  0.84354539766E+01  0.16278605758E+02  0.51100000000E-03 0. -1.
        -11    1    3    3    0    0  0.75291750661E+01  0.60329970837E+01  0.15519729706E+02  0.18274231622E+02  0.51100000000E-03 0.  1.
         12    1    3    3    0    0  0.19029537460E+01  0.12212319102E+01  0.15815205511E+02  0.15976024715E+02  0.00000000000E+00 0. -1.
</event>
<event>
 7    1  0.2973028E-011  0.5052886E+02  0.7816164E-02  0.1300439E+00
        -11   -1    0    0    0    0  0.00000000000E+00  0.00000000000E+00  0.45593999997E+02  0.45594000000E+02  0.51100000000E-03 0. -1.
         11   -1    0    0    0    0 -0.00000000000E+00 -0.00000000000E+00 -0.45593999997E+02  0.45594000000E+02  0.51100000000E-03 0.  1.
    9900012    2    1    2    0    0 -0.23241445365E+02 -0.33909436142E+01 -0.33188888421E+02  0.50528860856E+02  0.30000003059E+02 0.  0.
         12    1    1    2    0    0  0.23241445365E+02  0.33909436142E+01  0.33188888421E+02  0.40659139144E+02  0.00000000000E+00 0. -1.
         11    1    3    3    0    0  0.43428103387E+01  0.40152230922E+01 -0.13465648743E+02  0.14707335396E+02  0.51100000000E-03 0. -1.
        -11    1    3    3    0    0 -0.34337641574E+01 -0.86509085810E+00 -0.67854296915E+01  0.76538339961E+01  0.51100000000E-03 0.  1.
         12    1    3    3    0    0 -0.24150491546E+02 -0.65410758483E+01 -0.12937809987E+02  0.28167691465E+02  0.00000000000E+00 0. -1.
</event>
<event>
 7    1  0.2973028E-011  0.5052883E+02  0.7816164E-02  0.1300439E+00
        -11   -1    0    0    0    0  0.00000000000E+00  0.00000000000E+00  0.45593999997E+02  0.45594000000E+02  0.51100000000E-03 0.  1.
         11   -1    0    0    0    0 -0.00000000000E+00 -0.00000000000E+00 -0.45593999997E+02  0.45594000000E+02  0.51100000000E-03 0. -1.
    9900012    2    1    2    0    0 -0.32696803904E+02  0.92678829808E+01 -0.22320245064E+02  0.50528831536E+02  0.29999913935E+02 0.  0.
         12    1    1    2    0    0  0.32696803904E+02 -0.92678829808E+01  0.22320245064E+02  0.40659168464E+02  0.00000000000E+00 0. -1.
         11    1    3    3    0    0 -0.14147844470E+01  0.98204163041E+01 -0.60563875156E+01  0.11624199818E+02  0.51100000000E-03 0. -1.
        -11    1    3    3    0    0 -0.20614497801E+02  0.73389096582E+01 -0.81444974911E+01  0.23348446505E+02  0.51100000000E-03 0.  1.
         12    1    3    3    0    0 -0.10667521657E+02 -0.78914429814E+01 -0.81193600573E+01  0.15556185213E+02  0.00000000000E+00 0. -1.
</event>
<event>
 7    1  0.2973028E-011  0.5052886E+02  0.7816164E-02  0.1300439E+00
        -11   -1    0    0    0    0  0.00000000000E+00  0.00000000000E+00  0.45593999997E+02  0.45594000000E+02  0.51100000000E-03 0.  1.
         11   -1    0    0    0    0 -0.00000000000E+00 -0.00000000000E+00 -0.45593999997E+02  0.45594000000E+02  0.51100000000E-03 0. -1.
    9900012    2    1    2    0    0 -0.36946830813E+02  0.12893973014E+01  0.16924382985E+02  0.50528860905E+02  0.30000003207E+02 0.  0.
         12    1    1    2    0    0  0.36946830813E+02 -0.12893973014E+01 -0.16924382985E+02  0.40659139095E+02  0.00000000000E+00 0. -1.
         11    1    3    3    0    0 -0.63785040744E+01  0.11088041049E+02  0.59064012230E+01  0.14089554435E+02  0.51100000000E-03 0. -1.
        -11    1    3    3    0    0 -0.23545902095E+02 -0.12635365978E+02  0.10914129072E+02  0.28864860861E+02  0.51100000000E-03 0.  1.
        -12    1    3    3    0    0 -0.70224246443E+01  0.28367222307E+01  0.10385268921E+00  0.75744456088E+01  0.00000000000E+00 0.  1.
</event>
<event>
 7    1  0.2973028E-011  0.5052886E+02  0.7816164E-02  0.1300439E+00
        -11   -1    0    0    0    0  0.00000000000E+00  0.00000000000E+00  0.45593999997E+02  0.45594000000E+02  0.51100000000E-03 0. -1.
         11   -1    0    0    0    0 -0.00000000000E+00 -0.00000000000E+00 -0.45593999997E+02  0.45594000000E+02  0.51100000000E-03 0.  1.
    9900012    2    1    2    0    0  0.12989209496E+02  0.44972147562E+01 -0.38265145363E+02  0.50528857688E+02  0.29999993429E+02 0.  0.
         12    1    1    2    0    0 -0.12989209496E+02 -0.44972147562E+01  0.38265145363E+02  0.40659142312E+02  0.00000000000E+00 0. -1.
         11    1    3    3    0    0  0.39118172111E+01  0.75610079188E+01  0.40914538251E+00  0.85228255201E+01  0.51100000000E-03 0. -1.
        -11    1    3    3    0    0 -0.26608878759E+01 -0.37609017896E+01 -0.12046656449E+02  0.12897543891E+02  0.51100000000E-03 0.  1.
         12    1    3    3    0    0  0.11738280161E+02  0.69710862701E+00 -0.26627634297E+02  0.29108488278E+02  0.00000000000E+00 0. -1.
</event>
<event>
 7    1  0.2973028E-011  0.5052886E+02  0.7816164E-02  0.1300439E+00
        -11   -1    0    0    0    0  0.00000000000E+00  0.00000000000E+00  0.45593999997E+02  0.45594000000E+02  0.51100000000E-03 0.  1.
         11   -1    0    0    0    0 -0.00000000000E+00 -0.00000000000E+00 -0.45593999997E+02  0.45594000000E+02  0.51100000000E-03 0. -1.
    9900012    2    1    2    0    0  0.38889512310E+02  0.32138587882E+01 -0.11421148035E+02  0.50528859841E+02  0.29999999973E+02 0.  0.
         12    1    1    2    0    0 -0.38889512310E+02 -0.32138587882E+01  0.11421148035E+02  0.40659140159E+02  0.00000000000E+00 0. -1.
         11    1    3    3    0    0  0.21554697327E+02  0.73266523827E+01  0.50659060344E+01  0.23322697447E+02  0.51100000000E-03 0. -1.
        -11    1    3    3    0    0  0.80523708600E+01  0.38556168845E+01 -0.98281460794E+01  0.13277760114E+02  0.51100000000E-03 0.  1.
         12    1    3    3    0    0  0.92824441229E+01 -0.79684104791E+01 -0.66589079900E+01  0.13928402280E+02  0.00000000000E+00 0. -1.
</event>
<event>
 7    1  0.2973028E-011  0.5052886E+02  0.7816164E-02  0.1300439E+00
        -11   -1    0    0    0    0  0.00000000000E+00  0.00000000000E+00  0.45593999997E+02  0.45594000000E+02  0.51100000000E-03 0. -1.
         11   -1    0    0    0    0 -0.00000000000E+00 -0.00000000000E+00 -0.45593999997E+02  0.45594000000E+02  0.51100000000E-03 0.  1.
    9900012    2    1    2    0    0 -0.30716874831E+02 -0.18642538949E+02  0.19028788670E+02  0.50528862575E+02  0.30000008284E+02 0.  0.
         12    1    1    2    0    0  0.30716874831E+02  0.18642538949E+02 -0.19028788670E+02  0.40659137425E+02  0.00000000000E+00 0. -1.
         11    1    3    3    0    0  0.36673274339E+01 -0.88428963667E+00 -0.36107745720E+01  0.52219682056E+01  0.51100000000E-03 0. -1.
        -11    1    3    3    0    0 -0.11341139279E+02 -0.68499781070E+01  0.44045790319E+01  0.13962233235E+02  0.51100000000E-03 0.  1.
         12    1    3    3    0    0 -0.23043062986E+02 -0.10908271206E+02  0.18234984210E+02  0.31344661134E+02  0.00000000000E+00 0. -1.
</event>
<event>
 7    1  0.2973028E-011  0.5052887E+02  0.7816164E-02  0.1300439E+00
        -11   -1    0    0    0    0  0.00000000000E+00  0.00000000000E+00  0.45593999997E+02  0.45594000000E+02  0.51100000000E-03 0.  1.
         11   -1    0    0    0    0 -0.00000000000E+00 -0.00000000000E+00 -0.45593999997E+02  0.45594000000E+02  0.51100000000E-03 0. -1.
    9900012    2    1    2    0    0 -0.19138837937E+00  0.40657124888E+02  0.35604070202E+00  0.50528865741E+02  0.30000017906E+02 0.  0.
         12    1    1    2    0    0  0.19138837937E+00 -0.40657124888E+02 -0.35604070202E+00  0.40659134259E+02  0.00000000000E+00 0. -1.
         11    1    3    3    0    0 -0.12051951605E+02  0.16103714225E+02  0.35377030501E+01  0.20422891383E+02  0.51100000000E-03 0. -1.
        -11    1    3    3    0    0  0.81498699428E+01  0.24233874810E+02 -0.48524149259E+01  0.26023969706E+02  0.51100000000E-03 0.  1.
        -12    1    3    3    0    0  0.37106932824E+01  0.31953585315E+00  0.16707525779E+01  0.40820046514E+01  0.00000000000E+00 0.  1.
</event>
<event>
 7    1  0.2973028E-011  0.5052886E+02  0.7816164E-02  0.1300439E+00
        -11   -1    0    0    0    0  0.00000000000E+00  0.00000000000E+00  0.45593999997E+02  0.45594000000E+02  0.51100000000E-03 0.  1.
         11   -1    0    0    0    0 -0.00000000000E+00 -0.00000000000E+00 -0.45593999997E+02  0.45594000000E+02  0.51100000000E-03 0. -1.
    9900012    2    1    2    0    0 -0.12607455646E+02 -0.13686516673E+02  0.36151028092E+02  0.50528861929E+02  0.30000006321E+02 0.  0.
         12    1    1    2    0    0  0.12607455646E+02  0.13686516673E+02 -0.36151028092E+02  0.40659138071E+02  0.00000000000E+00 0. -1.
         11    1    3    3    0    0  0.65550509616E+01  0.19852501108E+01  0.10867601519E+02  0.12845803756E+02  0.51100000000E-03 0. -1.
        -11    1    3    3    0    0 -0.17330921183E+02 -0.78814818882E+01  0.21832920585E+02  0.28968172316E+02  0.51100000000E-03 0.  1.
        -12    1    3    3    0    0 -0.18315854252E+01 -0.77902848959E+01  0.34505059882E+01  0.87148858572E+01  0.00000000000E+00 0.  1.
</event>
<event>
 7    1  0.2973028E-011  0.5052886E+02  0.7816164E-02  0.1300439E+00
        -11   -1    0    0    0    0  0.00000000000E+00  0.00000000000E+00  0.45593999997E+02  0.45594000000E+02  0.51100000000E-03 0.  1.
         11   -1    0    0    0    0 -0.00000000000E+00 -0.00000000000E+00 -0.45593999997E+02  0.45594000000E+02  0.51100000000E-03 0. -1.
    9900012    2    1    2    0    0  0.73212444120E+01 -0.34894353021E+02  0.19543510819E+02  0.50528864402E+02  0.30000013836E+02 0.  0.
         12    1    1    2    0    0 -0.73212444120E+01  0.34894353021E+02 -0.19543510819E+02  0.40659135598E+02  0.00000000000E+00 0. -1.
         11    1    3    3    0    0  0.92016022356E+01  0.14311570052E+01  0.11014174957E+01  0.93771432130E+01  0.51100000000E-03 0. -1.
        -11    1    3    3    0    0 -0.11255707279E+01 -0.18441862645E+02  0.62927957209E+01  0.19518414012E+02  0.51100000000E-03 0.  1.
         12    1    3    3    0    0 -0.75478709561E+00 -0.17883647381E+02  0.12149297602E+02  0.21633307177E+02  0.00000000000E+00 0. -1.
</event>
<event>
 7    1  0.2973028E-011  0.5052886E+02  0.7816164E-02  0.1300439E+00
        -11   -1    0    0    0    0  0.00000000000E+00  0.00000000000E+00  0.45593999997E+02  0.45594000000E+02  0.51100000000E-03 0.  1.
         11   -1    0    0    0    0 -0.00000000000E+00 -0.00000000000E+00 -0.45593999997E+02  0.45594000000E+02  0.51100000000E-03 0. -1.
    9900012    2    1    2    0    0  0.30167280869E+02 -0.25607571333E+02  0.93462851397E+01  0.50528860922E+02  0.30000003260E+02 0.  0.
         12    1    1    2    0    0 -0.30167280869E+02  0.25607571333E+02 -0.93462851397E+01  0.40659139078E+02  0.00000000000E+00 0. -1.
         11    1    3    3    0    0  0.35316927416E+01 -0.60095783483E+01 -0.31295235736E+01  0.76407986235E+01  0.51100000000E-03 0. -1.
        -11    1    3    3    0    0  0.10372779435E+02  0.37316476963E+01  0.90135792126E+01  0.14239535042E+02  0.51100000000E-03 0.  1.
        -12    1    3    3    0    0  0.16262808693E+02 -0.23329640681E+02  0.34622295007E+01  0.28648527257E+02  0.00000000000E+00 0.  1.
</event>
<event>
 7    1  0.2973028E-011  0.5052886E+02  0.7816164E-02  0.1300439E+00
        -11   -1    0    0    0    0  0.00000000000E+00  0.00000000000E+00  0.45593999997E+02  0.45594000000E+02  0.51100000000E-03 0.  1.
         11   -1    0    0    0    0 -0.00000000000E+00 -0.00000000000E+00 -0.45593999997E+02  0.45594000000E+02  0.51100000000E-03 0. -1.
    9900012    2    1    2    0    0 -0.67853582883E+01 -0.27172164434E+02  0.29475386971E+02  0.50528855344E+02  0.29999986303E+02 0.  0.
         12    1    1    2    0    0  0.67853582883E+01  0.27172164434E+02 -0.29475386971E+02  0.40659144656E+02  0.00000000000E+00 0. -1.
         11    1    3    3    0    0 -0.76299516219E+01 -0.75634163593E+01 -0.10617497314E+01  0.10795774244E+02  0.51100000000E-03 0. -1.
        -11    1    3    3    0    0 -0.21364743640E+01 -0.21538755547E+02  0.27891452064E+02  0.35304611763E+02  0.51100000000E-03 0.  1.
        -12    1    3    3    0    0  0.29810676977E+01  0.19300074726E+01  0.26456846383E+01  0.44284693369E+01  0.00000000000E+00 0.  1.
</event>
<event>
 7    1  0.2973028E-011  0.5052885E+02  0.7816164E-02  0.1300439E+00
        -11   -1    0    0    0    0  0.00000000000E+00  0.00000000000E+00  0.45593999997E+02  0.45594000000E+02  0.51100000000E-03 0.  1.
         11   -1    0    0    0    0 -0.00000000000E+00 -0.00000000000E+00 -0.45593999997E+02  0.45594000000E+02  0.51100000000E-03 0. -1.
    9900012    2    1    2    0    0  0.45904783865E+00  0.38500469949E+02  0.13064060779E+02  0.50528848567E+02  0.29999965704E+02 0.  0.
         12    1    1    2    0    0 -0.45904783865E+00 -0.38500469949E+02 -0.13064060779E+02  0.40659151433E+02  0.00000000000E+00 0. -1.
         11    1    3    3    0    0  0.78376084928E+00  0.27038110029E+01 -0.81839448424E+01  0.86545842450E+01  0.51100000000E-03 0. -1.
        -11    1    3    3    0    0  0.16848756246E+01  0.25134217364E+02  0.15769368236E+02  0.29719365121E+02  0.51100000000E-03 0.  1.
         12    1    3    3    0    0 -0.20095886353E+01  0.10662441582E+02  0.54786373860E+01  0.12154899201E+02  0.00000000000E+00 0. -1.
</event>
<event>
 7    1  0.2973028E-011  0.5052887E+02  0.7816164E-02  0.1300439E+00
        -11   -1    0    0    0    0  0.00000000000E+00  0.00000000000E+00  0.45593999997E+02  0.45594000000E+02  0.51100000000E-03 0.  1.
         11   -1    0    0    0    0 -0.00000000000E+00 -0.00000000000E+00 -0.45593999997E+02  0.45594000000E+02  0.51100000000E-03 0. -1.
    9900012    2    1    2    0    0  0.74202507231E+01 -0.17492112141E+02  0.35946223692E+02  0.50528866885E+02  0.30000021383E+02 0.  0.
         12    1    1    2    0    0 -0.74202507231E+01  0.17492112141E+02 -0.35946223692E+02  0.40659133115E+02  0.00000000000E+00 0. -1.
         11    1    3    3    0    0 -0.43701216607E+01  0.37447357132E+01  0.22465399568E+01  0.61780216032E+01  0.51100000000E-03 0. -1.
        -11    1    3    3    0    0  0.11584299074E+02 -0.19458192714E+02  0.19051204212E+02  0.29593337611E+02  0.51100000000E-03 0.  1.
         12    1    3    3    0    0  0.20607330951E+00 -0.17786551403E+01  0.14648479523E+02  0.14757507671E+02  0.00000000000E+00 0. -1.
</event>
<event>
 7    1  0.2973028E-011  0.5052885E+02  0.7816164E-02  0.1300439E+00
        -11   -1    0    0    0    0  0.00000000000E+00  0.00000000000E+00  0.45593999997E+02  0.45594000000E+02  0.51100000000E-03 0.  1.
         11   -1    0    0    0    0 -0.00000000000E+00 -0.00000000000E+00 -0.45593999997E+02  0.45594000000E+02  0.51100000000E-03 0. -1.
    9900012    2    1    2    0    0  0.37770050731E+02  0.14436852413E+02 -0.42622386619E+01  0.50528854433E+02  0.29999983535E+02 0.  0.
         12    1    1    2    0    0 -0.37770050731E+02 -0.14436852413E+02  0.42622386619E+01  0.40659145567E+02  0.00000000000E+00 0. -1.
         11    1    3    3    0    0  0.61766029059E+01 -0.13801481307E+01 -0.72909661854E+01  0.96547097573E+01  0.51100000000E-03 0. -1.
        -11    1    3    3    0    0  0.28794316242E+02  0.19920408846E+02 -0.81672797781E-01  0.35013454659E+02  0.51100000000E-03 0.  1.
        -12    1    3    3    0    0  0.27991315830E+01 -0.41034083025E+01  0.31104003213E+01  0.58606900169E+01  0.00000000000E+00 0.  1.
</event>
<event>
 7    1  0.2973028E-011  0.5052886E+02  0.7816164E-02  0.1300439E+00
        -11   -1    0    0    0    0  0.00000000000E+00  0.00000000000E+00  0.45593999997E+02  0.45594000000E+02  0.51100000000E-03 0. -1.
         11   -1    0    0    0    0 -0.00000000000E+00 -0.00000000000E+00 -0.45593999997E+02  0.45594000000E+02  0.51100000000E-03 0.  1.
    9900012    2    1    2    0    0 -0.18673737752E+02  0.13444817694E+02 -0.33521542747E+02  0.50528862865E+02  0.30000009164E+02 0.  0.
         12    1    1    2    0    0  0.18673737752E+02 -0.13444817694E+02  0.33521542747E+02  0.40659137135E+02  0.00000000000E+00 0. -1.
         11    1    3    3    0    0  0.40194646134E+01 -0.45850826227E+01 -0.12411579249E+02  0.13828462610E+02  0.51100000000E-03 0. -1.
        -11    1    3    3    0    0 -0.20869526725E+02  0.13294173106E+02 -0.15815826670E+02  0.29366861559E+02  0.51100000000E-03 0.  1.
         12    1    3    3    0    0 -0.18236756403E+01  0.47357272107E+01 -0.52941368277E+01  0.73335386960E+01  0.00000000000E+00 0. -1.
</event>
<event>
 7    1  0.2973028E-011  0.5052886E+02  0.7816164E-02  0.1300439E+00
        -11   -1    0    0    0    0  0.00000000000E+00  0.00000000000E+00  0.45593999997E+02  0.45594000000E+02  0.51100000000E-03 0.  1.
         11   -1    0    0    0    0 -0.00000000000E+00 -0.00000000000E+00 -0.45593999997E+02  0.45594000000E+02  0.51100000000E-03 0. -1.
    9900012    2    1    2    0    0 -0.30804246104E+02 -0.75188619474E+01  0.25450549494E+02  0.50528864095E+02  0.30000012902E+02 0.  0.
         12    1    1    2    0    0  0.30804246104E+02  0.75188619474E+01 -0.25450549494E+02  0.40659135905E+02  0.00000000000E+00 0. -1.
         11    1    3    3    0    0 -0.12531541396E+02 -0.34881468792E+01 -0.42044083567E+01  0.13670543087E+02  0.51100000000E-03 0. -1.
        -11    1    3    3    0    0 -0.15158651250E+02  0.10509885294E+00  0.27176713987E+02  0.31118636488E+02  0.51100000000E-03 0.  1.
        -12    1    3    3    0    0 -0.31140534587E+01 -0.41358139211E+01  0.24782438629E+01  0.57396845190E+01  0.00000000000E+00 0.  1.
</event>
<event>
 7    1  0.2973028E-011  0.5052886E+02  0.7816164E-02  0.1300439E+00
        -11   -1    0    0    0    0  0.00000000000E+00  0.00000000000E+00  0.45593999997E+02  0.45594000000E+02  0.51100000000E-03 0. -1.
         11   -1    0    0    0    0 -0.00000000000E+00 -0.00000000000E+00 -0.45593999997E+02  0.45594000000E+02  0.51100000000E-03 0.  1.
    9900012    2    1    2    0    0 -0.28668488964E+02 -0.28371487951E+02  0.51324375077E+01  0.50528862002E+02  0.30000006540E+02 0.  0.
         12    1    1    2    0    0  0.28668488964E+02  0.28371487951E+02 -0.51324375077E+01  0.40659137998E+02  0.00000000000E+00 0. -1.
         11    1    3    3    0    0 -0.18382903810E+02 -0.72719567957E+01 -0.72562817676E+01  0.21058635603E+02  0.51100000000E-03 0. -1.
        -11    1    3    3    0    0  0.15481807847E+01 -0.11213580042E+02  0.52414084372E+01  0.12474518178E+02  0.51100000000E-03 0.  1.
         12    1    3    3    0    0 -0.11833765939E+02 -0.98859511127E+01  0.71473108381E+01  0.16995708220E+02  0.00000000000E+00 0. -1.
</event>
<event>
 7    1  0.2973028E-011  0.5052886E+02  0.7816164E-02  0.1300439E+00
        -11   -1    0    0    0    0  0.00000000000E+00  0.00000000000E+00  0.45593999997E+02  0.45594000000E+02  0.51100000000E-03 0. -1.
         11   -1    0    0    0    0 -0.00000000000E+00 -0.00000000000E+00 -0.45593999997E+02  0.45594000000E+02  0.51100000000E-03 0.  1.
    9900012    2    1    2    0    0  0.35099736795E+02 -0.13710124762E+02 -0.15271095963E+02  0.50528863069E+02  0.30000009783E+02 0.  0.
         12    1    1    2    0    0 -0.35099736795E+02  0.13710124762E+02  0.15271095963E+02  0.40659136931E+02  0.00000000000E+00 0. -1.
         11    1    3    3    0    0  0.11995785243E+02  0.28156820026E+01 -0.10933995631E+02  0.16473590667E+02  0.51100000000E-03 0. -1.
        -11    1    3    3    0    0  0.20754986893E+02 -0.11247746751E+02  0.39684810556E+01  0.23938047750E+02  0.51100000000E-03 0.  1.
        -12    1    3    3    0    0  0.23489646595E+01 -0.52780600134E+01 -0.83055813874E+01  0.10117224652E+02  0.00000000000E+00 0.  1.
</event>
<event>
 7    1  0.2973028E-011  0.5052886E+02  0.7816164E-02  0.1300439E+00
        -11   -1    0    0    0    0  0.00000000000E+00  0.00000000000E+00  0.45593999997E+02  0.45594000000E+02  0.51100000000E-03 0.  1.
         11   -1    0    0    0    0 -0.00000000000E+00 -0.00000000000E+00 -0.45593999997E+02  0.45594000000E+02  0.51100000000E-03 0. -1.
    9900012    2    1    2    0    0  0.30918161068E+02  0.10946018891E+02  0.24029510600E+02  0.50528863351E+02  0.30000010640E+02 0.  0.
         12    1    1    2    0    0 -0.30918161068E+02 -0.10946018891E+02 -0.24029510600E+02  0.40659136649E+02  0.00000000000E+00 0. -1.
         11    1    3    3    0    0  0.11081500547E+02 -0.11579070998E+01  0.37836536319E+01  0.11766751390E+02  0.51100000000E-03 0. -1.
        -11    1    3    3    0    0 -0.25445281243E+01  0.93726836086E+01  0.23921580776E+01  0.10002211852E+02  0.51100000000E-03 0.  1.
        -12    1    3    3    0    0  0.22381188646E+02  0.27312423819E+01  0.17853698891E+02  0.28759900108E+02  0.00000000000E+00 0.  1.
</event>
<event>
 7    1  0.2973028E-011  0.5052886E+02  0.7816164E-02  0.1300439E+00
        -11   -1    0    0    0    0  0.00000000000E+00  0.00000000000E+00  0.45593999997E+02  0.45594000000E+02  0.51100000000E-03 0. -1.
         11   -1    0    0    0    0 -0.00000000000E+00 -0.00000000000E+00 -0.45593999997E+02  0.45594000000E+02  0.51100000000E-03 0.  1.
    9900012    2    1    2    0    0  0.36229355750E+02  0.50274969212E+01 -0.17757351917E+02  0.50528862153E+02  0.30000006999E+02 0.  0.
         12    1    1    2    0    0 -0.36229355750E+02 -0.50274969212E+01  0.17757351917E+02  0.40659137847E+02  0.00000000000E+00 0. -1.
         11    1    3    3    0    0  0.57858614766E+00 -0.14032648550E+01 -0.21284216530E+00  0.15327153134E+01  0.51100000000E-03 0. -1.
        -11    1    3    3    0    0  0.15899943426E+02  0.17769728208E+01  0.67305903145E+01  0.17357035449E+02  0.51100000000E-03 0.  1.
        -12    1    3    3    0    0  0.19750826177E+02  0.46537889554E+01 -0.24275100066E+02  0.31639111390E+02  0.00000000000E+00 0.  1.
</event>
<event>
 7    1  0.2973028E-011  0.5052884E+02  0.7816164E-02  0.1300439E+00
        -11   -1    0    0    0    0  0.00000000000E+00  0.00000000000E+00  0.45593999997E+02  0.45594000000E+02  0.51100000000E-03 0.  1.
         11   -1    0    0    0    0 -0.00000000000E+00 -0.00000000000E+00 -0.45593999997E+02  0.45594000000E+02  0.51100000000E-03 0. -1.
    9900012    2    1    2    0    0  0.92824922336E+01 -0.39263051726E+01  0.39390185529E+02  0.50528840511E+02  0.29999941217E+02 0.  0.
         12    1    1    2    0    0 -0.92824922336E+01  0.39263051726E+01 -0.39390185529E+02  0.40659159489E+02  0.00000000000E+00 0. -1.
         11    1    3    3    0    0 -0.35192744827E+01 -0.17807140018E+01  0.16011179619E+01  0.42567375101E+01  0.51100000000E-03 0. -1.
        -11    1    3    3    0    0  0.16130339588E+02  0.37007233384E+01  0.14408265709E+02  0.21942682822E+02  0.51100000000E-03 0.  1.
        -12    1    3    3    0    0 -0.33285728716E+01 -0.58463145091E+01  0.23380801858E+02  0.24329420179E+02  0.00000000000E+00 0.  1.
</event>
<event>
 7    1  0.2973028E-011  0.5052894E+02  0.7816164E-02  0.1300438E+00
        -11   -1    0    0    0    0  0.00000000000E+00  0.00000000000E+00  0.45593999997E+02  0.45594000000E+02  0.51100000000E-03 0.  1.
         11   -1    0    0    0    0 -0.00000000000E+00 -0.00000000000E+00 -0.45593999997E+02  0.45594000000E+02  0.51100000000E-03 0. -1.
    9900012    2    1    2    0    0  0.36729315952E+02 -0.14667757208E+02  0.94325557966E+01  0.50528943682E+02  0.30000254815E+02 0.  0.
         12    1    1    2    0    0 -0.36729315952E+02  0.14667757208E+02 -0.94325557966E+01  0.40659056318E+02  0.00000000000E+00 0. -1.
         11    1    3    3    0    0  0.11240605736E+01 -0.54380461012E+01  0.63098635893E+01  0.84053694950E+01  0.51100000000E-03 0. -1.
        -11    1    3    3    0    0  0.36391598197E+02 -0.81662441988E+01 -0.14886652634E+01  0.37326292184E+02  0.51100000000E-03 0.  1.
        -12    1    3    3    0    0 -0.78634281941E+00 -0.10634669083E+01  0.46113574707E+01  0.47972820031E+01  0.00000000000E+00 0.  1.
</event>
<event>
 7    1  0.2973028E-011  0.5052887E+02  0.7816164E-02  0.1300439E+00
        -11   -1    0    0    0    0  0.00000000000E+00  0.00000000000E+00  0.45593999997E+02  0.45594000000E+02  0.51100000000E-03 0.  1.
         11   -1    0    0    0    0 -0.00000000000E+00 -0.00000000000E+00 -0.45593999997E+02  0.45594000000E+02  0.51100000000E-03 0. -1.
    9900012    2    1    2    0    0  0.29055161930E+02 -0.10978453767E+02  0.26238061769E+02  0.50528871046E+02  0.30000034032E+02 0.  0.
         12    1    1    2    0    0 -0.29055161930E+02  0.10978453767E+02 -0.26238061769E+02  0.40659128954E+02  0.00000000000E+00 0. -1.
         11    1    3    3    0    0  0.29631846571E+01  0.29454931812E-02 -0.25063152685E+01  0.38809906563E+01  0.51100000000E-03 0. -1.
        -11    1    3    3    0    0  0.15438087887E+02  0.43134913686E+01  0.21108151667E+02  0.26504619077E+02  0.51100000000E-03 0.  1.
        -12    1    3    3    0    0  0.10653889386E+02 -0.15294890629E+02  0.76362253702E+01  0.20143261313E+02  0.00000000000E+00 0.  1.
</event>
<event>
 7    1  0.2973028E-011  0.5052886E+02  0.7816164E-02  0.1300439E+00
        -11   -1    0    0    0    0  0.00000000000E+00  0.00000000000E+00  0.45593999997E+02  0.45594000000E+02  0.51100000000E-03 0.  1.
         11   -1    0    0    0    0 -0.00000000000E+00 -0.00000000000E+00 -0.45593999997E+02  0.45594000000E+02  0.51100000000E-03 0. -1.
    9900012    2    1    2    0    0  0.16801032595E+02 -0.36343898599E+02  0.70719191507E+01  0.50528859550E+02  0.29999999088E+02 0.  0.
         12    1    1    2    0    0 -0.16801032595E+02  0.36343898599E+02 -0.70719191507E+01  0.40659140450E+02  0.00000000000E+00 0. -1.
         11    1    3    3    0    0  0.18563771491E+02 -0.14687967978E+02 -0.60581046791E+01  0.24434619864E+02  0.51100000000E-03 0. -1.
        -11    1    3    3    0    0  0.81293155438E+00 -0.81593635555E+01  0.79181735366E+01  0.11398839580E+02  0.51100000000E-03 0.  1.
         12    1    3    3    0    0 -0.25756704509E+01 -0.13496567066E+02  0.52118502931E+01  0.14695400107E+02  0.00000000000E+00 0. -1.
</event>
<event>
 7    1  0.2973028E-011  0.5052886E+02  0.7816164E-02  0.1300439E+00
        -11   -1    0    0    0    0  0.00000000000E+00  0.00000000000E+00  0.45593999997E+02  0.45594000000E+02  0.51100000000E-03 0.  1.
         11   -1    0    0    0    0 -0.00000000000E+00 -0.00000000000E+00 -0.45593999997E+02  0.45594000000E+02  0.51100000000E-03 0. -1.
    9900012    2    1    2    0    0  0.22570372966E+02  0.14748484945E+02  0.30433965477E+02  0.50528858363E+02  0.29999995481E+02 0.  0.
         12    1    1    2    0    0 -0.22570372966E+02 -0.14748484945E+02 -0.30433965477E+02  0.40659141637E+02  0.00000000000E+00 0. -1.
         11    1    3    3    0    0  0.11833945343E+02  0.33846987131E+01 -0.30021046359E+01  0.12669296755E+02  0.51100000000E-03 0. -1.
        -11    1    3    3    0    0  0.31828536776E+01  0.93783910751E+01  0.17348076000E+02  0.19975998544E+02  0.51100000000E-03 0.  1.
         12    1    3    3    0    0  0.75535739455E+01  0.19853951565E+01  0.16087994113E+02  0.17883563064E+02  0.00000000000E+00 0. -1.
</event>
<event>
 7    1  0.2973028E-011  0.5052886E+02  0.7816164E-02  0.1300439E+00
        -11   -1    0    0    0    0  0.00000000000E+00  0.00000000000E+00  0.45593999997E+02  0.45594000000E+02  0.51100000000E-03 0. -1.
         11   -1    0    0    0    0 -0.00000000000E+00 -0.00000000000E+00 -0.45593999997E+02  0.45594000000E+02  0.51100000000E-03 0.  1.
    9900012    2    1    2    0    0 -0.35345013439E+02  0.18920349029E+02 -0.67761621866E+01  0.50528856423E+02  0.29999989584E+02 0.  0.
         12    1    1    2    0    0  0.35345013439E+02 -0.18920349029E+02  0.67761621866E+01  0.40659143577E+02  0.00000000000E+00 0. -1.
         11    1    3    3    0    0 -0.13094684371E+02 -0.52544653696E+01  0.29973325240E+01  0.14424429542E+02  0.51100000000E-03 0. -1.
        -11    1    3    3    0    0 -0.18209941786E+02  0.24206791345E+02 -0.10375984350E+02  0.32019240755E+02  0.51100000000E-03 0.  1.
        -12    1    3    3    0    0 -0.40403872825E+01 -0.31976945849E-01  0.60248963912E+00  0.40851861259E+01  0.00000000000E+00 0.  1.
</event>
<event>
 7    1  0.2973028E-011  0.5052885E+02  0.7816164E-02  0.1300439E+00
        -11   -1    0    0    0    0  0.00000000000E+00  0.00000000000E+00  0.45593999997E+02  0.45594000000E+02  0.51100000000E-03 0.  1.
         11   -1    0    0    0    0 -0.00000000000E+00 -0.00000000000E+00 -0.45593999997E+02  0.45594000000E+02  0.51100000000E-03 0. -1.
    9900012    2    1    2    0    0 -0.36080053875E+02  0.10361119979E+02  0.15621875779E+02  0.50528854685E+02  0.29999984301E+02 0.  0.
         12    1    1    2    0    0  0.36080053875E+02 -0.10361119979E+02 -0.15621875779E+02  0.40659145315E+02  0.00000000000E+00 0. -1.
         11    1    3    3    0    0 -0.11053165250E+02  0.42384073207E+01 -0.70845117699E+01  0.13795900331E+02  0.51100000000E-03 0. -1.
        -11    1    3    3    0    0 -0.25559398569E+02  0.53042781626E+01  0.23758838016E+02  0.35297317266E+02  0.51100000000E-03 0.  1.
        -12    1    3    3    0    0  0.53250994383E+00  0.81843449553E+00 -0.10524504670E+01  0.14356370883E+01  0.00000000000E+00 0.  1.
</event>
<event>
 7    1  0.2973028E-011  0.5052887E+02  0.7816164E-02  0.1300439E+00
        -11   -1    0    0    0    0  0.00000000000E+00  0.00000000000E+00  0.45593999997E+02  0.45594000000E+02  0.51100000000E-03 0.  1.
         11   -1    0    0    0    0 -0.00000000000E+00 -0.00000000000E+00 -0.45593999997E+02  0.45594000000E+02  0.51100000000E-03 0. -1.
    9900012    2    1    2    0    0 -0.12887973083E+02 -0.36719471186E+02  0.11779041453E+02  0.50528865333E+02  0.30000016666E+02 0.  0.
         12    1    1    2    0    0  0.12887973083E+02  0.36719471186E+02 -0.11779041453E+02  0.40659134667E+02  0.00000000000E+00 0. -1.
         11    1    3    3    0    0 -0.34070991762E+01 -0.43243227197E+01 -0.85446517499E+01  0.10164603562E+02  0.51100000000E-03 0. -1.
        -11    1    3    3    0    0 -0.53868002974E+01 -0.28750051093E+02  0.18392613560E+02  0.34552442593E+02  0.51100000000E-03 0.  1.
        -12    1    3    3    0    0 -0.40940736090E+01 -0.36450973728E+01  0.19310796430E+01  0.58118191782E+01  0.00000000000E+00 0.  1.
</event>
<event>
 7    1  0.2973028E-011  0.5052885E+02  0.7816164E-02  0.1300439E+00
        -11   -1    0    0    0    0  0.00000000000E+00  0.00000000000E+00  0.45593999997E+02  0.45594000000E+02  0.51100000000E-03 0.  1.
         11   -1    0    0    0    0 -0.00000000000E+00 -0.00000000000E+00 -0.45593999997E+02  0.45594000000E+02  0.51100000000E-03 0. -1.
    9900012    2    1    2    0    0  0.10420758824E+02  0.88709884481E+01  0.38286805674E+02  0.50528854175E+02  0.29999982749E+02 0.  0.
         12    1    1    2    0    0 -0.10420758824E+02 -0.88709884481E+01 -0.38286805674E+02  0.40659145825E+02  0.00000000000E+00 0. -1.
         11    1    3    3    0    0  0.89219422034E+01 -0.22532057112E+01  0.28386484816E+00  0.92064416671E+01  0.51100000000E-03 0. -1.
        -11    1    3    3    0    0  0.58610450852E+01  0.25630700715E+01  0.18628567517E+02  0.19696311981E+02  0.51100000000E-03 0.  1.
         12    1    3    3    0    0 -0.43622284649E+01  0.85611240879E+01  0.19374373310E+02  0.21626100526E+02  0.00000000000E+00 0. -1.
</event>
<event>
 7    1  0.2973028E-011  0.5052888E+02  0.7816164E-02  0.1300439E+00
        -11   -1    0    0    0    0  0.00000000000E+00  0.00000000000E+00  0.45593999997E+02  0.45594000000E+02  0.51100000000E-03 0.  1.
         11   -1    0    0    0    0 -0.00000000000E+00 -0.00000000000E+00 -0.45593999997E+02  0.45594000000E+02  0.51100000000E-03 0. -1.
    9900012    2    1    2    0    0 -0.16769809018E+02  0.27371285033E+02  0.24954968114E+02  0.50528878361E+02  0.30000056267E+02 0.  0.
         12    1    1    2    0    0  0.16769809018E+02 -0.27371285033E+02 -0.24954968114E+02  0.40659121639E+02  0.00000000000E+00 0. -1.
         11    1    3    3    0    0  0.53947948913E+01 -0.27751981003E+01  0.32487062409E+01  0.68818332525E+01  0.51100000000E-03 0.  1.
        -11    1    3    3    0    0 -0.12220186712E+02  0.19227366995E+02  0.10381071504E+02  0.25035799382E+02  0.51100000000E-03 0. -1.
         12    1    3    3    0    0 -0.99444171971E+01  0.10919116138E+02  0.11325190369E+02  0.18611245727E+02  0.00000000000E+00 0. -1.
</event>
<event>
 7    1  0.2973028E-011  0.5052886E+02  0.7816164E-02  0.1300439E+00
        -11   -1    0    0    0    0  0.00000000000E+00  0.00000000000E+00  0.45593999997E+02  0.45594000000E+02  0.51100000000E-03 0.  1.
         11   -1    0    0    0    0 -0.00000000000E+00 -0.00000000000E+00 -0.45593999997E+02  0.45594000000E+02  0.51100000000E-03 0. -1.
    9900012    2    1    2    0    0 -0.38716663461E+02  0.12385115137E+02  0.89153991313E+00  0.50528856503E+02  0.29999989826E+02 0.  0.
         12    1    1    2    0    0  0.38716663461E+02 -0.12385115137E+02 -0.89153991313E+00  0.40659143497E+02  0.00000000000E+00 0. -1.
         11    1    3    3    0    0 -0.41611017398E+01  0.67194713758E+01 -0.59440917440E+01  0.98893018045E+01  0.51100000000E-03 0. -1.
        -11    1    3    3    0    0 -0.28096949262E+02  0.30554762942E+01  0.13209750021E+02  0.31197307401E+02  0.51100000000E-03 0.  1.
        -12    1    3    3    0    0 -0.64586124591E+01  0.26101674668E+01 -0.63741183639E+01  0.94422472971E+01  0.00000000000E+00 0.  1.
</event>
<event>
 7    1  0.2973028E-011  0.5052885E+02  0.7816164E-02  0.1300439E+00
        -11   -1    0    0    0    0  0.00000000000E+00  0.00000000000E+00  0.45593999997E+02  0.45594000000E+02  0.51100000000E-03 0.  1.
         11   -1    0    0    0    0 -0.00000000000E+00 -0.00000000000E+00 -0.45593999997E+02  0.45594000000E+02  0.51100000000E-03 0. -1.
    9900012    2    1    2    0    0  0.17143523663E+02 -0.36807367495E+02  0.21175677808E+01  0.50528846063E+02  0.29999958094E+02 0.  0.
         12    1    1    2    0    0 -0.17143523663E+02  0.36807367495E+02 -0.21175677808E+01  0.40659153937E+02  0.00000000000E+00 0. -1.
         11    1    3    3    0    0  0.68723887822E+01 -0.21028698500E+02  0.27925662091E+01  0.22298751411E+02  0.51100000000E-03 0. -1.
        -11    1    3    3    0    0 -0.11670489808E+01  0.36854149783E+01 -0.38213911525E+01  0.54357444281E+01  0.51100000000E-03 0.  1.
        -12    1    3    3    0    0  0.11438183862E+02 -0.19464083973E+02  0.31463927242E+01  0.22794350224E+02  0.00000000000E+00 0.  1.
</event>
<event>
 7    1  0.2973028E-011  0.5052886E+02  0.7816164E-02  0.1300439E+00
        -11   -1    0    0    0    0  0.00000000000E+00  0.00000000000E+00  0.45593999997E+02  0.45594000000E+02  0.51100000000E-03 0.  1.
         11   -1    0    0    0    0 -0.00000000000E+00 -0.00000000000E+00 -0.45593999997E+02  0.45594000000E+02  0.51100000000E-03 0. -1.
    9900012    2    1    2    0    0  0.27155804136E+02  0.41504005173E+01  0.29975026065E+02  0.50528859450E+02  0.29999998783E+02 0.  0.
         12    1    1    2    0    0 -0.27155804136E+02 -0.41504005173E+01 -0.29975026065E+02  0.40659140550E+02  0.00000000000E+00 0. -1.
         11    1    3    3    0    0 -0.50240909875E+00  0.14764044227E-01 -0.24840570751E+01  0.25343978955E+01  0.51100000000E-03 0. -1.
        -11    1    3    3    0    0  0.19612765529E+02 -0.29925410104E+01  0.31467683610E+02  0.37199878837E+02  0.51100000000E-03 0.  1.
        -12    1    3    3    0    0  0.80454477052E+01  0.71281774834E+01  0.99139952911E+00  0.10794582717E+02  0.00000000000E+00 0.  1.
</event>
<event>
 7    1  0.2973028E-011  0.5052886E+02  0.7816164E-02  0.1300439E+00
        -11   -1    0    0    0    0  0.00000000000E+00  0.00000000000E+00  0.45593999997E+02  0.45594000000E+02  0.51100000000E-03 0. -1.
         11   -1    0    0    0    0 -0.00000000000E+00 -0.00000000000E+00 -0.45593999997E+02  0.45594000000E+02  0.51100000000E-03 0.  1.
    9900012    2    1    2    0    0 -0.17713653529E+02 -0.14316300545E+02 -0.33681386707E+02  0.50528858431E+02  0.29999995686E+02 0.  0.
         12    1    1    2    0    0  0.17713653529E+02  0.14316300545E+02  0.33681386707E+02  0.40659141569E+02  0.00000000000E+00 0. -1.
         11    1    3    3    0    0  0.26202859990E+01 -0.51305386355E+01 -0.46035819179E+01  0.73743672368E+01  0.51100000000E-03 0. -1.
        -11    1    3    3    0    0 -0.80207224087E+01  0.65410917477E+01 -0.40032928861E+01  0.11097036695E+02  0.51100000000E-03 0.  1.
        -12    1    3    3    0    0 -0.12313217119E+02 -0.15726853658E+02 -0.25074511903E+02  0.32057454499E+02  0.00000000000E+00 0.  1.
</event>
<event>
 7    1  0.2973028E-011  0.5052886E+02  0.7816164E-02  0.1300439E+00
        -11   -1    0    0    0    0  0.00000000000E+00  0.00000000000E+00  0.45593999997E+02  0.45594000000E+02  0.51100000000E-03 0. -1.
         11   -1    0    0    0    0 -0.00000000000E+00 -0.00000000000E+00 -0.45593999997E+02  0.45594000000E+02  0.51100000000E-03 0.  1.
    9900012    2    1    2    0    0 -0.36372420733E+02  0.70352300968E+01 -0.16754651472E+02  0.50528858365E+02  0.29999995487E+02 0.  0.
         12    1    1    2    0    0  0.36372420733E+02 -0.70352300968E+01  0.16754651472E+02  0.40659141635E+02  0.00000000000E+00 0. -1.
         11    1    3    3    0    0 -0.76983888339E+01  0.62080514483E+01 -0.18620778533E+02  0.21084081361E+02  0.51100000000E-03 0.  1.
        -11    1    3    3    0    0 -0.18834177669E+02  0.33520063745E+01  0.23541519900E+01  0.19274444922E+02  0.51100000000E-03 0. -1.
        -12    1    3    3    0    0 -0.98398542303E+01 -0.25248277260E+01 -0.48802492901E+00  0.10170332082E+02  0.00000000000E+00 0.  1.
</event>
<event>
 7    1  0.2973028E-011  0.5052886E+02  0.7816164E-02  0.1300439E+00
        -11   -1    0    0    0    0  0.00000000000E+00  0.00000000000E+00  0.45593999997E+02  0.45594000000E+02  0.51100000000E-03 0. -1.
         11   -1    0    0    0    0 -0.00000000000E+00 -0.00000000000E+00 -0.45593999997E+02  0.45594000000E+02  0.51100000000E-03 0.  1.
    9900012    2    1    2    0    0 -0.18830475262E+02  0.35111406263E+02  0.81097601717E+01  0.50528857628E+02  0.29999993248E+02 0.  0.
         12    1    1    2    0    0  0.18830475262E+02 -0.35111406263E+02 -0.81097601717E+01  0.40659142372E+02  0.00000000000E+00 0. -1.
         11    1    3    3    0    0 -0.32911930444E+01  0.48714893944E+00 -0.27426965731E+01  0.43118036247E+01  0.51100000000E-03 0. -1.
        -11    1    3    3    0    0  0.31358958972E+01  0.19071894510E+02  0.10314639950E+02  0.21908053334E+02  0.51100000000E-03 0.  1.
        -12    1    3    3    0    0 -0.18675178115E+02  0.15552362813E+02  0.53781679449E+00  0.24309000670E+02  0.00000000000E+00 0.  1.
</event>
<event>
 7    1  0.2973028E-011  0.5052886E+02  0.7816164E-02  0.1300439E+00
        -11   -1    0    0    0    0  0.00000000000E+00  0.00000000000E+00  0.45593999997E+02  0.45594000000E+02  0.51100000000E-03 0. -1.
         11   -1    0    0    0    0 -0.00000000000E+00 -0.00000000000E+00 -0.45593999997E+02  0.45594000000E+02  0.51100000000E-03 0.  1.
    9900012    2    1    2    0    0  0.12341728858E+02  0.26056515420E+02 -0.28668892232E+02  0.50528860205E+02  0.30000001079E+02 0.  0.
         12    1    1    2    0    0 -0.12341728858E+02 -0.26056515420E+02  0.28668892232E+02  0.40659139795E+02  0.00000000000E+00 0. -1.
         11    1    3    3    0    0 -0.38287071202E+01  0.45337411060E+01 -0.32190029800E+01  0.67509841561E+01  0.51100000000E-03 0. -1.
        -11    1    3    3    0    0  0.14116612767E+02  0.12350822638E+02 -0.24307281855E+01  0.18913752024E+02  0.51100000000E-03 0.  1.
        -12    1    3    3    0    0  0.20538232115E+01  0.91719516767E+01 -0.23019161067E+02  0.24864124025E+02  0.00000000000E+00 0.  1.
</event>
<event>
 7    1  0.2973028E-011  0.5052887E+02  0.7816164E-02  0.1300439E+00
        -11   -1    0    0    0    0  0.00000000000E+00  0.00000000000E+00  0.45593999997E+02  0.45594000000E+02  0.51100000000E-03 0.  1.
         11   -1    0    0    0    0 -0.00000000000E+00 -0.00000000000E+00 -0.45593999997E+02  0.45594000000E+02  0.51100000000E-03 0. -1.
    9900012    2    1    2    0    0  0.90460647074E+01 -0.33774424603E+02  0.20751438787E+02  0.50528865041E+02  0.30000015777E+02 0.  0.
         12    1    1    2    0    0 -0.90460647074E+01  0.33774424603E+02 -0.20751438787E+02  0.40659134959E+02  0.00000000000E+00 0. -1.
         11    1    3    3    0    0 -0.32847873509E+01 -0.68064830196E+00 -0.47349831400E+01  0.58028592649E+01  0.51100000000E-03 0. -1.
        -11    1    3    3    0    0  0.85520030548E+01 -0.30196666869E+02  0.24613979328E+02  0.39885127866E+02  0.51100000000E-03 0.  1.
        -12    1    3    3    0    0  0.37788490035E+01 -0.28971094316E+01  0.87244259889E+00  0.48408779099E+01  0.00000000000E+00 0.  1.
</event>
<event>
 7    1  0.2973028E-011  0.5052886E+02  0.7816164E-02  0.1300439E+00
        -11   -1    0    0    0    0  0.00000000000E+00  0.00000000000E+00  0.45593999997E+02  0.45594000000E+02  0.51100000000E-03 0.  1.
         11   -1    0    0    0    0 -0.00000000000E+00 -0.00000000000E+00 -0.45593999997E+02  0.45594000000E+02  0.51100000000E-03 0. -1.
    9900012    2    1    2    0    0 -0.36527620934E+02 -0.10469883429E+02  0.14466516519E+02  0.50528860188E+02  0.30000001026E+02 0.  0.
         12    1    1    2    0    0  0.36527620934E+02  0.10469883429E+02 -0.14466516519E+02  0.40659139812E+02  0.00000000000E+00 0. -1.
         11    1    3    3    0    0 -0.12057504191E+02  0.54656205279E+01  0.71724088838E+01  0.15056555534E+02  0.51100000000E-03 0. -1.
        -11    1    3    3    0    0 -0.10312465428E+02 -0.16913549337E+02  0.69509416832E+00  0.19821661145E+02  0.51100000000E-03 0.  1.
        -12    1    3    3    0    0 -0.14157651314E+02  0.97804538041E+00  0.65990134664E+01  0.15650643509E+02  0.00000000000E+00 0.  1.
</event>
<event>
 7    1  0.2973028E-011  0.5052887E+02  0.7816164E-02  0.1300439E+00
        -11   -1    0    0    0    0  0.00000000000E+00  0.00000000000E+00  0.45593999997E+02  0.45594000000E+02  0.51100000000E-03 0. -1.
         11   -1    0    0    0    0 -0.00000000000E+00 -0.00000000000E+00 -0.45593999997E+02  0.45594000000E+02  0.51100000000E-03 0.  1.
    9900012    2    1    2    0    0  0.33094145591E+01 -0.22077465051E+02 -0.33982325085E+02  0.50528866881E+02  0.30000021373E+02 0.  0.
         12    1    1    2    0    0 -0.33094145591E+01  0.22077465051E+02  0.33982325085E+02  0.40659133119E+02  0.00000000000E+00 0. -1.
         11    1    3    3    0    0  0.45310395691E+01  0.42726656071E+01 -0.15405404934E+02  0.16616633005E+02  0.51100000000E-03 0. -1.
        -11    1    3    3    0    0 -0.44481181249E+01 -0.13243809842E+02 -0.13681635049E+02  0.19554319008E+02  0.51100000000E-03 0.  1.
         12    1    3    3    0    0  0.32264931149E+01 -0.13106320816E+02 -0.48952851009E+01  0.14357914869E+02  0.00000000000E+00 0. -1.
</event>
<event>
 7    1  0.2973028E-011  0.5052886E+02  0.7816164E-02  0.1300439E+00
        -11   -1    0    0    0    0  0.00000000000E+00  0.00000000000E+00  0.45593999997E+02  0.45594000000E+02  0.51100000000E-03 0. -1.
         11   -1    0    0    0    0 -0.00000000000E+00 -0.00000000000E+00 -0.45593999997E+02  0.45594000000E+02  0.51100000000E-03 0.  1.
    9900012    2    1    2    0    0  0.33596361820E+02 -0.21905488504E+02 -0.66782910908E+01  0.50528861715E+02  0.30000005670E+02 0.  0.
         12    1    1    2    0    0 -0.33596361820E+02  0.21905488504E+02  0.66782910908E+01  0.40659138285E+02  0.00000000000E+00 0. -1.
         11    1    3    3    0    0 -0.26997013420E+01 -0.36759142189E+01  0.18808118551E+01  0.49333747249E+01  0.51100000000E-03 0. -1.
        -11    1    3    3    0    0  0.31472038709E+02 -0.73235428070E+01 -0.93660310848E+01  0.33642919586E+02  0.51100000000E-03 0.  1.
        -12    1    3    3    0    0  0.48240244537E+01 -0.10906031478E+02  0.80692813890E+00  0.11952567404E+02  0.00000000000E+00 0.  1.
</event>
<event>
 7    1  0.2973028E-011  0.5052886E+02  0.7816164E-02  0.1300439E+00
        -11   -1    0    0    0    0  0.00000000000E+00  0.00000000000E+00  0.45593999997E+02  0.45594000000E+02  0.51100000000E-03 0.  1.
         11   -1    0    0    0    0 -0.00000000000E+00 -0.00000000000E+00 -0.45593999997E+02  0.45594000000E+02  0.51100000000E-03 0. -1.
    9900012    2    1    2    0    0  0.38281344345E+01 -0.36821029635E+02  0.16814365589E+02  0.50528859246E+02  0.29999998165E+02 0.  0.
         12    1    1    2    0    0 -0.38281344345E+01  0.36821029635E+02 -0.16814365589E+02  0.40659140754E+02  0.00000000000E+00 0. -1.
         11    1    3    3    0    0  0.60463405530E+00 -0.64527518453E+01 -0.53651136251E+01  0.84135624553E+01  0.51100000000E-03 0. -1.
        -11    1    3    3    0    0  0.69453225281E+01 -0.30446718238E+02  0.16487291698E+02  0.35313891662E+02  0.51100000000E-03 0.  1.
        -12    1    3    3    0    0 -0.37218221489E+01  0.78440448356E-01  0.56921875163E+01  0.68014051293E+01  0.00000000000E+00 0.  1.
</event>
<event>
 7    1  0.2973028E-011  0.5052886E+02  0.7816164E-02  0.1300439E+00
        -11   -1    0    0    0    0  0.00000000000E+00  0.00000000000E+00  0.45593999997E+02  0.45594000000E+02  0.51100000000E-03 0.  1.
         11   -1    0    0    0    0 -0.00000000000E+00 -0.00000000000E+00 -0.45593999997E+02  0.45594000000E+02  0.51100000000E-03 0. -1.
    9900012    2    1    2    0    0 -0.28939067028E+02 -0.20863685117E+02  0.19503907903E+02  0.50528863504E+02  0.30000011108E+02 0.  0.
         12    1    1    2    0    0  0.28939067028E+02  0.20863685117E+02 -0.19503907903E+02  0.40659136496E+02  0.00000000000E+00 0. -1.
         11    1    3    3    0    0 -0.18331562622E+02  0.14865245702E+01  0.23897314770E+01  0.18546340886E+02  0.51100000000E-03 0. -1.
        -11    1    3    3    0    0 -0.84861107420E+00 -0.84284665305E+01  0.95139567027E+00  0.85243382613E+01  0.51100000000E-03 0.  1.
         12    1    3    3    0    0 -0.97588933315E+01 -0.13921743157E+02  0.16162780756E+02  0.23458184357E+02  0.00000000000E+00 0. -1.
</event>
<event>
 7    1  0.2973028E-011  0.5052886E+02  0.7816164E-02  0.1300439E+00
        -11   -1    0    0    0    0  0.00000000000E+00  0.00000000000E+00  0.45593999997E+02  0.45594000000E+02  0.51100000000E-03 0. -1.
         11   -1    0    0    0    0 -0.00000000000E+00 -0.00000000000E+00 -0.45593999997E+02  0.45594000000E+02  0.51100000000E-03 0.  1.
    9900012    2    1    2    0    0 -0.35870641252E+01 -0.39014048417E+02 -0.10872094746E+02  0.50528862687E+02  0.30000008623E+02 0.  0.
         12    1    1    2    0    0  0.35870641252E+01  0.39014048417E+02  0.10872094746E+02  0.40659137313E+02  0.00000000000E+00 0. -1.
         11    1    3    3    0    0  0.51987643162E+01 -0.25686439109E+01 -0.66444742816E+01  0.88189636974E+01  0.51100000000E-03 0. -1.
        -11    1    3    3    0    0 -0.68604467890E+01 -0.28844343241E+02  0.44873987653E+01  0.29986640610E+02  0.51100000000E-03 0.  1.
        -12    1    3    3    0    0 -0.19253816523E+01 -0.76010612651E+01 -0.87150192296E+01  0.11723258380E+02  0.00000000000E+00 0.  1.
</event>
<event>
 7    1  0.2973028E-011  0.5052886E+02  0.7816164E-02  0.1300439E+00
        -11   -1    0    0    0    0  0.00000000000E+00  0.00000000000E+00  0.45593999997E+02  0.45594000000E+02  0.51100000000E-03 0.  1.
         11   -1    0    0    0    0 -0.00000000000E+00 -0.00000000000E+00 -0.45593999997E+02  0.45594000000E+02  0.51100000000E-03 0. -1.
    9900012    2    1    2    0    0 -0.27363653235E+02  0.29969544047E+00  0.30071688636E+02  0.50528858431E+02  0.29999995687E+02 0.  0.
         12    1    1    2    0    0  0.27363653235E+02 -0.29969544047E+00 -0.30071688636E+02  0.40659141569E+02  0.00000000000E+00 0. -1.
         11    1    3    3    0    0 -0.61311602124E+01  0.83761492366E+01  0.11256803483E+02  0.15312303109E+02  0.51100000000E-03 0. -1.
        -11    1    3    3    0    0 -0.28504677614E+01 -0.78318575406E+01 -0.75214646703E+00  0.83683262104E+01  0.51100000000E-03 0.  1.
        -12    1    3    3    0    0 -0.18382025261E+02 -0.24459625556E+00  0.19567031620E+02  0.26848229112E+02  0.00000000000E+00 0.  1.
</event>
<event>
 7    1  0.2973028E-011  0.5052886E+02  0.7816164E-02  0.1300439E+00
        -11   -1    0    0    0    0  0.00000000000E+00  0.00000000000E+00  0.45593999997E+02  0.45594000000E+02  0.51100000000E-03 0.  1.
         11   -1    0    0    0    0 -0.00000000000E+00 -0.00000000000E+00 -0.45593999997E+02  0.45594000000E+02  0.51100000000E-03 0. -1.
    9900012    2    1    2    0    0 -0.34278069544E+02 -0.16132335449E+02  0.14762356687E+02  0.50528862359E+02  0.30000007628E+02 0.  0.
         12    1    1    2    0    0  0.34278069544E+02  0.16132335449E+02 -0.14762356687E+02  0.40659137641E+02  0.00000000000E+00 0. -1.
         11    1    3    3    0    0 -0.28206043310E+02 -0.15196688534E+02  0.12051916798E+01  0.32062013487E+02  0.51100000000E-03 0. -1.
        -11    1    3    3    0    0 -0.49073991379E+01  0.41508036622E+01  0.39785615421E+01  0.75591460858E+01  0.51100000000E-03 0.  1.
         12    1    3    3    0    0 -0.11646270967E+01 -0.50864505775E+01  0.95786034647E+01  0.10907702787E+02  0.00000000000E+00 0. -1.
</event>
<event>
 7    1  0.2973028E-011  0.5052880E+02  0.7816164E-02  0.1300439E+00
        -11   -1    0    0    0    0  0.00000000000E+00  0.00000000000E+00  0.45593999997E+02  0.45594000000E+02  0.51100000000E-03 0.  1.
         11   -1    0    0    0    0 -0.00000000000E+00 -0.00000000000E+00 -0.45593999997E+02  0.45594000000E+02  0.51100000000E-03 0. -1.
    9900012    2    1    2    0    0 -0.23690495180E+02 -0.28391980144E+02  0.16906400030E+02  0.50528801036E+02  0.29999821230E+02 0.  0.
         12    1    1    2    0    0  0.23690495180E+02  0.28391980144E+02 -0.16906400030E+02  0.40659198964E+02  0.00000000000E+00 0. -1.
         11    1    3    3    0    0  0.20795836142E+01 -0.74368471710E+00  0.22504861679E+01  0.31531608300E+01  0.51100000000E-03 0. -1.
        -11    1    3    3    0    0 -0.19463719761E+02 -0.22260120865E+02  0.21550811243E+02  0.36589436089E+02  0.51100000000E-03 0.  1.
        -12    1    3    3    0    0 -0.63063590340E+01 -0.53881745621E+01 -0.68948973804E+01  0.10786204117E+02  0.00000000000E+00 0.  1.
</event>
<event>
 7    1  0.2973028E-011  0.5052884E+02  0.7816164E-02  0.1300439E+00
        -11   -1    0    0    0    0  0.00000000000E+00  0.00000000000E+00  0.45593999997E+02  0.45594000000E+02  0.51100000000E-03 0.  1.
         11   -1    0    0    0    0 -0.00000000000E+00 -0.00000000000E+00 -0.45593999997E+02  0.45594000000E+02  0.51100000000E-03 0. -1.
    9900012    2    1    2    0    0  0.31340537766E+00 -0.13862398361E+02  0.38221765782E+02  0.50528835096E+02  0.29999924757E+02 0.  0.
         12    1    1    2    0    0 -0.31340537766E+00  0.13862398361E+02 -0.38221765782E+02  0.40659164904E+02  0.00000000000E+00 0. -1.
         11    1    3    3    0    0  0.16618148411E+01 -0.74441695184E+01  0.74452652725E+01  0.10658764639E+02  0.51100000000E-03 0. -1.
        -11    1    3    3    0    0  0.21663642393E+01  0.82997140290E+01  0.18473685503E+02  0.20368000474E+02  0.51100000000E-03 0.  1.
        -12    1    3    3    0    0 -0.35147737027E+01 -0.14717942871E+02  0.12302815006E+02  0.19502069983E+02  0.00000000000E+00 0.  1.
</event>
<event>
 7    1  0.2973028E-011  0.5052886E+02  0.7816164E-02  0.1300439E+00
        -11   -1    0    0    0    0  0.00000000000E+00  0.00000000000E+00  0.45593999997E+02  0.45594000000E+02  0.51100000000E-03 0. -1.
         11   -1    0    0    0    0 -0.00000000000E+00 -0.00000000000E+00 -0.45593999997E+02  0.45594000000E+02  0.51100000000E-03 0.  1.
    9900012    2    1    2    0    0 -0.27185476246E+02  0.29530632128E+02  0.64851598995E+01  0.50528860173E+02  0.30000000981E+02 0.  0.
         12    1    1    2    0    0  0.27185476246E+02 -0.29530632128E+02 -0.64851598995E+01  0.40659139827E+02  0.00000000000E+00 0. -1.
         11    1    3    3    0    0 -0.30950373038E+01 -0.35636958201E+01  0.16155133803E+01  0.49888944220E+01  0.51100000000E-03 0. -1.
        -11    1    3    3    0    0 -0.18094832261E+02  0.33977674316E+02  0.13232752123E+01  0.38518260138E+02  0.51100000000E-03 0.  1.
        -12    1    3    3    0    0 -0.59956066805E+01 -0.88334636799E+00  0.35463713069E+01  0.70217056133E+01  0.00000000000E+00 0.  1.
</event>
<event>
 7    1  0.2973028E-011  0.5052886E+02  0.7816164E-02  0.1300439E+00
        -11   -1    0    0    0    0  0.00000000000E+00  0.00000000000E+00  0.45593999997E+02  0.45594000000E+02  0.51100000000E-03 0.  1.
         11   -1    0    0    0    0 -0.00000000000E+00 -0.00000000000E+00 -0.45593999997E+02  0.45594000000E+02  0.51100000000E-03 0. -1.
    9900012    2    1    2    0    0  0.30838232757E+02 -0.18604258568E+02  0.18869297167E+02  0.50528863118E+02  0.30000009933E+02 0.  0.
         12    1    1    2    0    0 -0.30838232757E+02  0.18604258568E+02 -0.18869297167E+02  0.40659136882E+02  0.00000000000E+00 0. -1.
         11    1    3    3    0    0 -0.11370372870E+01 -0.13413201802E+02  0.88952149353E+01  0.16134797345E+02  0.51100000000E-03 0. -1.
        -11    1    3    3    0    0  0.16688436742E+02 -0.50283959796E+01  0.71930761064E+01  0.18855477484E+02  0.51100000000E-03 0.  1.
         12    1    3    3    0    0  0.15286833302E+02 -0.16266078663E+00  0.27810061253E+01  0.15538588289E+02  0.00000000000E+00 0. -1.
</event>
<event>
 7    1  0.2973028E-011  0.5052888E+02  0.7816164E-02  0.1300439E+00
        -11   -1    0    0    0    0  0.00000000000E+00  0.00000000000E+00  0.45593999997E+02  0.45594000000E+02  0.51100000000E-03 0.  1.
         11   -1    0    0    0    0 -0.00000000000E+00 -0.00000000000E+00 -0.45593999997E+02  0.45594000000E+02  0.51100000000E-03 0. -1.
    9900012    2    1    2    0    0 -0.19441154592E+02  0.35585808329E+02 -0.29758041146E+01  0.50528884707E+02  0.30000075555E+02 0.  0.
         12    1    1    2    0    0  0.19441154592E+02 -0.35585808329E+02  0.29758041146E+01  0.40659115293E+02  0.00000000000E+00 0. -1.
         11    1    3    3    0    0 -0.19073725263E+02  0.20366092372E+02 -0.11540730839E+02  0.30195582168E+02  0.51100000000E-03 0. -1.
        -11    1    3    3    0    0  0.45728500120E+01  0.11036715820E+02  0.50829620517E+01  0.12982933290E+02  0.51100000000E-03 0.  1.
        -12    1    3    3    0    0 -0.49402793417E+01  0.41830001365E+01  0.34819646726E+01  0.73503692490E+01  0.00000000000E+00 0.  1.
</event>
<event>
 7    1  0.2973028E-011  0.5052886E+02  0.7816164E-02  0.1300439E+00
        -11   -1    0    0    0    0  0.00000000000E+00  0.00000000000E+00  0.45593999997E+02  0.45594000000E+02  0.51100000000E-03 0.  1.
         11   -1    0    0    0    0 -0.00000000000E+00 -0.00000000000E+00 -0.45593999997E+02  0.45594000000E+02  0.51100000000E-03 0. -1.
    9900012    2    1    2    0    0 -0.39334064178E+02 -0.89896889983E+01 -0.50182041630E+01  0.50528862207E+02  0.30000007165E+02 0.  0.
         12    1    1    2    0    0  0.39334064178E+02  0.89896889983E+01  0.50182041630E+01  0.40659137793E+02  0.00000000000E+00 0. -1.
         11    1    3    3    0    0 -0.15625917272E+02 -0.97440262144E+01 -0.13420425985E+02  0.22786469041E+02  0.51100000000E-03 0. -1.
        -11    1    3    3    0    0 -0.24656315271E+02  0.21422536410E+01  0.80454535392E+01  0.26024074552E+02  0.51100000000E-03 0.  1.
         12    1    3    3    0    0  0.94816836534E+00 -0.13879164249E+01  0.35676828256E+00  0.17183186139E+01  0.00000000000E+00 0. -1.
</event>
<event>
 7    1  0.2973028E-011  0.5052887E+02  0.7816164E-02  0.1300439E+00
        -11   -1    0    0    0    0  0.00000000000E+00  0.00000000000E+00  0.45593999997E+02  0.45594000000E+02  0.51100000000E-03 0. -1.
         11   -1    0    0    0    0 -0.00000000000E+00 -0.00000000000E+00 -0.45593999997E+02  0.45594000000E+02  0.51100000000E-03 0.  1.
    9900012    2    1    2    0    0 -0.63703446634E+01 -0.37618658015E+02 -0.14050627477E+02  0.50528869974E+02  0.30000030772E+02 0.  0.
         12    1    1    2    0    0  0.63703446634E+01  0.37618658015E+02  0.14050627477E+02  0.40659130026E+02  0.00000000000E+00 0. -1.
         11    1    3    3    0    0 -0.39455040230E+01  0.86390589096E+00  0.46503560766E+01  0.61594762183E+01  0.51100000000E-03 0. -1.
        -11    1    3    3    0    0  0.26389367500E+01 -0.28017063239E+02 -0.10065638759E+02  0.29887069170E+02  0.51100000000E-03 0.  1.
         12    1    3    3    0    0 -0.50637773904E+01 -0.10465500668E+02 -0.86353447943E+01  0.14482324585E+02  0.00000000000E+00 0. -1.
</event>
<event>
 7    1  0.2973028E-011  0.5052888E+02  0.7816164E-02  0.1300439E+00
        -11   -1    0    0    0    0  0.00000000000E+00  0.00000000000E+00  0.45593999997E+02  0.45594000000E+02  0.51100000000E-03 0. -1.
         11   -1    0    0    0    0 -0.00000000000E+00 -0.00000000000E+00 -0.45593999997E+02  0.45594000000E+02  0.51100000000E-03 0.  1.
    9900012    2    1    2    0    0  0.16208130259E+02  0.33991879387E+02 -0.15330130256E+02  0.50528877476E+02  0.30000053577E+02 0.  0.
         12    1    1    2    0    0 -0.16208130259E+02 -0.33991879387E+02  0.15330130256E+02  0.40659122524E+02  0.00000000000E+00 0. -1.
         11    1    3    3    0    0  0.69759253766E+01  0.69180368615E+01 -0.16748443395E+02  0.19417340840E+02  0.51100000000E-03 0. -1.
        -11    1    3    3    0    0  0.93726991869E+01  0.18520074498E+02 -0.37842981651E+01  0.21098852156E+02  0.51100000000E-03 0.  1.
         12    1    3    3    0    0 -0.14049430439E+00  0.85537680276E+01  0.52026113041E+01  0.10012684480E+02  0.00000000000E+00 0. -1.
</event>
<event>
 7    1  0.2973028E-011  0.5052886E+02  0.7816164E-02  0.1300439E+00
        -11   -1    0    0    0    0  0.00000000000E+00  0.00000000000E+00  0.45593999997E+02  0.45594000000E+02  0.51100000000E-03 0.  1.
         11   -1    0    0    0    0 -0.00000000000E+00 -0.00000000000E+00 -0.45593999997E+02  0.45594000000E+02  0.51100000000E-03 0. -1.
    9900012    2    1    2    0    0  0.24041563151E+02  0.32672029612E+02 -0.27761646727E+01  0.50528863659E+02  0.30000011577E+02 0.  0.
         12    1    1    2    0    0 -0.24041563151E+02 -0.32672029612E+02  0.27761646727E+01  0.40659136341E+02  0.00000000000E+00 0. -1.
         11    1    3    3    0    0  0.11863079247E+02  0.23601782344E+02 -0.10308788414E+02  0.28355738358E+02  0.51100000000E-03 0. -1.
        -11    1    3    3    0    0  0.93902816557E+01 -0.11567290493E+01  0.54491540257E+00  0.94769375182E+01  0.51100000000E-03 0.  1.
         12    1    3    3    0    0  0.27882022491E+01  0.10226976317E+02  0.69877083387E+01  0.12696187782E+02  0.00000000000E+00 0. -1.
</event>
<event>
 7    1  0.2973028E-011  0.5052886E+02  0.7816164E-02  0.1300439E+00
        -11   -1    0    0    0    0  0.00000000000E+00  0.00000000000E+00  0.45593999997E+02  0.45594000000E+02  0.51100000000E-03 0.  1.
         11   -1    0    0    0    0 -0.00000000000E+00 -0.00000000000E+00 -0.45593999997E+02  0.45594000000E+02  0.51100000000E-03 0. -1.
    9900012    2    1    2    0    0 -0.54340463474E+01 -0.84842703075E+01  0.39391038872E+02  0.50528860243E+02  0.30000001196E+02 0.  0.
         12    1    1    2    0    0  0.54340463474E+01  0.84842703075E+01 -0.39391038872E+02  0.40659139757E+02  0.00000000000E+00 0. -1.
         11    1    3    3    0    0 -0.52994711216E+01 -0.12842550442E+02  0.52582268067E+01  0.14854778539E+02  0.51100000000E-03 0. -1.
        -11    1    3    3    0    0  0.25930349367E-01 -0.21205332217E+00  0.28114894286E+02  0.28115705931E+02  0.51100000000E-03 0.  1.
         12    1    3    3    0    0 -0.16050557519E+00  0.45703334568E+01  0.60179177787E+01  0.75583757737E+01  0.00000000000E+00 0. -1.
</event>
<event>
 7    1  0.2973028E-011  0.5052886E+02  0.7816164E-02  0.1300439E+00
        -11   -1    0    0    0    0  0.00000000000E+00  0.00000000000E+00  0.45593999997E+02  0.45594000000E+02  0.51100000000E-03 0.  1.
         11   -1    0    0    0    0 -0.00000000000E+00 -0.00000000000E+00 -0.45593999997E+02  0.45594000000E+02  0.51100000000E-03 0. -1.
    9900012    2    1    2    0    0 -0.31144537829E+02 -0.12950997740E+02  0.22703640814E+02  0.50528857298E+02  0.29999992244E+02 0.  0.
         12    1    1    2    0    0  0.31144537829E+02  0.12950997740E+02 -0.22703640814E+02  0.40659142702E+02  0.00000000000E+00 0. -1.
         11    1    3    3    0    0 -0.23092578981E-02 -0.19848941573E+01  0.76352944954E+01  0.78890767800E+01  0.51100000000E-03 0. -1.
        -11    1    3    3    0    0 -0.34560104780E+02 -0.11512700722E+02  0.13754788043E+02  0.38937607973E+02  0.51100000000E-03 0.  1.
        -12    1    3    3    0    0  0.34178762086E+01  0.54659713944E+00  0.13135582752E+01  0.37021725449E+01  0.00000000000E+00 0.  1.
</event>
<event>
 7    1  0.2973028E-011  0.5052886E+02  0.7816164E-02  0.1300439E+00
        -11   -1    0    0    0    0  0.00000000000E+00  0.00000000000E+00  0.45593999997E+02  0.45594000000E+02  0.51100000000E-03 0. -1.
         11   -1    0    0    0    0 -0.00000000000E+00 -0.00000000000E+00 -0.45593999997E+02  0.45594000000E+02  0.51100000000E-03 0.  1.
    9900012    2    1    2    0    0  0.41426502905E+01 -0.31202952010E+02 -0.25736743933E+02  0.50528858915E+02  0.29999997157E+02 0.  0.
         12    1    1    2    0    0 -0.41426502905E+01  0.31202952010E+02  0.25736743933E+02  0.40659141085E+02  0.00000000000E+00 0. -1.
         11    1    3    3    0    0  0.18173322314E+01 -0.26531379570E+01 -0.65791342640E+01  0.73230352575E+01  0.51100000000E-03 0. -1.
        -11    1    3    3    0    0 -0.31046603409E+01 -0.31815457394E+02 -0.13460760039E+02  0.34685073246E+02  0.51100000000E-03 0.  1.
        -12    1    3    3    0    0  0.54299784000E+01  0.32656433412E+01 -0.56968496296E+01  0.85207504106E+01  0.00000000000E+00 0.  1.
</event>
<event>
 7    1  0.2973028E-011  0.5052885E+02  0.7816164E-02  0.1300439E+00
        -11   -1    0    0    0    0  0.00000000000E+00  0.00000000000E+00  0.45593999997E+02  0.45594000000E+02  0.51100000000E-03 0.  1.
         11   -1    0    0    0    0 -0.00000000000E+00 -0.00000000000E+00 -0.45593999997E+02  0.45594000000E+02  0.51100000000E-03 0. -1.
    9900012    2    1    2    0    0 -0.30367862559E+02 -0.97484765786E+01  0.25217577677E+02  0.50528854708E+02  0.29999984370E+02 0.  0.
         12    1    1    2    0    0  0.30367862559E+02  0.97484765786E+01 -0.25217577677E+02  0.40659145292E+02  0.00000000000E+00 0. -1.
         11    1    3    3    0    0  0.27572280786E-02 -0.67089503413E+00 -0.19903094847E+01  0.21003427947E+01  0.51100000000E-03 0. -1.
        -11    1    3    3    0    0 -0.17689364949E+02 -0.17402172873E+02  0.18350684766E+02  0.30862548253E+02  0.51100000000E-03 0.  1.
        -12    1    3    3    0    0 -0.12681254838E+02  0.83245913286E+01  0.88572023952E+01  0.17565963660E+02  0.00000000000E+00 0.  1.
</event>
<event>
 7    1  0.2973028E-011  0.5052886E+02  0.7816164E-02  0.1300439E+00
        -11   -1    0    0    0    0  0.00000000000E+00  0.00000000000E+00  0.45593999997E+02  0.45594000000E+02  0.51100000000E-03 0.  1.
         11   -1    0    0    0    0 -0.00000000000E+00 -0.00000000000E+00 -0.45593999997E+02  0.45594000000E+02  0.51100000000E-03 0. -1.
    9900012    2    1    2    0    0 -0.18616108569E+02 -0.10687569075E+02  0.34530880319E+02  0.50528864169E+02  0.30000013128E+02 0.  0.
         12    1    1    2    0    0  0.18616108569E+02  0.10687569075E+02 -0.34530880319E+02  0.40659135831E+02  0.00000000000E+00 0. -1.
         11    1    3    3    0    0 -0.61477260887E+01 -0.51014433687E+01  0.47786099250E+01  0.93088330946E+01  0.51100000000E-03 0. -1.
        -11    1    3    3    0    0  0.52941426217E+01  0.17326640920E+00  0.18887702882E+02  0.19616403538E+02  0.51100000000E-03 0.  1.
        -12    1    3    3    0    0 -0.17762525102E+02 -0.57593921153E+01  0.10864567512E+02  0.21603627537E+02  0.00000000000E+00 0.  1.
</event>
<event>
 7    1  0.2973028E-011  0.5052887E+02  0.7816164E-02  0.1300439E+00
        -11   -1    0    0    0    0  0.00000000000E+00  0.00000000000E+00  0.45593999997E+02  0.45594000000E+02  0.51100000000E-03 0.  1.
         11   -1    0    0    0    0 -0.00000000000E+00 -0.00000000000E+00 -0.45593999997E+02  0.45594000000E+02  0.51100000000E-03 0. -1.
    9900012    2    1    2    0    0  0.27747408429E+02 -0.29165987727E+02 -0.57088870750E+01  0.50528869337E+02  0.30000028837E+02 0.  0.
         12    1    1    2    0    0 -0.27747408429E+02  0.29165987727E+02  0.57088870750E+01  0.40659130663E+02  0.00000000000E+00 0. -1.
         11    1    3    3    0    0 -0.24329727316E+01  0.15367605604E+01  0.73766119072E+00  0.29707126462E+01  0.51100000000E-03 0. -1.
        -11    1    3    3    0    0  0.28867158588E+02 -0.17962990070E+02 -0.22225211852E+01  0.34072297514E+02  0.51100000000E-03 0.  1.
         12    1    3    3    0    0  0.13132225734E+01 -0.12739758218E+02 -0.42240270805E+01  0.13485859177E+02  0.00000000000E+00 0. -1.
</event>
<event>
 7    1  0.2973028E-011  0.5052886E+02  0.7816164E-02  0.1300439E+00
        -11   -1    0    0    0    0  0.00000000000E+00  0.00000000000E+00  0.45593999997E+02  0.45594000000E+02  0.51100000000E-03 0.  1.
         11   -1    0    0    0    0 -0.00000000000E+00 -0.00000000000E+00 -0.45593999997E+02  0.45594000000E+02  0.51100000000E-03 0. -1.
    9900012    2    1    2    0    0 -0.34042815762E+02 -0.13730958860E+02  0.17484651997E+02  0.50528860908E+02  0.30000003217E+02 0.  0.
         12    1    1    2    0    0  0.34042815762E+02  0.13730958860E+02 -0.17484651997E+02  0.40659139092E+02  0.00000000000E+00 0. -1.
         11    1    3    3    0    0 -0.42177116472E+01 -0.82513872244E+01  0.60949069313E+00  0.92868704003E+01  0.51100000000E-03 0. -1.
        -11    1    3    3    0    0 -0.26961420861E+02 -0.84139365530E+01  0.21175440331E+02  0.35300309016E+02  0.51100000000E-03 0.  1.
        -12    1    3    3    0    0 -0.28636832533E+01  0.29343649170E+01 -0.43002790271E+01  0.59416814920E+01  0.00000000000E+00 0.  1.
</event>
<event>
 7    1  0.2973028E-011  0.5052888E+02  0.7816164E-02  0.1300439E+00
        -11   -1    0    0    0    0  0.00000000000E+00  0.00000000000E+00  0.45593999997E+02  0.45594000000E+02  0.51100000000E-03 0.  1.
         11   -1    0    0    0    0 -0.00000000000E+00 -0.00000000000E+00 -0.45593999997E+02  0.45594000000E+02  0.51100000000E-03 0. -1.
    9900012    2    1    2    0    0 -0.13088708660E+02 -0.35927118951E+02  0.13823593579E+02  0.50528881589E+02  0.30000066079E+02 0.  0.
         12    1    1    2    0    0  0.13088708660E+02  0.35927118951E+02 -0.13823593579E+02  0.40659118411E+02  0.00000000000E+00 0. -1.
         11    1    3    3    0    0  0.22823457520E+00 -0.53030985024E+01 -0.24972834979E+01  0.58661205133E+01  0.51100000000E-03 0. -1.
        -11    1    3    3    0    0 -0.16676259407E+01 -0.24826367837E+02  0.19086788746E+02  0.31359767556E+02  0.51100000000E-03 0.  1.
        -12    1    3    3    0    0 -0.11649317295E+02 -0.57976526111E+01 -0.27659116689E+01  0.13302993520E+02  0.00000000000E+00 0.  1.
</event>
<event>
 7    1  0.2973028E-011  0.5052887E+02  0.7816164E-02  0.1300439E+00
        -11   -1    0    0    0    0  0.00000000000E+00  0.00000000000E+00  0.45593999997E+02  0.45594000000E+02  0.51100000000E-03 0. -1.
         11   -1    0    0    0    0 -0.00000000000E+00 -0.00000000000E+00 -0.45593999997E+02  0.45594000000E+02  0.51100000000E-03 0.  1.
    9900012    2    1    2    0    0 -0.52055997173E+01  0.40103192906E+02 -0.42190193792E+01  0.50528874650E+02  0.30000044986E+02 0.  0.
         12    1    1    2    0    0  0.52055997173E+01 -0.40103192906E+02  0.42190193792E+01  0.40659125350E+02  0.00000000000E+00 0. -1.
         11    1    3    3    0    0 -0.94002338903E+00  0.11102965008E+02  0.12411841410E+02  0.16679726718E+02  0.51100000000E-03 0. -1.
        -11    1    3    3    0    0 -0.21315494951E+01  0.14527369619E+02 -0.65177457341E+01  0.16064525545E+02  0.51100000000E-03 0.  1.
         12    1    3    3    0    0 -0.21340268332E+01  0.14472858280E+02 -0.10113115055E+02  0.17784622387E+02  0.00000000000E+00 0. -1.
</event>
<event>
 7    1  0.2973028E-011  0.5052888E+02  0.7816164E-02  0.1300439E+00
        -11   -1    0    0    0    0  0.00000000000E+00  0.00000000000E+00  0.45593999997E+02  0.45594000000E+02  0.51100000000E-03 0.  1.
         11   -1    0    0    0    0 -0.00000000000E+00 -0.00000000000E+00 -0.45593999997E+02  0.45594000000E+02  0.51100000000E-03 0. -1.
    9900012    2    1    2    0    0  0.30922266079E+02  0.47547786698E+01  0.25968628788E+02  0.50528878751E+02  0.30000057451E+02 0.  0.
         12    1    1    2    0    0 -0.30922266079E+02 -0.47547786698E+01 -0.25968628788E+02  0.40659121249E+02  0.00000000000E+00 0. -1.
         11    1    3    3    0    0 -0.39276526621E+01  0.25880817145E+01 -0.21514420307E+01  0.51723616915E+01  0.51100000000E-03 0. -1.
        -11    1    3    3    0    0  0.17739071881E+02  0.39033320378E+01  0.11891433410E+02  0.21709833279E+02  0.51100000000E-03 0.  1.
         12    1    3    3    0    0  0.17110846860E+02 -0.17366350824E+01  0.16228637409E+02  0.23646683781E+02  0.00000000000E+00 0. -1.
</event>
<event>
 7    1  0.2973028E-011  0.5052886E+02  0.7816164E-02  0.1300439E+00
        -11   -1    0    0    0    0  0.00000000000E+00  0.00000000000E+00  0.45593999997E+02  0.45594000000E+02  0.51100000000E-03 0.  1.
         11   -1    0    0    0    0 -0.00000000000E+00 -0.00000000000E+00 -0.45593999997E+02  0.45594000000E+02  0.51100000000E-03 0. -1.
    9900012    2    1    2    0    0 -0.15661398621E+02  0.30734430540E+01  0.37395722070E+02  0.50528862182E+02  0.30000007089E+02 0.  0.
         12    1    1    2    0    0  0.15661398621E+02 -0.30734430540E+01 -0.37395722070E+02  0.40659137818E+02  0.00000000000E+00 0. -1.
         11    1    3    3    0    0  0.36345487681E+01 -0.33651169753E+00  0.17808423478E+02  0.18178644941E+02  0.51100000000E-03 0. -1.
        -11    1    3    3    0    0 -0.20992478399E+02  0.62097174383E+00  0.12234696463E+02  0.24305504584E+02  0.51100000000E-03 0.  1.
        -12    1    3    3    0    0  0.16965310099E+01  0.27889830077E+01  0.73526021286E+01  0.80447126578E+01  0.00000000000E+00 0.  1.
</event>
<event>
 7    1  0.2973028E-011  0.5052886E+02  0.7816164E-02  0.1300439E+00
        -11   -1    0    0    0    0  0.00000000000E+00  0.00000000000E+00  0.45593999997E+02  0.45594000000E+02  0.51100000000E-03 0.  1.
         11   -1    0    0    0    0 -0.00000000000E+00 -0.00000000000E+00 -0.45593999997E+02  0.45594000000E+02  0.51100000000E-03 0. -1.
    9900012    2    1    2    0    0 -0.24070355188E+02 -0.14312908216E+02 -0.29477523548E+02  0.50528859145E+02  0.29999997858E+02 0.  0.
         12    1    1    2    0    0  0.24070355188E+02  0.14312908216E+02  0.29477523548E+02  0.40659140855E+02  0.00000000000E+00 0. -1.
         11    1    3    3    0    0 -0.69833875468E+01 -0.74226701042E+01  0.43390689088E+01  0.11076608342E+02  0.51100000000E-03 0. -1.
        -11    1    3    3    0    0 -0.86405429364E+01 -0.30527680685E+01 -0.85379339384E+01  0.12524962727E+02  0.51100000000E-03 0.  1.
         12    1    3    3    0    0 -0.84464247053E+01 -0.38374700435E+01 -0.25278658519E+02  0.26927288076E+02  0.00000000000E+00 0. -1.
</event>
<event>
 7    1  0.2973028E-011  0.5052886E+02  0.7816164E-02  0.1300439E+00
        -11   -1    0    0    0    0  0.00000000000E+00  0.00000000000E+00  0.45593999997E+02  0.45594000000E+02  0.51100000000E-03 0.  1.
         11   -1    0    0    0    0 -0.00000000000E+00 -0.00000000000E+00 -0.45593999997E+02  0.45594000000E+02  0.51100000000E-03 0. -1.
    9900012    2    1    2    0    0  0.42930662523E+01 -0.40305024916E+02 -0.32000124158E+01  0.50528861657E+02  0.30000005492E+02 0.  0.
         12    1    1    2    0    0 -0.42930662523E+01  0.40305024916E+02  0.32000124158E+01  0.40659138343E+02  0.00000000000E+00 0. -1.
         11    1    3    3    0    0  0.47392345830E+01 -0.89830594707E+01 -0.33919424774E+01  0.10707986548E+02  0.51100000000E-03 0. -1.
        -11    1    3    3    0    0 -0.60091434919E+01 -0.29680778145E+02  0.67911358367E+01  0.31035107910E+02  0.51100000000E-03 0.  1.
        -12    1    3    3    0    0  0.55629751612E+01 -0.16411873008E+01 -0.65992057751E+01  0.87857671983E+01  0.00000000000E+00 0.  1.
</event>
<event>
 7    1  0.2973028E-011  0.5052886E+02  0.7816164E-02  0.1300439E+00
        -11   -1    0    0    0    0  0.00000000000E+00  0.00000000000E+00  0.45593999997E+02  0.45594000000E+02  0.51100000000E-03 0.  1.
         11   -1    0    0    0    0 -0.00000000000E+00 -0.00000000000E+00 -0.45593999997E+02  0.45594000000E+02  0.51100000000E-03 0. -1.
    9900012    2    1    2    0    0  0.53437252613E+01 -0.36948113651E+02  0.16107372891E+02  0.50528856336E+02  0.29999989318E+02 0.  0.
         12    1    1    2    0    0 -0.53437252613E+01  0.36948113651E+02 -0.16107372891E+02  0.40659143664E+02  0.00000000000E+00 0. -1.
         11    1    3    3    0    0  0.62555410071E+01 -0.14779721736E+02 -0.42461852428E+01  0.16601266737E+02  0.51100000000E-03 0. -1.
        -11    1    3    3    0    0  0.53722222207E+01 -0.18186408763E+02  0.17944836153E+02  0.26107917958E+02  0.51100000000E-03 0.  1.
         12    1    3    3    0    0 -0.62840379665E+01 -0.39819831525E+01  0.24087219804E+01  0.78196716408E+01  0.00000000000E+00 0. -1.
</event>
<event>
 7    1  0.2973028E-011  0.5052886E+02  0.7816164E-02  0.1300439E+00
        -11   -1    0    0    0    0  0.00000000000E+00  0.00000000000E+00  0.45593999997E+02  0.45594000000E+02  0.51100000000E-03 0.  1.
         11   -1    0    0    0    0 -0.00000000000E+00 -0.00000000000E+00 -0.45593999997E+02  0.45594000000E+02  0.51100000000E-03 0. -1.
    9900012    2    1    2    0    0 -0.22592714424E+02 -0.34413762942E+01  0.33628734047E+02  0.50528861182E+02  0.30000004048E+02 0.  0.
         12    1    1    2    0    0  0.22592714424E+02  0.34413762942E+01 -0.33628734047E+02  0.40659138818E+02  0.00000000000E+00 0. -1.
         11    1    3    3    0    0 -0.56842598141E+01 -0.35802804360E+01 -0.41566771389E+01  0.78998216900E+01  0.51100000000E-03 0. -1.
        -11    1    3    3    0    0 -0.80909154625E+00 -0.27337509742E+01  0.98965842379E+01  0.10299048663E+02  0.51100000000E-03 0.  1.
         12    1    3    3    0    0 -0.16099363064E+02  0.28726551160E+01  0.27888826948E+02  0.32329990829E+02  0.00000000000E+00 0. -1.
</event>
<event>
 7    1  0.2973028E-011  0.5052888E+02  0.7816164E-02  0.1300439E+00
        -11   -1    0    0    0    0  0.00000000000E+00  0.00000000000E+00  0.45593999997E+02  0.45594000000E+02  0.51100000000E-03 0. -1.
         11   -1    0    0    0    0 -0.00000000000E+00 -0.00000000000E+00 -0.45593999997E+02  0.45594000000E+02  0.51100000000E-03 0.  1.
    9900012    2    1    2    0    0 -0.23331586103E+02  0.14264581154E+02 -0.30088582840E+02  0.50528880447E+02  0.30000062606E+02 0.  0.
         12    1    1    2    0    0  0.23331586103E+02 -0.14264581154E+02  0.30088582840E+02  0.40659119553E+02  0.00000000000E+00 0. -1.
         11    1    3    3    0    0 -0.12057378359E+01  0.14089829924E+02 -0.16671387066E+01  0.14239257802E+02  0.51100000000E-03 0. -1.
        -11    1    3    3    0    0 -0.12198624986E+02  0.13961780669E+01 -0.12770120149E+02  0.17715296600E+02  0.51100000000E-03 0.  1.
         12    1    3    3    0    0 -0.99272232810E+01 -0.12214268367E+01 -0.15651323984E+02  0.18574326045E+02  0.00000000000E+00 0. -1.
</event>
<event>
 7    1  0.2973028E-011  0.5052886E+02  0.7816164E-02  0.1300439E+00
        -11   -1    0    0    0    0  0.00000000000E+00  0.00000000000E+00  0.45593999997E+02  0.45594000000E+02  0.51100000000E-03 0.  1.
         11   -1    0    0    0    0 -0.00000000000E+00 -0.00000000000E+00 -0.45593999997E+02  0.45594000000E+02  0.51100000000E-03 0. -1.
    9900012    2    1    2    0    0 -0.12263401425E+02 -0.37295348540E+02  0.10575055067E+02  0.50528858016E+02  0.29999994424E+02 0.  0.
         12    1    1    2    0    0  0.12263401425E+02  0.37295348540E+02 -0.10575055067E+02  0.40659141984E+02  0.00000000000E+00 0. -1.
         11    1    3    3    0    0 -0.11388329179E+02 -0.19643318055E+02  0.99544876459E+01  0.24792051352E+02  0.51100000000E-03 0. -1.
        -11    1    3    3    0    0  0.64397761295E-02  0.11766925999E+01 -0.57275675358E+01  0.58471939495E+01  0.51100000000E-03 0.  1.
        -12    1    3    3    0    0 -0.88151202150E+00 -0.18828723085E+02  0.63481349570E+01  0.19889612714E+02  0.00000000000E+00 0.  1.
</event>
<event>
 7    1  0.2973028E-011  0.5052886E+02  0.7816164E-02  0.1300439E+00
        -11   -1    0    0    0    0  0.00000000000E+00  0.00000000000E+00  0.45593999997E+02  0.45594000000E+02  0.51100000000E-03 0.  1.
         11   -1    0    0    0    0 -0.00000000000E+00 -0.00000000000E+00 -0.45593999997E+02  0.45594000000E+02  0.51100000000E-03 0. -1.
    9900012    2    1    2    0    0  0.73494460594E+01  0.27216042534E+02  0.29299117276E+02  0.50528860784E+02  0.30000002840E+02 0.  0.
         12    1    1    2    0    0 -0.73494460594E+01 -0.27216042534E+02 -0.29299117276E+02  0.40659139216E+02  0.00000000000E+00 0. -1.
         11    1    3    3    0    0 -0.10031032365E+02  0.10271803958E+02  0.12666357088E+02  0.19145970045E+02  0.51100000000E-03 0. -1.
        -11    1    3    3    0    0  0.12924089556E+02  0.13751718853E+02  0.66778272449E+01  0.20018372542E+02  0.51100000000E-03 0.  1.
         12    1    3    3    0    0  0.44563888686E+01  0.31925197237E+01  0.99549329438E+01  0.11364518197E+02  0.00000000000E+00 0. -1.
</event>
<event>
 7    1  0.2973028E-011  0.5052886E+02  0.7816164E-02  0.1300439E+00
        -11   -1    0    0    0    0  0.00000000000E+00  0.00000000000E+00  0.45593999997E+02  0.45594000000E+02  0.51100000000E-03 0.  1.
         11   -1    0    0    0    0 -0.00000000000E+00 -0.00000000000E+00 -0.45593999997E+02  0.45594000000E+02  0.51100000000E-03 0. -1.
    9900012    2    1    2    0    0  0.76420605836E+01 -0.25166096602E+02  0.31006966672E+02  0.50528862155E+02  0.30000007006E+02 0.  0.
         12    1    1    2    0    0 -0.76420605836E+01  0.25166096602E+02 -0.31006966672E+02  0.40659137845E+02  0.00000000000E+00 0. -1.
         11    1    3    3    0    0 -0.66419355760E+00 -0.20198703697E+02  0.57674723332E+01  0.21016482139E+02  0.51100000000E-03 0. -1.
        -11    1    3    3    0    0  0.96040411644E+00 -0.25874444471E+01  0.19979665805E+02  0.20169389946E+02  0.51100000000E-03 0.  1.
         12    1    3    3    0    0  0.73458500248E+01 -0.23799484575E+01  0.52598285329E+01  0.93429900697E+01  0.00000000000E+00 0. -1.
</event>
<event>
 7    1  0.2973028E-011  0.5052885E+02  0.7816164E-02  0.1300439E+00
        -11   -1    0    0    0    0  0.00000000000E+00  0.00000000000E+00  0.45593999997E+02  0.45594000000E+02  0.51100000000E-03 0. -1.
         11   -1    0    0    0    0 -0.00000000000E+00 -0.00000000000E+00 -0.45593999997E+02  0.45594000000E+02  0.51100000000E-03 0.  1.
    9900012    2    1    2    0    0 -0.22868063002E+01  0.15474374914E+01 -0.40565282094E+02  0.50528853953E+02  0.29999982077E+02 0.  0.
         12    1    1    2    0    0  0.22868063002E+01 -0.15474374914E+01  0.40565282094E+02  0.40659146047E+02  0.00000000000E+00 0. -1.
         11    1    3    3    0    0 -0.12775976559E+01  0.14364920257E+02 -0.14280025024E+02  0.20295376437E+02  0.51100000000E-03 0. -1.
        -11    1    3    3    0    0 -0.91664306428E+00 -0.60686435546E+01 -0.20316815845E+02  0.21223611273E+02  0.51100000000E-03 0.  1.
         12    1    3    3    0    0 -0.92565579983E-01 -0.67488392109E+01 -0.59684412250E+01  0.90098662441E+01  0.00000000000E+00 0. -1.
</event>
<event>
 7    1  0.2973028E-011  0.5052886E+02  0.7816164E-02  0.1300439E+00
        -11   -1    0    0    0    0  0.00000000000E+00  0.00000000000E+00  0.45593999997E+02  0.45594000000E+02  0.51100000000E-03 0. -1.
         11   -1    0    0    0    0 -0.00000000000E+00 -0.00000000000E+00 -0.45593999997E+02  0.45594000000E+02  0.51100000000E-03 0.  1.
    9900012    2    1    2    0    0 -0.96488223543E+01 -0.32964868595E+02 -0.21757366610E+02  0.50528864051E+02  0.30000012770E+02 0.  0.
         12    1    1    2    0    0  0.96488223543E+01  0.32964868595E+02  0.21757366610E+02  0.40659135949E+02  0.00000000000E+00 0. -1.
         11    1    3    3    0    0 -0.27724348562E+01 -0.16198281017E+02 -0.39297655713E+01  0.16897152442E+02  0.51100000000E-03 0. -1.
        -11    1    3    3    0    0 -0.68556757185E+01 -0.10948829290E+02 -0.22650147057E+02  0.26075013218E+02  0.51100000000E-03 0.  1.
        -12    1    3    3    0    0 -0.20711779581E-01 -0.58177582881E+01  0.48225460184E+01  0.75566983912E+01  0.00000000000E+00 0.  1.
</event>
<event>
 7    1  0.2973028E-011  0.5052886E+02  0.7816164E-02  0.1300439E+00
        -11   -1    0    0    0    0  0.00000000000E+00  0.00000000000E+00  0.45593999997E+02  0.45594000000E+02  0.51100000000E-03 0.  1.
         11   -1    0    0    0    0 -0.00000000000E+00 -0.00000000000E+00 -0.45593999997E+02  0.45594000000E+02  0.51100000000E-03 0. -1.
    9900012    2    1    2    0    0  0.60155828202E+01 -0.85777132773E+01  0.39286146351E+02  0.50528859615E+02  0.29999999284E+02 0.  0.
         12    1    1    2    0    0 -0.60155828202E+01  0.85777132773E+01 -0.39286146351E+02  0.40659140385E+02  0.00000000000E+00 0. -1.
         11    1    3    3    0    0  0.73171775362E+01 -0.99604786850E+01  0.15269139787E+02  0.19644308408E+02  0.51100000000E-03 0. -1.
        -11    1    3    3    0    0 -0.31755560237E+01  0.99812760160E+01  0.14899060581E+02  0.18212414267E+02  0.51100000000E-03 0.  1.
        -12    1    3    3    0    0  0.18739613078E+01 -0.85985106083E+01  0.91179459836E+01  0.12672136940E+02  0.00000000000E+00 0.  1.
</event>
<event>
 7    1  0.2973028E-011  0.5052886E+02  0.7816164E-02  0.1300439E+00
        -11   -1    0    0    0    0  0.00000000000E+00  0.00000000000E+00  0.45593999997E+02  0.45594000000E+02  0.51100000000E-03 0.  1.
         11   -1    0    0    0    0 -0.00000000000E+00 -0.00000000000E+00 -0.45593999997E+02  0.45594000000E+02  0.51100000000E-03 0. -1.
    9900012    2    1    2    0    0  0.28423027226E+01 -0.79804092466E+01  0.39766817395E+02  0.50528863483E+02  0.30000011044E+02 0.  0.
         12    1    1    2    0    0 -0.28423027226E+01  0.79804092466E+01 -0.39766817395E+02  0.40659136517E+02  0.00000000000E+00 0. -1.
         11    1    3    3    0    0 -0.11047939075E+01  0.27012830243E+00  0.48423747867E+01  0.49741464307E+01  0.51100000000E-03 0. -1.
        -11    1    3    3    0    0  0.48047187565E+01 -0.16189139148E+02  0.33399049406E+02  0.37425526719E+02  0.51100000000E-03 0.  1.
        -12    1    3    3    0    0 -0.85762212640E+00  0.79386015994E+01  0.15253932031E+01  0.81291903342E+01  0.00000000000E+00 0.  1.
</event>
<event>
 7    1  0.2973028E-011  0.5052887E+02  0.7816164E-02  0.1300439E+00
        -11   -1    0    0    0    0  0.00000000000E+00  0.00000000000E+00  0.45593999997E+02  0.45594000000E+02  0.51100000000E-03 0. -1.
         11   -1    0    0    0    0 -0.00000000000E+00 -0.00000000000E+00 -0.45593999997E+02  0.45594000000E+02  0.51100000000E-03 0.  1.
    9900012    2    1    2    0    0  0.15705725059E+02 -0.33978033648E+01 -0.37349034078E+02  0.50528865554E+02  0.30000017338E+02 0.  0.
         12    1    1    2    0    0 -0.15705725059E+02  0.33978033648E+01  0.37349034078E+02  0.40659134446E+02  0.00000000000E+00 0. -1.
         11    1    3    3    0    0 -0.56749604883E+01 -0.94240616381E+01 -0.75890311734E+01  0.13364561673E+02  0.51100000000E-03 0. -1.
        -11    1    3    3    0    0  0.16248579159E+02  0.44054436680E+01 -0.23514126140E+02  0.28919515677E+02  0.51100000000E-03 0.  1.
         12    1    3    3    0    0  0.51321063889E+01  0.16208146053E+01 -0.62458767645E+01  0.82447882040E+01  0.00000000000E+00 0. -1.
</event>
<event>
 7    1  0.2973028E-011  0.5052884E+02  0.7816164E-02  0.1300439E+00
        -11   -1    0    0    0    0  0.00000000000E+00  0.00000000000E+00  0.45593999997E+02  0.45594000000E+02  0.51100000000E-03 0. -1.
         11   -1    0    0    0    0 -0.00000000000E+00 -0.00000000000E+00 -0.45593999997E+02  0.45594000000E+02  0.51100000000E-03 0.  1.
    9900012    2    1    2    0    0  0.27323524400E+02  0.14961829058E+01 -0.30072468114E+02  0.50528844974E+02  0.29999954784E+02 0.  0.
         12    1    1    2    0    0 -0.27323524400E+02 -0.14961829058E+01  0.30072468114E+02  0.40659155026E+02  0.00000000000E+00 0. -1.
         11    1    3    3    0    0  0.12215956417E+02  0.96768344515E+01 -0.47726080806E+01  0.16298727077E+02  0.51100000000E-03 0. -1.
        -11    1    3    3    0    0  0.16617247853E+02 -0.76838252848E+01 -0.26520641003E+02  0.32226053073E+02  0.51100000000E-03 0.  1.
         12    1    3    3    0    0 -0.15096798702E+01 -0.49682626091E+00  0.12207809690E+01  0.20040648239E+01  0.00000000000E+00 0. -1.
</event>
<event>
 7    1  0.2973028E-011  0.5052886E+02  0.7816164E-02  0.1300439E+00
        -11   -1    0    0    0    0  0.00000000000E+00  0.00000000000E+00  0.45593999997E+02  0.45594000000E+02  0.51100000000E-03 0.  1.
         11   -1    0    0    0    0 -0.00000000000E+00 -0.00000000000E+00 -0.45593999997E+02  0.45594000000E+02  0.51100000000E-03 0. -1.
    9900012    2    1    2    0    0  0.25350572333E+02 -0.31775769307E+02 -0.90278693164E+00  0.50528855187E+02  0.29999985827E+02 0.  0.
         12    1    1    2    0    0 -0.25350572333E+02  0.31775769307E+02  0.90278693164E+00  0.40659144813E+02  0.00000000000E+00 0. -1.
         11    1    3    3    0    0  0.46645516844E+01 -0.19986719900E+02 -0.70561584533E-01  0.20523937097E+02  0.51100000000E-03 0. -1.
        -11    1    3    3    0    0  0.21660713907E+02 -0.14854222744E+02 -0.24971421190E+01  0.26383141953E+02  0.51100000000E-03 0.  1.
         12    1    3    3    0    0 -0.97469325903E+00  0.30651733360E+01  0.16649167719E+01  0.36217761369E+01  0.00000000000E+00 0. -1.
</event>
<event>
 7    1  0.2973028E-011  0.5052886E+02  0.7816164E-02  0.1300439E+00
        -11   -1    0    0    0    0  0.00000000000E+00  0.00000000000E+00  0.45593999997E+02  0.45594000000E+02  0.51100000000E-03 0.  1.
         11   -1    0    0    0    0 -0.00000000000E+00 -0.00000000000E+00 -0.45593999997E+02  0.45594000000E+02  0.51100000000E-03 0. -1.
    9900012    2    1    2    0    0 -0.31751367161E+02  0.95435894602E+00  0.25379235861E+02  0.50528859201E+02  0.29999998028E+02 0.  0.
         12    1    1    2    0    0  0.31751367161E+02 -0.95435894602E+00 -0.25379235861E+02  0.40659140799E+02  0.00000000000E+00 0. -1.
         11    1    3    3    0    0  0.34508286297E+01  0.26886622067E+01  0.20828389501E+01  0.48451358130E+01  0.51100000000E-03 0. -1.
        -11    1    3    3    0    0 -0.36900000292E+02 -0.27808684109E+01  0.23222618047E+02  0.43687907250E+02  0.51100000000E-03 0.  1.
        -12    1    3    3    0    0  0.16978045009E+01  0.10465651502E+01  0.73778864352E-01  0.19958161383E+01  0.00000000000E+00 0.  1.
</event>
<event>
 7    1  0.2973028E-011  0.5052885E+02  0.7816164E-02  0.1300439E+00
        -11   -1    0    0    0    0  0.00000000000E+00  0.00000000000E+00  0.45593999997E+02  0.45594000000E+02  0.51100000000E-03 0. -1.
         11   -1    0    0    0    0 -0.00000000000E+00 -0.00000000000E+00 -0.45593999997E+02  0.45594000000E+02  0.51100000000E-03 0.  1.
    9900012    2    1    2    0    0  0.92695911108E+01 -0.38705163975E+02 -0.83157402519E+01  0.50528848832E+02  0.29999966511E+02 0.  0.
         12    1    1    2    0    0 -0.92695911108E+01  0.38705163975E+02  0.83157402519E+01  0.40659151168E+02  0.00000000000E+00 0. -1.
         11    1    3    3    0    0  0.11838472062E+02 -0.18407877151E+02  0.85008648269E+01  0.23479013289E+02  0.51100000000E-03 0. -1.
        -11    1    3    3    0    0 -0.24753011430E+01 -0.20615849018E+02 -0.16150237556E+02  0.26305332536E+02  0.51100000000E-03 0.  1.
         12    1    3    3    0    0 -0.93579807984E-01  0.31856219363E+00 -0.66636752311E+00  0.74450300707E+00  0.00000000000E+00 0. -1.
</event>
<event>
 7    1  0.2973028E-011  0.5052884E+02  0.7816164E-02  0.1300439E+00
        -11   -1    0    0    0    0  0.00000000000E+00  0.00000000000E+00  0.45593999997E+02  0.45594000000E+02  0.51100000000E-03 0.  1.
         11   -1    0    0    0    0 -0.00000000000E+00 -0.00000000000E+00 -0.45593999997E+02  0.45594000000E+02  0.51100000000E-03 0. -1.
    9900012    2    1    2    0    0 -0.34366952473E+02 -0.12645922994E+02  0.17668067686E+02  0.50528838592E+02  0.29999935384E+02 0.  0.
         12    1    1    2    0    0  0.34366952473E+02  0.12645922994E+02 -0.17668067686E+02  0.40659161408E+02  0.00000000000E+00 0. -1.
         11    1    3    3    0    0 -0.30934233163E+01 -0.11614748168E+02  0.11952761712E+01  0.12078920821E+02  0.51100000000E-03 0. -1.
        -11    1    3    3    0    0 -0.12813927962E+02 -0.90698515400E+00  0.15264285447E+02  0.19950383013E+02  0.51100000000E-03 0.  1.
         12    1    3    3    0    0 -0.18459601195E+02 -0.12418967243E+00  0.12085060678E+01  0.18499534758E+02  0.00000000000E+00 0. -1.
</event>
<event>
 7    1  0.2973028E-011  0.5052885E+02  0.7816164E-02  0.1300439E+00
        -11   -1    0    0    0    0  0.00000000000E+00  0.00000000000E+00  0.45593999997E+02  0.45594000000E+02  0.51100000000E-03 0. -1.
         11   -1    0    0    0    0 -0.00000000000E+00 -0.00000000000E+00 -0.45593999997E+02  0.45594000000E+02  0.51100000000E-03 0.  1.
    9900012    2    1    2    0    0  0.15138304823E+02  0.29928663612E+02 -0.22984188670E+02  0.50528854567E+02  0.29999983943E+02 0.  0.
         12    1    1    2    0    0 -0.15138304823E+02 -0.29928663612E+02  0.22984188670E+02  0.40659145433E+02  0.00000000000E+00 0. -1.
         11    1    3    3    0    0  0.80025079494E+01 -0.27924851818E+01 -0.96532512475E+01  0.12846142101E+02  0.51100000000E-03 0. -1.
        -11    1    3    3    0    0 -0.90815580553E-01  0.23499547543E+02 -0.96280409000E+01  0.25395593201E+02  0.51100000000E-03 0.  1.
        -12    1    3    3    0    0  0.72266124539E+01  0.92216012502E+01 -0.37028965229E+01  0.12287119265E+02  0.00000000000E+00 0.  1.
</event>
<event>
 7    1  0.2973028E-011  0.5052887E+02  0.7816164E-02  0.1300439E+00
        -11   -1    0    0    0    0  0.00000000000E+00  0.00000000000E+00  0.45593999997E+02  0.45594000000E+02  0.51100000000E-03 0. -1.
         11   -1    0    0    0    0 -0.00000000000E+00 -0.00000000000E+00 -0.45593999997E+02  0.45594000000E+02  0.51100000000E-03 0.  1.
    9900012    2    1    2    0    0 -0.89081540522E+01  0.24756526709E+02 -0.30998777110E+02  0.50528868115E+02  0.30000025124E+02 0.  0.
         12    1    1    2    0    0  0.89081540522E+01 -0.24756526709E+02  0.30998777110E+02  0.40659131885E+02  0.00000000000E+00 0. -1.
         11    1    3    3    0    0  0.78537637623E+01  0.66409261908E+01 -0.12025182970E+02  0.15823669980E+02  0.51100000000E-03 0. -1.
        -11    1    3    3    0    0 -0.87090292721E+01  0.10319264678E+02 -0.10219973699E+01  0.13541746314E+02  0.51100000000E-03 0.  1.
         12    1    3    3    0    0 -0.80528885424E+01  0.77963358401E+01 -0.17951596770E+02  0.21163451822E+02  0.00000000000E+00 0. -1.
</event>
<event>
 7    1  0.2973028E-011  0.5052888E+02  0.7816164E-02  0.1300439E+00
        -11   -1    0    0    0    0  0.00000000000E+00  0.00000000000E+00  0.45593999997E+02  0.45594000000E+02  0.51100000000E-03 0. -1.
         11   -1    0    0    0    0 -0.00000000000E+00 -0.00000000000E+00 -0.45593999997E+02  0.45594000000E+02  0.51100000000E-03 0.  1.
    9900012    2    1    2    0    0 -0.21643301254E+02 -0.34416199880E+02  0.50689245850E+00  0.50528877490E+02  0.30000053617E+02 0.  0.
         12    1    1    2    0    0  0.21643301254E+02  0.34416199880E+02 -0.50689245850E+00  0.40659122510E+02  0.00000000000E+00 0. -1.
         11    1    3    3    0    0 -0.10920467602E+02 -0.91310836843E+01 -0.13242283077E+02  0.19441999981E+02  0.51100000000E-03 0. -1.
        -11    1    3    3    0    0 -0.52625131226E+01 -0.12127485250E+02  0.39542743427E+01  0.13798776348E+02  0.51100000000E-03 0.  1.
         12    1    3    3    0    0 -0.54603205287E+01 -0.13157630946E+02  0.97949011927E+01  0.17288101161E+02  0.00000000000E+00 0. -1.
</event>
<event>
 7    1  0.2973028E-011  0.5052886E+02  0.7816164E-02  0.1300439E+00
        -11   -1    0    0    0    0  0.00000000000E+00  0.00000000000E+00  0.45593999997E+02  0.45594000000E+02  0.51100000000E-03 0.  1.
         11   -1    0    0    0    0 -0.00000000000E+00 -0.00000000000E+00 -0.45593999997E+02  0.45594000000E+02  0.51100000000E-03 0. -1.
    9900012    2    1    2    0    0 -0.14265966443E+02  0.31537215178E+02  0.21331941739E+02  0.50528862305E+02  0.30000007464E+02 0.  0.
         12    1    1    2    0    0  0.14265966443E+02 -0.31537215178E+02 -0.21331941739E+02  0.40659137695E+02  0.00000000000E+00 0. -1.
         11    1    3    3    0    0 -0.19003044154E+01  0.67155316104E+01 -0.38818562674E+01  0.79861336092E+01  0.51100000000E-03 0. -1.
        -11    1    3    3    0    0 -0.13846633421E+02  0.11193424481E+02  0.22285751312E+02  0.28525019203E+02  0.51100000000E-03 0.  1.
        -12    1    3    3    0    0  0.14809713937E+01  0.13628259087E+02  0.29280466941E+01  0.14017709494E+02  0.00000000000E+00 0.  1.
</event>
<event>
 7    1  0.2973028E-011  0.5052887E+02  0.7816164E-02  0.1300439E+00
        -11   -1    0    0    0    0  0.00000000000E+00  0.00000000000E+00  0.45593999997E+02  0.45594000000E+02  0.51100000000E-03 0.  1.
         11   -1    0    0    0    0 -0.00000000000E+00 -0.00000000000E+00 -0.45593999997E+02  0.45594000000E+02  0.51100000000E-03 0. -1.
    9900012    2    1    2    0    0  0.84206664085E+01  0.38333579815E+02  0.10620450148E+02  0.50528869100E+02  0.30000028117E+02 0.  0.
         12    1    1    2    0    0 -0.84206664085E+01 -0.38333579815E+02 -0.10620450148E+02  0.40659130900E+02  0.00000000000E+00 0. -1.
         11    1    3    3    0    0  0.74536113571E+01  0.73614046672E+01 -0.38522511891E+01  0.11161829618E+02  0.51100000000E-03 0. -1.
        -11    1    3    3    0    0  0.63307208615E+01  0.26753363178E+02  0.16726236626E+02  0.32180544742E+02  0.51100000000E-03 0.  1.
        -12    1    3    3    0    0 -0.53636658101E+01  0.42188119691E+01 -0.22535352882E+01  0.71864947400E+01  0.00000000000E+00 0.  1.
</event>
<event>
 7    1  0.2973028E-011  0.5052885E+02  0.7816164E-02  0.1300439E+00
        -11   -1    0    0    0    0  0.00000000000E+00  0.00000000000E+00  0.45593999997E+02  0.45594000000E+02  0.51100000000E-03 0.  1.
         11   -1    0    0    0    0 -0.00000000000E+00 -0.00000000000E+00 -0.45593999997E+02  0.45594000000E+02  0.51100000000E-03 0. -1.
    9900012    2    1    2    0    0  0.18982631300E+02 -0.20404832123E+02  0.29605225248E+02  0.50528845717E+02  0.29999957040E+02 0.  0.
         12    1    1    2    0    0 -0.18982631300E+02  0.20404832123E+02 -0.29605225248E+02  0.40659154283E+02  0.00000000000E+00 0. -1.
         11    1    3    3    0    0 -0.55360285884E+01 -0.10295071208E+00  0.48126291223E+01  0.73361850243E+01  0.51100000000E-03 0. -1.
        -11    1    3    3    0    0  0.12869275039E+02 -0.13723706893E+02  0.52915968688E+01  0.19543780816E+02  0.51100000000E-03 0.  1.
         12    1    3    3    0    0  0.11649384850E+02 -0.65781745183E+01  0.19500999257E+02  0.23648879876E+02  0.00000000000E+00 0. -1.
</event>
<event>
 7    1  0.2973028E-011  0.5052886E+02  0.7816164E-02  0.1300439E+00
        -11   -1    0    0    0    0  0.00000000000E+00  0.00000000000E+00  0.45593999997E+02  0.45594000000E+02  0.51100000000E-03 0.  1.
         11   -1    0    0    0    0 -0.00000000000E+00 -0.00000000000E+00 -0.45593999997E+02  0.45594000000E+02  0.51100000000E-03 0. -1.
    9900012    2    1    2    0    0 -0.25519598997E+02 -0.29351024860E+02  0.11850443537E+02  0.50528860741E+02  0.30000002707E+02 0.  0.
         12    1    1    2    0    0  0.25519598997E+02  0.29351024860E+02 -0.11850443537E+02  0.40659139259E+02  0.00000000000E+00 0. -1.
         11    1    3    3    0    0 -0.11184888615E+02 -0.25596761608E+02  0.34209595857E+01  0.28142475067E+02  0.51100000000E-03 0. -1.
        -11    1    3    3    0    0 -0.57428443918E+01  0.18336725393E+01 -0.32490336286E+01  0.68482725173E+01  0.51100000000E-03 0.  1.
         12    1    3    3    0    0 -0.85918659899E+01 -0.55879357918E+01  0.11678517580E+02  0.15538113157E+02  0.00000000000E+00 0. -1.
</event>
<event>
 7    1  0.2973028E-011  0.5052886E+02  0.7816164E-02  0.1300439E+00
        -11   -1    0    0    0    0  0.00000000000E+00  0.00000000000E+00  0.45593999997E+02  0.45594000000E+02  0.51100000000E-03 0.  1.
         11   -1    0    0    0    0 -0.00000000000E+00 -0.00000000000E+00 -0.45593999997E+02  0.45594000000E+02  0.51100000000E-03 0. -1.
    9900012    2    1    2    0    0 -0.35940152202E+02 -0.66792372953E+01  0.17800533461E+02  0.50528859052E+02  0.29999997573E+02 0.  0.
         12    1    1    2    0    0  0.35940152202E+02  0.66792372953E+01 -0.17800533461E+02  0.40659140948E+02  0.00000000000E+00 0. -1.
         11    1    3    3    0    0 -0.20866397717E+02 -0.11516169746E+02  0.20879210306E+01  0.23924634455E+02  0.51100000000E-03 0. -1.
        -11    1    3    3    0    0 -0.65531550245E+01 -0.24229526301E+01  0.13489620028E+02  0.15191589416E+02  0.51100000000E-03 0.  1.
         12    1    3    3    0    0 -0.85205994603E+01  0.72598850806E+01  0.22229924027E+01  0.11412635181E+02  0.00000000000E+00 0. -1.
</event>
<event>
 7    1  0.2973028E-011  0.5052886E+02  0.7816164E-02  0.1300439E+00
        -11   -1    0    0    0    0  0.00000000000E+00  0.00000000000E+00  0.45593999997E+02  0.45594000000E+02  0.51100000000E-03 0.  1.
         11   -1    0    0    0    0 -0.00000000000E+00 -0.00000000000E+00 -0.45593999997E+02  0.45594000000E+02  0.51100000000E-03 0. -1.
    9900012    2    1    2    0    0  0.39979170540E+02 -0.23529438444E+01  0.70210284238E+01  0.50528864963E+02  0.30000015543E+02 0.  0.
         12    1    1    2    0    0 -0.39979170540E+02  0.23529438444E+01 -0.70210284238E+01  0.40659135037E+02  0.00000000000E+00 0. -1.
         11    1    3    3    0    0  0.89258805236E+01  0.94004789812E+01 -0.29178439642E+01  0.13287368508E+02  0.51100000000E-03 0. -1.
        -11    1    3    3    0    0  0.12075890021E+02 -0.94805386175E+01  0.96356932377E+01  0.18126067326E+02  0.51100000000E-03 0.  1.
        -12    1    3    3    0    0  0.18977399996E+02 -0.22728842082E+01  0.30317915033E+00  0.19115429130E+02  0.00000000000E+00 0.  1.
</event>
<event>
 7    1  0.2973028E-011  0.5052885E+02  0.7816164E-02  0.1300439E+00
        -11   -1    0    0    0    0  0.00000000000E+00  0.00000000000E+00  0.45593999997E+02  0.45594000000E+02  0.51100000000E-03 0. -1.
         11   -1    0    0    0    0 -0.00000000000E+00 -0.00000000000E+00 -0.45593999997E+02  0.45594000000E+02  0.51100000000E-03 0.  1.
    9900012    2    1    2    0    0  0.22048717595E+02 -0.30777707542E+02 -0.14824067133E+02  0.50528853483E+02  0.29999980648E+02 0.  0.
         12    1    1    2    0    0 -0.22048717595E+02  0.30777707542E+02  0.14824067133E+02  0.40659146517E+02  0.00000000000E+00 0. -1.
         11    1    3    3    0    0  0.76201631331E+01 -0.62067961789E+01  0.73441507269E+01  0.12268975309E+02  0.51100000000E-03 0. -1.
        -11    1    3    3    0    0  0.14418878581E+02 -0.13227894750E+02 -0.16417230680E+02  0.25542253670E+02  0.51100000000E-03 0.  1.
         12    1    3    3    0    0  0.96758809809E-02 -0.11343016612E+02 -0.57509871799E+01  0.12717624504E+02  0.00000000000E+00 0. -1.
</event>
<event>
 7    1  0.2973028E-011  0.5052886E+02  0.7816164E-02  0.1300439E+00
        -11   -1    0    0    0    0  0.00000000000E+00  0.00000000000E+00  0.45593999997E+02  0.45594000000E+02  0.51100000000E-03 0.  1.
         11   -1    0    0    0    0 -0.00000000000E+00 -0.00000000000E+00 -0.45593999997E+02  0.45594000000E+02  0.51100000000E-03 0. -1.
    9900012    2    1    2    0    0  0.77952912154E+01  0.39683078329E+02 -0.42014589675E+01  0.50528861688E+02  0.30000005586E+02 0.  0.
         12    1    1    2    0    0 -0.77952912154E+01 -0.39683078329E+02  0.42014589675E+01  0.40659138312E+02  0.00000000000E+00 0. -1.
         11    1    3    3    0    0  0.76530939776E+01  0.77762926233E+01  0.47212311423E+01  0.11888254630E+02  0.51100000000E-03 0. -1.
        -11    1    3    3    0    0  0.43870521075E+01  0.21482428273E+02 -0.14289413553E+02  0.26171134684E+02  0.51100000000E-03 0.  1.
        -12    1    3    3    0    0 -0.42448548697E+01  0.10424357433E+02  0.53667234432E+01  0.12469472373E+02  0.00000000000E+00 0.  1.
</event>
<event>
 7    1  0.2973028E-011  0.5052886E+02  0.7816164E-02  0.1300439E+00
        -11   -1    0    0    0    0  0.00000000000E+00  0.00000000000E+00  0.45593999997E+02  0.45594000000E+02  0.51100000000E-03 0.  1.
         11   -1    0    0    0    0 -0.00000000000E+00 -0.00000000000E+00 -0.45593999997E+02  0.45594000000E+02  0.51100000000E-03 0. -1.
    9900012    2    1    2    0    0  0.11003219731E+02 -0.99129462263E+01  0.37865923482E+02  0.50528861932E+02  0.30000006327E+02 0.  0.
         12    1    1    2    0    0 -0.11003219731E+02  0.99129462263E+01 -0.37865923482E+02  0.40659138068E+02  0.00000000000E+00 0. -1.
         11    1    3    3    0    0  0.83705601347E+01 -0.18991836823E+02  0.20245452487E+02  0.28993697410E+02  0.51100000000E-03 0. -1.
        -11    1    3    3    0    0  0.54857399111E+01  0.60039600783E+01  0.10653850883E+02  0.13403186856E+02  0.51100000000E-03 0.  1.
         12    1    3    3    0    0 -0.28530803143E+01  0.30749305179E+01  0.69666201118E+01  0.81319776654E+01  0.00000000000E+00 0. -1.
</event>
<event>
 7    1  0.2973028E-011  0.5052886E+02  0.7816164E-02  0.1300439E+00
        -11   -1    0    0    0    0  0.00000000000E+00  0.00000000000E+00  0.45593999997E+02  0.45594000000E+02  0.51100000000E-03 0. -1.
         11   -1    0    0    0    0 -0.00000000000E+00 -0.00000000000E+00 -0.45593999997E+02  0.45594000000E+02  0.51100000000E-03 0.  1.
    9900012    2    1    2    0    0 -0.35756799869E+01 -0.34136373409E+02 -0.21796521360E+02  0.50528858097E+02  0.29999994672E+02 0.  0.
         12    1    1    2    0    0  0.35756799869E+01  0.34136373409E+02  0.21796521360E+02  0.40659141903E+02  0.00000000000E+00 0. -1.
         11    1    3    3    0    0 -0.28477820731E+01 -0.21548309418E+02  0.25819677938E+01  0.21888491484E+02  0.51100000000E-03 0. -1.
        -11    1    3    3    0    0  0.22361060177E+00 -0.11417789484E+02 -0.13608767148E+02  0.17765541420E+02  0.51100000000E-03 0.  1.
         12    1    3    3    0    0 -0.95150851558E+00 -0.11702745067E+01 -0.10769722006E+02  0.10874825193E+02  0.00000000000E+00 0. -1.
</event>
<event>
 7    1  0.2973028E-011  0.5052886E+02  0.7816164E-02  0.1300439E+00
        -11   -1    0    0    0    0  0.00000000000E+00  0.00000000000E+00  0.45593999997E+02  0.45594000000E+02  0.51100000000E-03 0.  1.
         11   -1    0    0    0    0 -0.00000000000E+00 -0.00000000000E+00 -0.45593999997E+02  0.45594000000E+02  0.51100000000E-03 0. -1.
    9900012    2    1    2    0    0  0.32159004241E+02 -0.13697565864E+02  0.20768737633E+02  0.50528864160E+02  0.30000013102E+02 0.  0.
         12    1    1    2    0    0 -0.32159004241E+02  0.13697565864E+02 -0.20768737633E+02  0.40659135840E+02  0.00000000000E+00 0. -1.
         11    1    3    3    0    0  0.35158414711E+01  0.41747918642E+01  0.12725049915E+01  0.56043998407E+01  0.51100000000E-03 0. -1.
        -11    1    3    3    0    0  0.28795233790E+02 -0.14670629555E+02  0.23380920819E+02  0.39888097462E+02  0.51100000000E-03 0.  1.
         12    1    3    3    0    0 -0.15207102057E+00 -0.32017281730E+01 -0.38846881769E+01  0.50363668573E+01  0.00000000000E+00 0. -1.
</event>
<event>
 7    1  0.2973028E-011  0.5052886E+02  0.7816164E-02  0.1300439E+00
        -11   -1    0    0    0    0  0.00000000000E+00  0.00000000000E+00  0.45593999997E+02  0.45594000000E+02  0.51100000000E-03 0. -1.
         11   -1    0    0    0    0 -0.00000000000E+00 -0.00000000000E+00 -0.45593999997E+02  0.45594000000E+02  0.51100000000E-03 0.  1.
    9900012    2    1    2    0    0  0.61376684666E+01  0.18681959726E+02 -0.35587625740E+02  0.50528859586E+02  0.29999999198E+02 0.  0.
         12    1    1    2    0    0 -0.61376684666E+01 -0.18681959726E+02  0.35587625740E+02  0.40659140414E+02  0.00000000000E+00 0. -1.
         11    1    3    3    0    0  0.97291037370E+01  0.18511587723E+01 -0.49412728121E+01  0.11067900686E+02  0.51100000000E-03 0. -1.
        -11    1    3    3    0    0 -0.10898922857E+01  0.19140378975E+02 -0.17763745345E+02  0.26136040662E+02  0.51100000000E-03 0.  1.
        -12    1    3    3    0    0 -0.25015429847E+01 -0.23095780214E+01 -0.12882607582E+02  0.13324918239E+02  0.00000000000E+00 0.  1.
</event>
<event>
 7    1  0.2973028E-011  0.5052886E+02  0.7816164E-02  0.1300439E+00
        -11   -1    0    0    0    0  0.00000000000E+00  0.00000000000E+00  0.45593999997E+02  0.45594000000E+02  0.51100000000E-03 0.  1.
         11   -1    0    0    0    0 -0.00000000000E+00 -0.00000000000E+00 -0.45593999997E+02  0.45594000000E+02  0.51100000000E-03 0. -1.
    9900012    2    1    2    0    0  0.21378774583E+02 -0.71200585626E+01  0.33844025099E+02  0.50528864846E+02  0.30000015185E+02 0.  0.
         12    1    1    2    0    0 -0.21378774583E+02  0.71200585626E+01 -0.33844025099E+02  0.40659135154E+02  0.00000000000E+00 0. -1.
         11    1    3    3    0    0  0.95055434853E+01  0.38111445485E+01  0.70311956021E+01  0.12422475260E+02  0.51100000000E-03 0. -1.
        -11    1    3    3    0    0 -0.46107383076E+01 -0.40878352993E+01  0.16221397665E+02  0.17352321102E+02  0.51100000000E-03 0.  1.
        -12    1    3    3    0    0  0.16483969406E+02 -0.68433678118E+01  0.10591431832E+02  0.20754068484E+02  0.00000000000E+00 0.  1.
</event>
<event>
 7    1  0.2973028E-011  0.5052887E+02  0.7816164E-02  0.1300439E+00
        -11   -1    0    0    0    0  0.00000000000E+00  0.00000000000E+00  0.45593999997E+02  0.45594000000E+02  0.51100000000E-03 0.  1.
         11   -1    0    0    0    0 -0.00000000000E+00 -0.00000000000E+00 -0.45593999997E+02  0.45594000000E+02  0.51100000000E-03 0. -1.
    9900012    2    1    2    0    0 -0.18586921194E+02 -0.28913697672E+02  0.21718402126E+02  0.50528873799E+02  0.30000042400E+02 0.  0.
         12    1    1    2    0    0  0.18586921194E+02  0.28913697672E+02 -0.21718402126E+02  0.40659126201E+02  0.00000000000E+00 0. -1.
         11    1    3    3    0    0  0.21193414905E+01 -0.71950890159E+01 -0.12902845932E+01  0.76108967206E+01  0.51100000000E-03 0. -1.
        -11    1    3    3    0    0 -0.24157680794E+02 -0.15504578684E+02  0.15680674700E+02  0.32708852942E+02  0.51100000000E-03 0.  1.
        -12    1    3    3    0    0  0.34514181100E+01 -0.62140299723E+01  0.73280120196E+01  0.10209124136E+02  0.00000000000E+00 0.  1.
</event>
<event>
 7    1  0.2973028E-011  0.5052887E+02  0.7816164E-02  0.1300439E+00
        -11   -1    0    0    0    0  0.00000000000E+00  0.00000000000E+00  0.45593999997E+02  0.45594000000E+02  0.51100000000E-03 0.  1.
         11   -1    0    0    0    0 -0.00000000000E+00 -0.00000000000E+00 -0.45593999997E+02  0.45594000000E+02  0.51100000000E-03 0. -1.
    9900012    2    1    2    0    0 -0.21690880662E+02 -0.15674238291E+02  0.30610277254E+02  0.50528866666E+02  0.30000020718E+02 0.  0.
         12    1    1    2    0    0  0.21690880662E+02  0.15674238291E+02 -0.30610277254E+02  0.40659133334E+02  0.00000000000E+00 0. -1.
         11    1    3    3    0    0 -0.13366016078E+01 -0.26908545797E+01  0.22893111091E+02  0.23089429138E+02  0.51100000000E-03 0. -1.
        -11    1    3    3    0    0 -0.13332557046E+02 -0.11733849946E+02  0.94239804445E+01  0.20106012027E+02  0.51100000000E-03 0.  1.
         12    1    3    3    0    0 -0.70217220083E+01 -0.12495337648E+01 -0.17068142813E+01  0.73334255012E+01  0.00000000000E+00 0. -1.
</event>
<event>
 7    1  0.2973028E-011  0.5052886E+02  0.7816164E-02  0.1300439E+00
        -11   -1    0    0    0    0  0.00000000000E+00  0.00000000000E+00  0.45593999997E+02  0.45594000000E+02  0.51100000000E-03 0.  1.
         11   -1    0    0    0    0 -0.00000000000E+00 -0.00000000000E+00 -0.45593999997E+02  0.45594000000E+02  0.51100000000E-03 0. -1.
    9900012    2    1    2    0    0  0.17196115037E+02  0.16326462871E+02  0.33028858855E+02  0.50528864747E+02  0.30000014885E+02 0.  0.
         12    1    1    2    0    0 -0.17196115037E+02 -0.16326462871E+02 -0.33028858855E+02  0.40659135253E+02  0.00000000000E+00 0. -1.
         11    1    3    3    0    0  0.10616304432E+02  0.17462813357E+02  0.61166898382E+01  0.21332361918E+02  0.51100000000E-03 0. -1.
        -11    1    3    3    0    0  0.72801832597E+01 -0.12433361856E+01  0.10887402655E+02  0.13156081863E+02  0.51100000000E-03 0.  1.
         12    1    3    3    0    0 -0.70037265474E+00  0.10698569903E+00  0.16024766362E+02  0.16040420966E+02  0.00000000000E+00 0. -1.
</event>
<event>
 7    1  0.2973028E-011  0.5052885E+02  0.7816164E-02  0.1300439E+00
        -11   -1    0    0    0    0  0.00000000000E+00  0.00000000000E+00  0.45593999997E+02  0.45594000000E+02  0.51100000000E-03 0.  1.
         11   -1    0    0    0    0 -0.00000000000E+00 -0.00000000000E+00 -0.45593999997E+02  0.45594000000E+02  0.51100000000E-03 0. -1.
    9900012    2    1    2    0    0  0.98441160179E+01  0.25877010998E+02  0.29776503568E+02  0.50528849946E+02  0.29999969896E+02 0.  0.
         12    1    1    2    0    0 -0.98441160179E+01 -0.25877010998E+02 -0.29776503568E+02  0.40659150054E+02  0.00000000000E+00 0. -1.
         11    1    3    3    0    0 -0.10160989929E+02  0.11864514621E+02  0.16267949740E+02  0.22553461210E+02  0.51100000000E-03 0. -1.
        -11    1    3    3    0    0  0.15239748809E+02  0.10714392103E+02  0.11202504408E+02  0.21738082877E+02  0.51100000000E-03 0.  1.
         12    1    3    3    0    0  0.47653571378E+01  0.32981042743E+01  0.23060494196E+01  0.62373058591E+01  0.00000000000E+00 0. -1.
</event>
<event>
 7    1  0.2973028E-011  0.5052886E+02  0.7816164E-02  0.1300439E+00
        -11   -1    0    0    0    0  0.00000000000E+00  0.00000000000E+00  0.45593999997E+02  0.45594000000E+02  0.51100000000E-03 0.  1.
         11   -1    0    0    0    0 -0.00000000000E+00 -0.00000000000E+00 -0.45593999997E+02  0.45594000000E+02  0.51100000000E-03 0. -1.
    9900012    2    1    2    0    0  0.68583489638E+01 -0.50968476126E+01  0.39751114210E+02  0.50528857277E+02  0.29999992178E+02 0.  0.
         12    1    1    2    0    0 -0.68583489638E+01  0.50968476126E+01 -0.39751114210E+02  0.40659142723E+02  0.00000000000E+00 0. -1.
         11    1    3    3    0    0  0.11024245211E+02 -0.10360071012E+02  0.76747096091E+01  0.16963673591E+02  0.51100000000E-03 0. -1.
        -11    1    3    3    0    0 -0.35894963841E+00 -0.34828873890E+00  0.17299006835E+02  0.17306235513E+02  0.51100000000E-03 0.  1.
         12    1    3    3    0    0 -0.38069466091E+01  0.56115121387E+01  0.14777397766E+02  0.16258948173E+02  0.00000000000E+00 0. -1.
</event>
<event>
 7    1  0.2973028E-011  0.5052886E+02  0.7816164E-02  0.1300439E+00
        -11   -1    0    0    0    0  0.00000000000E+00  0.00000000000E+00  0.45593999997E+02  0.45594000000E+02  0.51100000000E-03 0. -1.
         11   -1    0    0    0    0 -0.00000000000E+00 -0.00000000000E+00 -0.45593999997E+02  0.45594000000E+02  0.51100000000E-03 0.  1.
    9900012    2    1    2    0    0 -0.34484545673E+02  0.40559783888E+01 -0.21154920124E+02  0.50528862080E+02  0.30000006778E+02 0.  0.
         12    1    1    2    0    0  0.34484545673E+02 -0.40559783888E+01  0.21154920124E+02  0.40659137920E+02  0.00000000000E+00 0. -1.
         11    1    3    3    0    0 -0.20963378182E+02  0.19181814818E+00  0.27703940543E+01  0.21146515138E+02  0.51100000000E-03 0. -1.
        -11    1    3    3    0    0 -0.37478359085E+01 -0.32288584824E+01 -0.61426014297E+01  0.78869102747E+01  0.51100000000E-03 0.  1.
         12    1    3    3    0    0 -0.97733315824E+01  0.70930187229E+01 -0.17782712749E+02  0.21495436668E+02  0.00000000000E+00 0. -1.
</event>
<event>
 7    1  0.2973028E-011  0.5052885E+02  0.7816164E-02  0.1300439E+00
        -11   -1    0    0    0    0  0.00000000000E+00  0.00000000000E+00  0.45593999997E+02  0.45594000000E+02  0.51100000000E-03 0. -1.
         11   -1    0    0    0    0 -0.00000000000E+00 -0.00000000000E+00 -0.45593999997E+02  0.45594000000E+02  0.51100000000E-03 0.  1.
    9900012    2    1    2    0    0 -0.24957330858E+02  0.14910468514E+02 -0.28424915540E+02  0.50528852710E+02  0.29999978298E+02 0.  0.
         12    1    1    2    0    0  0.24957330858E+02 -0.14910468514E+02  0.28424915540E+02  0.40659147290E+02  0.00000000000E+00 0. -1.
         11    1    3    3    0    0 -0.14225901707E+02  0.19518000801E+02 -0.91468611855E+01  0.25826221258E+02  0.51100000000E-03 0. -1.
        -11    1    3    3    0    0 -0.10658783738E+02 -0.55037911761E+01 -0.20149768133E+02  0.23450256803E+02  0.51100000000E-03 0.  1.
        -12    1    3    3    0    0 -0.72645413513E-01  0.89625888873E+00  0.87171377776E+00  0.12523746492E+01  0.00000000000E+00 0.  1.
</event>
<event>
 7    1  0.2973028E-011  0.5052886E+02  0.7816164E-02  0.1300439E+00
        -11   -1    0    0    0    0  0.00000000000E+00  0.00000000000E+00  0.45593999997E+02  0.45594000000E+02  0.51100000000E-03 0.  1.
         11   -1    0    0    0    0 -0.00000000000E+00 -0.00000000000E+00 -0.45593999997E+02  0.45594000000E+02  0.51100000000E-03 0. -1.
    9900012    2    1    2    0    0 -0.10591256948E+01  0.12149694474E+02  0.38786971283E+02  0.50528856325E+02  0.29999989286E+02 0.  0.
         12    1    1    2    0    0  0.10591256948E+01 -0.12149694474E+02 -0.38786971283E+02  0.40659143675E+02  0.00000000000E+00 0. -1.
         11    1    3    3    0    0  0.89516088557E+00 -0.34921652708E+01  0.30674314718E+02  0.30885435321E+02  0.51100000000E-03 0. -1.
        -11    1    3    3    0    0 -0.48084878838E+01  0.10656773381E+02  0.74445144971E+01  0.13860345269E+02  0.51100000000E-03 0.  1.
         12    1    3    3    0    0  0.28542013034E+01  0.49850863638E+01  0.66814206796E+00  0.57830757351E+01  0.00000000000E+00 0. -1.
</event>
<event>
 7    1  0.2973028E-011  0.5052886E+02  0.7816164E-02  0.1300439E+00
        -11   -1    0    0    0    0  0.00000000000E+00  0.00000000000E+00  0.45593999997E+02  0.45594000000E+02  0.51100000000E-03 0.  1.
         11   -1    0    0    0    0 -0.00000000000E+00 -0.00000000000E+00 -0.45593999997E+02  0.45594000000E+02  0.51100000000E-03 0. -1.
    9900012    2    1    2    0    0  0.30571493328E+02 -0.24515158891E+02 -0.10842349329E+02  0.50528858854E+02  0.29999996973E+02 0.  0.
         12    1    1    2    0    0 -0.30571493328E+02  0.24515158891E+02  0.10842349329E+02  0.40659141146E+02  0.00000000000E+00 0. -1.
         11    1    3    3    0    0 -0.37349690999E+01  0.21635796009E+01 -0.22475754538E-01  0.43164309664E+01  0.51100000000E-03 0. -1.
        -11    1    3    3    0    0  0.17699325327E+02 -0.79654665367E+01 -0.81496065568E+01  0.21050673659E+02  0.51100000000E-03 0.  1.
         12    1    3    3    0    0  0.16607137101E+02 -0.18713271955E+02 -0.26702670178E+01  0.25161754229E+02  0.00000000000E+00 0. -1.
</event>
<event>
 7    1  0.2973028E-011  0.5052879E+02  0.7816164E-02  0.1300439E+00
        -11   -1    0    0    0    0  0.00000000000E+00  0.00000000000E+00  0.45593999997E+02  0.45594000000E+02  0.51100000000E-03 0. -1.
         11   -1    0    0    0    0 -0.00000000000E+00 -0.00000000000E+00 -0.45593999997E+02  0.45594000000E+02  0.51100000000E-03 0.  1.
    9900012    2    1    2    0    0  0.27401482932E+02 -0.30874310476E+01 -0.29879720445E+02  0.50528792048E+02  0.29999793909E+02 0.  0.
         12    1    1    2    0    0 -0.27401482932E+02  0.30874310476E+01  0.29879720445E+02  0.40659207952E+02  0.00000000000E+00 0. -1.
         11    1    3    3    0    0 -0.40155208025E+00 -0.36278115518E+01 -0.17364011911E+01  0.40419487981E+01  0.51100000000E-03 0. -1.
        -11    1    3    3    0    0  0.12691304973E+02  0.10352126860E+02 -0.49344399799E+01  0.17105100134E+02  0.51100000000E-03 0.  1.
        -12    1    3    3    0    0  0.15111730040E+02 -0.98117463557E+01 -0.23208879274E+02  0.29381743116E+02  0.00000000000E+00 0.  1.
</event>
<event>
 7    1  0.2973028E-011  0.5052886E+02  0.7816164E-02  0.1300439E+00
        -11   -1    0    0    0    0  0.00000000000E+00  0.00000000000E+00  0.45593999997E+02  0.45594000000E+02  0.51100000000E-03 0. -1.
         11   -1    0    0    0    0 -0.00000000000E+00 -0.00000000000E+00 -0.45593999997E+02  0.45594000000E+02  0.51100000000E-03 0.  1.
    9900012    2    1    2    0    0 -0.26494021833E+02  0.57075013519E+01 -0.30309348186E+02  0.50528863855E+02  0.30000012174E+02 0.  0.
         12    1    1    2    0    0  0.26494021833E+02 -0.57075013519E+01  0.30309348186E+02  0.40659136145E+02  0.00000000000E+00 0. -1.
         11    1    3    3    0    0 -0.72860335394E+01 -0.64344622831E+01 -0.97318603487E+01  0.13754915329E+02  0.51100000000E-03 0. -1.
        -11    1    3    3    0    0 -0.10093165733E+02  0.10898382069E+02 -0.69966177512E+00  0.14870650729E+02  0.51100000000E-03 0.  1.
        -12    1    3    3    0    0 -0.91148225610E+01  0.12435815657E+01 -0.19877826062E+02  0.21903297797E+02  0.00000000000E+00 0.  1.
</event>
<event>
 7    1  0.2973028E-011  0.5052896E+02  0.7816164E-02  0.1300438E+00
        -11   -1    0    0    0    0  0.00000000000E+00  0.00000000000E+00  0.45593999997E+02  0.45594000000E+02  0.51100000000E-03 0. -1.
         11   -1    0    0    0    0 -0.00000000000E+00 -0.00000000000E+00 -0.45593999997E+02  0.45594000000E+02  0.51100000000E-03 0.  1.
    9900012    2    1    2    0    0  0.26112635588E+02  0.31069630076E+02  0.24425266725E+01  0.50528959345E+02  0.30000302423E+02 0.  0.
         12    1    1    2    0    0 -0.26112635588E+02 -0.31069630076E+02 -0.24425266725E+01  0.40659040655E+02  0.00000000000E+00 0. -1.
         11    1    3    3    0    0  0.17223895298E+02  0.67246166274E+01 -0.82493641985E+01  0.20246852792E+02  0.51100000000E-03 0. -1.
        -11    1    3    3    0    0  0.88204987112E+01  0.16329957687E+02  0.23408766817E+01  0.18706908336E+02  0.51100000000E-03 0.  1.
         12    1    3    3    0    0  0.68241578736E-01  0.80150557618E+01  0.83510141893E+01  0.11575198217E+02  0.00000000000E+00 0. -1.
</event>
<event>
 7    1  0.2973028E-011  0.5052886E+02  0.7816164E-02  0.1300439E+00
        -11   -1    0    0    0    0  0.00000000000E+00  0.00000000000E+00  0.45593999997E+02  0.45594000000E+02  0.51100000000E-03 0. -1.
         11   -1    0    0    0    0 -0.00000000000E+00 -0.00000000000E+00 -0.45593999997E+02  0.45594000000E+02  0.51100000000E-03 0.  1.
    9900012    2    1    2    0    0  0.18200449742E+02  0.35735050377E+02 -0.67018831792E+01  0.50528862843E+02  0.30000009096E+02 0.  0.
         12    1    1    2    0    0 -0.18200449742E+02 -0.35735050377E+02  0.67018831792E+01  0.40659137157E+02  0.00000000000E+00 0. -1.
         11    1    3    3    0    0  0.94608649871E+01  0.63418840994E+01  0.84409704200E+01  0.14176651302E+02  0.51100000000E-03 0. -1.
        -11    1    3    3    0    0  0.11847678453E+02  0.22038737075E+02 -0.10680836323E+02  0.27205765591E+02  0.51100000000E-03 0.  1.
         12    1    3    3    0    0 -0.31080936988E+01  0.73544292024E+01 -0.44620172766E+01  0.91464459496E+01  0.00000000000E+00 0. -1.
</event>
<event>
 7    1  0.2973028E-011  0.5052889E+02  0.7816164E-02  0.1300439E+00
        -11   -1    0    0    0    0  0.00000000000E+00  0.00000000000E+00  0.45593999997E+02  0.45594000000E+02  0.51100000000E-03 0. -1.
         11   -1    0    0    0    0 -0.00000000000E+00 -0.00000000000E+00 -0.45593999997E+02  0.45594000000E+02  0.51100000000E-03 0.  1.
    9900012    2    1    2    0    0 -0.21839070693E+01  0.39470911236E+02  0.95100520508E+01  0.50528888181E+02  0.30000086114E+02 0.  0.
         12    1    1    2    0    0  0.21839070693E+01 -0.39470911236E+02 -0.95100520508E+01  0.40659111819E+02  0.00000000000E+00 0. -1.
         11    1    3    3    0    0  0.47375096795E+01  0.10243380587E+02 -0.49345539105E+01  0.12317494322E+02  0.51100000000E-03 0. -1.
        -11    1    3    3    0    0 -0.29382930574E+01  0.65119519312E+01  0.13328281756E+02  0.15122241199E+02  0.51100000000E-03 0.  1.
        -12    1    3    3    0    0 -0.39831236914E+01  0.22715578718E+02  0.11163242055E+01  0.23089152661E+02  0.00000000000E+00 0.  1.
</event>
<event>
 7    1  0.2973028E-011  0.5052886E+02  0.7816164E-02  0.1300439E+00
        -11   -1    0    0    0    0  0.00000000000E+00  0.00000000000E+00  0.45593999997E+02  0.45594000000E+02  0.51100000000E-03 0. -1.
         11   -1    0    0    0    0 -0.00000000000E+00 -0.00000000000E+00 -0.45593999997E+02  0.45594000000E+02  0.51100000000E-03 0.  1.
    9900012    2    1    2    0    0 -0.27862116482E+02  0.26132078968E+02 -0.13927773098E+02  0.50528856508E+02  0.29999989842E+02 0.  0.
         12    1    1    2    0    0  0.27862116482E+02 -0.26132078968E+02  0.13927773098E+02  0.40659143492E+02  0.00000000000E+00 0. -1.
         11    1    3    3    0    0 -0.73222811485E+01  0.24657364923E+01  0.45762050162E+01  0.89798279649E+01  0.51100000000E-03 0. -1.
        -11    1    3    3    0    0 -0.15825526352E+02  0.71921763724E+01 -0.17054799851E+02  0.24352430752E+02  0.51100000000E-03 0.  1.
        -12    1    3    3    0    0 -0.47143089809E+01  0.16474166103E+02 -0.14491782633E+01  0.17196597791E+02  0.00000000000E+00 0.  1.
</event>
<event>
 7    1  0.2973028E-011  0.5052886E+02  0.7816164E-02  0.1300439E+00
        -11   -1    0    0    0    0  0.00000000000E+00  0.00000000000E+00  0.45593999997E+02  0.45594000000E+02  0.51100000000E-03 0. -1.
         11   -1    0    0    0    0 -0.00000000000E+00 -0.00000000000E+00 -0.45593999997E+02  0.45594000000E+02  0.51100000000E-03 0.  1.
    9900012    2    1    2    0    0 -0.11959256873E+02  0.18207842643E+01 -0.38817863203E+02  0.50528861003E+02  0.30000003505E+02 0.  0.
         12    1    1    2    0    0  0.11959256873E+02 -0.18207842643E+01  0.38817863203E+02  0.40659138997E+02  0.00000000000E+00 0. -1.
         11    1    3    3    0    0 -0.18523008789E+02 -0.52040311147E+01 -0.20328556159E+02  0.27989890858E+02  0.51100000000E-03 0. -1.
        -11    1    3    3    0    0  0.77857678867E+01  0.37224531934E+01 -0.92459176450E+01  0.12647601857E+02  0.51100000000E-03 0.  1.
         12    1    3    3    0    0 -0.12220159704E+01  0.33023621856E+01 -0.92433893992E+01  0.98913682886E+01  0.00000000000E+00 0. -1.
</event>
<event>
 7    1  0.2973028E-011  0.5052885E+02  0.7816164E-02  0.1300439E+00
        -11   -1    0    0    0    0  0.00000000000E+00  0.00000000000E+00  0.45593999997E+02  0.45594000000E+02  0.51100000000E-03 0. -1.
         11   -1    0    0    0    0 -0.00000000000E+00 -0.00000000000E+00 -0.45593999997E+02  0.45594000000E+02  0.51100000000E-03 0.  1.
    9900012    2    1    2    0    0  0.77960145914E+01  0.39724318988E+02 -0.37903455037E+01  0.50528854884E+02  0.29999984904E+02 0.  0.
         12    1    1    2    0    0 -0.77960145914E+01 -0.39724318988E+02  0.37903455037E+01  0.40659145116E+02  0.00000000000E+00 0. -1.
         11    1    3    3    0    0  0.16187221640E+02  0.27472747905E+02  0.17192317151E+01  0.31933270735E+02  0.51100000000E-03 0. -1.
        -11    1    3    3    0    0 -0.14975409911E+01 -0.15902836202E+01 -0.14027866562E+01  0.25960434659E+01  0.51100000000E-03 0.  1.
         12    1    3    3    0    0 -0.68936660576E+01  0.13841854703E+02 -0.41067905626E+01  0.15999540683E+02  0.00000000000E+00 0. -1.
</event>
<event>
 7    1  0.2973028E-011  0.5052886E+02  0.7816164E-02  0.1300439E+00
        -11   -1    0    0    0    0  0.00000000000E+00  0.00000000000E+00  0.45593999997E+02  0.45594000000E+02  0.51100000000E-03 0. -1.
         11   -1    0    0    0    0 -0.00000000000E+00 -0.00000000000E+00 -0.45593999997E+02  0.45594000000E+02  0.51100000000E-03 0.  1.
    9900012    2    1    2    0    0  0.10288324726E+02 -0.38022284217E+02 -0.10080772214E+02  0.50528859685E+02  0.29999999498E+02 0.  0.
         12    1    1    2    0    0 -0.10288324726E+02  0.38022284217E+02  0.10080772214E+02  0.40659140315E+02  0.00000000000E+00 0. -1.
         11    1    3    3    0    0  0.46577615235E+01 -0.24276008085E+01  0.75451533992E+01  0.91933306355E+01  0.51100000000E-03 0. -1.
        -11    1    3    3    0    0 -0.13621188869E+01 -0.16104968829E+02 -0.43456155252E+01  0.16736480018E+02  0.51100000000E-03 0.  1.
         12    1    3    3    0    0  0.69926820898E+01 -0.19489714580E+02 -0.13280310088E+02  0.24599049031E+02  0.00000000000E+00 0. -1.
</event>
<event>
 7    1  0.2973028E-011  0.5052886E+02  0.7816164E-02  0.1300439E+00
        -11   -1    0    0    0    0  0.00000000000E+00  0.00000000000E+00  0.45593999997E+02  0.45594000000E+02  0.51100000000E-03 0.  1.
         11   -1    0    0    0    0 -0.00000000000E+00 -0.00000000000E+00 -0.45593999997E+02  0.45594000000E+02  0.51100000000E-03 0. -1.
    9900012    2    1    2    0    0  0.18142537217E+02  0.23320002266E+02  0.27931906797E+02  0.50528861056E+02  0.30000003666E+02 0.  0.
         12    1    1    2    0    0 -0.18142537217E+02 -0.23320002266E+02 -0.27931906797E+02  0.40659138944E+02  0.00000000000E+00 0. -1.
         11    1    3    3    0    0 -0.13433715262E+01  0.18541051929E+02  0.10952868378E+02  0.21576389402E+02  0.51100000000E-03 0. -1.
        -11    1    3    3    0    0  0.15663540944E+02  0.79461512105E+01  0.94789387366E+01  0.19958409601E+02  0.51100000000E-03 0.  1.
        -12    1    3    3    0    0  0.38223677995E+01 -0.31672008732E+01  0.75000996822E+01  0.89940620528E+01  0.00000000000E+00 0.  1.
</event>
<event>
 7    1  0.2973028E-011  0.5052886E+02  0.7816164E-02  0.1300439E+00
        -11   -1    0    0    0    0  0.00000000000E+00  0.00000000000E+00  0.45593999997E+02  0.45594000000E+02  0.51100000000E-03 0.  1.
         11   -1    0    0    0    0 -0.00000000000E+00 -0.00000000000E+00 -0.45593999997E+02  0.45594000000E+02  0.51100000000E-03 0. -1.
    9900012    2    1    2    0    0  0.25502705092E+02 -0.28800109866E+02  0.13165543656E+02  0.50528857915E+02  0.29999994120E+02 0.  0.
         12    1    1    2    0    0 -0.25502705092E+02  0.28800109866E+02 -0.13165543656E+02  0.40659142085E+02  0.00000000000E+00 0. -1.
         11    1    3    3    0    0 -0.10764732781E-02  0.19341627712E+01  0.34282120010E+01  0.39361941732E+01  0.51100000000E-03 0. -1.
        -11    1    3    3    0    0  0.20456129959E+02 -0.32958150008E+02  0.46127521286E+01  0.39063670940E+02  0.51100000000E-03 0.  1.
        -12    1    3    3    0    0  0.50476516055E+01  0.22238773704E+01  0.51245795267E+01  0.75289928022E+01  0.00000000000E+00 0.  1.
</event>
<event>
 7    1  0.2973028E-011  0.5052886E+02  0.7816164E-02  0.1300439E+00
        -11   -1    0    0    0    0  0.00000000000E+00  0.00000000000E+00  0.45593999997E+02  0.45594000000E+02  0.51100000000E-03 0.  1.
         11   -1    0    0    0    0 -0.00000000000E+00 -0.00000000000E+00 -0.45593999997E+02  0.45594000000E+02  0.51100000000E-03 0. -1.
    9900012    2    1    2    0    0  0.14736551014E+02  0.23038055180E+02  0.30087336018E+02  0.50528859442E+02  0.29999998760E+02 0.  0.
         12    1    1    2    0    0 -0.14736551014E+02 -0.23038055180E+02 -0.30087336018E+02  0.40659140558E+02  0.00000000000E+00 0. -1.
         11    1    3    3    0    0  0.16701016951E+02  0.17224319240E+02  0.13737887868E+02  0.27646531497E+02  0.51100000000E-03 0. -1.
        -11    1    3    3    0    0 -0.76728751311E+01  0.68207320888E+00  0.50095701962E+01  0.91887991844E+01  0.51100000000E-03 0.  1.
        -12    1    3    3    0    0  0.57084091941E+01  0.51316627312E+01  0.11339877954E+02  0.13693528761E+02  0.00000000000E+00 0.  1.
</event>
<event>
 7    1  0.2973028E-011  0.5052886E+02  0.7816164E-02  0.1300439E+00
        -11   -1    0    0    0    0  0.00000000000E+00  0.00000000000E+00  0.45593999997E+02  0.45594000000E+02  0.51100000000E-03 0.  1.
         11   -1    0    0    0    0 -0.00000000000E+00 -0.00000000000E+00 -0.45593999997E+02  0.45594000000E+02  0.51100000000E-03 0. -1.
    9900012    2    1    2    0    0 -0.24141154974E+02  0.32562607141E+02  0.31697358825E+01  0.50528856220E+02  0.29999988967E+02 0.  0.
         12    1    1    2    0    0  0.24141154974E+02 -0.32562607141E+02 -0.31697358825E+01  0.40659143780E+02  0.00000000000E+00 0. -1.
         11    1    3    3    0    0 -0.14046137163E+02  0.17774155811E+02  0.12504852647E+02  0.25876358399E+02  0.51100000000E-03 0.  1.
        -11    1    3    3    0    0 -0.15258267544E+01  0.11674695681E+02 -0.10087227078E+02  0.15504154828E+02  0.51100000000E-03 0. -1.
         12    1    3    3    0    0 -0.85691910566E+01  0.31137556491E+01  0.75211031398E+00  0.91483429937E+01  0.00000000000E+00 0. -1.
</event>
<event>
 7    1  0.2973028E-011  0.5052887E+02  0.7816164E-02  0.1300439E+00
        -11   -1    0    0    0    0  0.00000000000E+00  0.00000000000E+00  0.45593999997E+02  0.45594000000E+02  0.51100000000E-03 0.  1.
         11   -1    0    0    0    0 -0.00000000000E+00 -0.00000000000E+00 -0.45593999997E+02  0.45594000000E+02  0.51100000000E-03 0. -1.
    9900012    2    1    2    0    0 -0.16953887937E+02 -0.36004250168E+02  0.83321174782E+01  0.50528873989E+02  0.30000042977E+02 0.  0.
         12    1    1    2    0    0  0.16953887937E+02  0.36004250168E+02 -0.83321174782E+01  0.40659126011E+02  0.00000000000E+00 0. -1.
         11    1    3    3    0    0 -0.14852074235E+01 -0.71280317885E+01  0.90965201561E+01  0.11651667584E+02  0.51100000000E-03 0. -1.
        -11    1    3    3    0    0 -0.18971000478E+02 -0.28392984687E+02  0.22631617517E+01  0.34222541400E+02  0.51100000000E-03 0.  1.
         12    1    3    3    0    0  0.35023199642E+01 -0.48323369273E+00 -0.30275644295E+01  0.46546650049E+01  0.00000000000E+00 0. -1.
</event>
<event>
 7    1  0.2973028E-011  0.5052885E+02  0.7816164E-02  0.1300439E+00
        -11   -1    0    0    0    0  0.00000000000E+00  0.00000000000E+00  0.45593999997E+02  0.45594000000E+02  0.51100000000E-03 0. -1.
         11   -1    0    0    0    0 -0.00000000000E+00 -0.00000000000E+00 -0.45593999997E+02  0.45594000000E+02  0.51100000000E-03 0.  1.
    9900012    2    1    2    0    0  0.36640244723E+02  0.39712249891E+00  0.17621043975E+02  0.50528850594E+02  0.29999971866E+02 0.  0.
         12    1    1    2    0    0 -0.36640244723E+02 -0.39712249891E+00 -0.17621043975E+02  0.40659149406E+02  0.00000000000E+00 0. -1.
         11    1    3    3    0    0  0.32107146269E+01 -0.69262966729E+01 -0.51650885198E+01  0.92173973384E+01  0.51100000000E-03 0. -1.
        -11    1    3    3    0    0  0.30052580863E+02  0.57903996907E+01  0.19064603899E+02  0.36057529965E+02  0.51100000000E-03 0.  1.
         12    1    3    3    0    0  0.33769492329E+01  0.15330194811E+01  0.37215285962E+01  0.52539232906E+01  0.00000000000E+00 0. -1.
</event>
<event>
 7    1  0.2973028E-011  0.5052886E+02  0.7816164E-02  0.1300439E+00
        -11   -1    0    0    0    0  0.00000000000E+00  0.00000000000E+00  0.45593999997E+02  0.45594000000E+02  0.51100000000E-03 0.  1.
         11   -1    0    0    0    0 -0.00000000000E+00 -0.00000000000E+00 -0.45593999997E+02  0.45594000000E+02  0.51100000000E-03 0. -1.
    9900012    2    1    2    0    0 -0.38079272264E+02 -0.76476612113E+01  0.12026963843E+02  0.50528861329E+02  0.30000004496E+02 0.  0.
         12    1    1    2    0    0  0.38079272264E+02  0.76476612113E+01 -0.12026963843E+02  0.40659138671E+02  0.00000000000E+00 0. -1.
         11    1    3    3    0    0 -0.22784988131E+01  0.39796967987E+01 -0.28726098961E+01  0.54112319602E+01  0.51100000000E-03 0. -1.
        -11    1    3    3    0    0 -0.31945887685E+02 -0.14997756096E+02  0.74355728705E+01  0.36066052904E+02  0.51100000000E-03 0.  1.
        -12    1    3    3    0    0 -0.38548857660E+01  0.33703980861E+01  0.74640008690E+01  0.90515764649E+01  0.00000000000E+00 0.  1.
</event>
<event>
 7    1  0.2973028E-011  0.5052886E+02  0.7816164E-02  0.1300439E+00
        -11   -1    0    0    0    0  0.00000000000E+00  0.00000000000E+00  0.45593999997E+02  0.45594000000E+02  0.51100000000E-03 0.  1.
         11   -1    0    0    0    0 -0.00000000000E+00 -0.00000000000E+00 -0.45593999997E+02  0.45594000000E+02  0.51100000000E-03 0. -1.
    9900012    2    1    2    0    0 -0.19741631677E+02  0.69666786877E+01  0.34855398772E+02  0.50528862567E+02  0.30000008259E+02 0.  0.
         12    1    1    2    0    0  0.19741631677E+02 -0.69666786877E+01 -0.34855398772E+02  0.40659137433E+02  0.00000000000E+00 0. -1.
         11    1    3    3    0    0 -0.43062397508E+01 -0.92874703168E+01  0.13833071564E+02  0.17209145093E+02  0.51100000000E-03 0. -1.
        -11    1    3    3    0    0 -0.13952106570E+02  0.68821513586E+01  0.88919183911E+01  0.17919026146E+02  0.51100000000E-03 0.  1.
         12    1    3    3    0    0 -0.14832853562E+01  0.93719976459E+01  0.12130408817E+02  0.15400691328E+02  0.00000000000E+00 0. -1.
</event>
<event>
 7    1  0.2973028E-011  0.5052887E+02  0.7816164E-02  0.1300439E+00
        -11   -1    0    0    0    0  0.00000000000E+00  0.00000000000E+00  0.45593999997E+02  0.45594000000E+02  0.51100000000E-03 0.  1.
         11   -1    0    0    0    0 -0.00000000000E+00 -0.00000000000E+00 -0.45593999997E+02  0.45594000000E+02  0.51100000000E-03 0. -1.
    9900012    2    1    2    0    0  0.20519746980E+02 -0.24158060181E+02  0.25465531483E+02  0.50528865952E+02  0.30000018547E+02 0.  0.
         12    1    1    2    0    0 -0.20519746980E+02  0.24158060181E+02 -0.25465531483E+02  0.40659134048E+02  0.00000000000E+00 0. -1.
         11    1    3    3    0    0 -0.17855826921E+01 -0.87355140211E+01  0.85783785519E+01  0.12372796353E+02  0.51100000000E-03 0. -1.
        -11    1    3    3    0    0  0.21729348982E+02 -0.44619660915E+01  0.66775320422E+01  0.23165991950E+02  0.51100000000E-03 0.  1.
        -12    1    3    3    0    0  0.57598068918E+00 -0.10960580069E+02  0.10209620889E+02  0.14990077648E+02  0.00000000000E+00 0.  1.
</event>
<event>
 7    1  0.2973028E-011  0.5052886E+02  0.7816164E-02  0.1300439E+00
        -11   -1    0    0    0    0  0.00000000000E+00  0.00000000000E+00  0.45593999997E+02  0.45594000000E+02  0.51100000000E-03 0. -1.
         11   -1    0    0    0    0 -0.00000000000E+00 -0.00000000000E+00 -0.45593999997E+02  0.45594000000E+02  0.51100000000E-03 0.  1.
    9900012    2    1    2    0    0  0.33887193231E+02  0.17617430132E+02 -0.13944534473E+02  0.50528858946E+02  0.29999997253E+02 0.  0.
         12    1    1    2    0    0 -0.33887193231E+02 -0.17617430132E+02  0.13944534473E+02  0.40659141054E+02  0.00000000000E+00 0. -1.
         11    1    3    3    0    0  0.90246484045E+00 -0.15897233414E+01 -0.24472360762E+01  0.30546076286E+01  0.51100000000E-03 0. -1.
        -11    1    3    3    0    0  0.22775579828E+02  0.93816249258E+01  0.56081129255E+01  0.25262479166E+02  0.51100000000E-03 0.  1.
        -12    1    3    3    0    0  0.10209148563E+02  0.98255285477E+01 -0.17105411323E+02  0.22211772152E+02  0.00000000000E+00 0.  1.
</event>
<event>
 7    1  0.2973028E-011  0.5052886E+02  0.7816164E-02  0.1300439E+00
        -11   -1    0    0    0    0  0.00000000000E+00  0.00000000000E+00  0.45593999997E+02  0.45594000000E+02  0.51100000000E-03 0. -1.
         11   -1    0    0    0    0 -0.00000000000E+00 -0.00000000000E+00 -0.45593999997E+02  0.45594000000E+02  0.51100000000E-03 0.  1.
    9900012    2    1    2    0    0  0.34575119393E+01 -0.33258520999E+02  0.23131844417E+02  0.50528857929E+02  0.29999994161E+02 0.  0.
         12    1    1    2    0    0 -0.34575119393E+01  0.33258520999E+02 -0.23131844417E+02  0.40659142071E+02  0.00000000000E+00 0. -1.
         11    1    3    3    0    0  0.10355501310E+02 -0.20004141335E+01  0.17510319764E+01  0.10691313172E+02  0.51100000000E-03 0. -1.
        -11    1    3    3    0    0 -0.39627198096E+01 -0.24588255477E+01  0.28251875080E+01  0.54525825147E+01  0.51100000000E-03 0.  1.
         12    1    3    3    0    0 -0.29352695614E+01 -0.28799281317E+02  0.18555624932E+02  0.34384962243E+02  0.00000000000E+00 0. -1.
</event>
<event>
 7    1  0.2973028E-011  0.5052886E+02  0.7816164E-02  0.1300439E+00
        -11   -1    0    0    0    0  0.00000000000E+00  0.00000000000E+00  0.45593999997E+02  0.45594000000E+02  0.51100000000E-03 0.  1.
         11   -1    0    0    0    0 -0.00000000000E+00 -0.00000000000E+00 -0.45593999997E+02  0.45594000000E+02  0.51100000000E-03 0. -1.
    9900012    2    1    2    0    0  0.21095266145E+02  0.31749623100E+02  0.14146252622E+02  0.50528864692E+02  0.30000014719E+02 0.  0.
         12    1    1    2    0    0 -0.21095266145E+02 -0.31749623100E+02 -0.14146252622E+02  0.40659135308E+02  0.00000000000E+00 0. -1.
         11    1    3    3    0    0 -0.97799302778E+00 -0.49026646735E+01  0.34031026252E+01  0.60476192838E+01  0.51100000000E-03 0. -1.
        -11    1    3    3    0    0  0.19395878659E+02  0.34944928365E+02  0.95753690093E+01  0.41097880959E+02  0.51100000000E-03 0.  1.
         12    1    3    3    0    0  0.26773805138E+01  0.17073594085E+01  0.11677809877E+01  0.33833644499E+01  0.00000000000E+00 0. -1.
</event>
<event>
 7    1  0.2973028E-011  0.5052886E+02  0.7816164E-02  0.1300439E+00
        -11   -1    0    0    0    0  0.00000000000E+00  0.00000000000E+00  0.45593999997E+02  0.45594000000E+02  0.51100000000E-03 0.  1.
         11   -1    0    0    0    0 -0.00000000000E+00 -0.00000000000E+00 -0.45593999997E+02  0.45594000000E+02  0.51100000000E-03 0. -1.
    9900012    2    1    2    0    0 -0.60595332942E+01  0.35644541021E+02  0.18598768902E+02  0.50528862613E+02  0.30000008399E+02 0.  0.
         12    1    1    2    0    0  0.60595332942E+01 -0.35644541021E+02 -0.18598768902E+02  0.40659137387E+02  0.00000000000E+00 0. -1.
         11    1    3    3    0    0  0.36108038056E+01  0.64922707811E+00 -0.18126122934E+00  0.36731806130E+01  0.51100000000E-03 0. -1.
        -11    1    3    3    0    0 -0.16223262510E+02  0.31048829215E+02  0.17274676140E+02  0.39059422399E+02  0.51100000000E-03 0.  1.
        -12    1    3    3    0    0  0.65529254099E+01  0.39464847278E+01  0.15053539909E+01  0.77962596014E+01  0.00000000000E+00 0.  1.
</event>
<event>
 7    1  0.2973028E-011  0.5052887E+02  0.7816164E-02  0.1300439E+00
        -11   -1    0    0    0    0  0.00000000000E+00  0.00000000000E+00  0.45593999997E+02  0.45594000000E+02  0.51100000000E-03 0.  1.
         11   -1    0    0    0    0 -0.00000000000E+00 -0.00000000000E+00 -0.45593999997E+02  0.45594000000E+02  0.51100000000E-03 0. -1.
    9900012    2    1    2    0    0 -0.26284847617E+02  0.15163469157E+02  0.27061797714E+02  0.50528869332E+02  0.30000028823E+02 0.  0.
         12    1    1    2    0    0  0.26284847617E+02 -0.15163469157E+02 -0.27061797714E+02  0.40659130668E+02  0.00000000000E+00 0. -1.
         11    1    3    3    0    0 -0.15448875882E+02  0.19401003556E+02  0.17019500935E+02  0.30078731977E+02  0.51100000000E-03 0. -1.
        -11    1    3    3    0    0 -0.94521566791E+01 -0.21564414069E+01 -0.40952887486E+00  0.97036704184E+01  0.51100000000E-03 0.  1.
        -12    1    3    3    0    0 -0.13838150565E+01 -0.20810929914E+01  0.10451825653E+02  0.10746466937E+02  0.00000000000E+00 0.  1.
</event>
<event>
 7    1  0.2973028E-011  0.5052886E+02  0.7816164E-02  0.1300439E+00
        -11   -1    0    0    0    0  0.00000000000E+00  0.00000000000E+00  0.45593999997E+02  0.45594000000E+02  0.51100000000E-03 0.  1.
         11   -1    0    0    0    0 -0.00000000000E+00 -0.00000000000E+00 -0.45593999997E+02  0.45594000000E+02  0.51100000000E-03 0. -1.
    9900012    2    1    2    0    0 -0.26684095904E+02 -0.17512419561E+02  0.25188092703E+02  0.50528858013E+02  0.29999994417E+02 0.  0.
         12    1    1    2    0    0  0.26684095904E+02  0.17512419561E+02 -0.25188092703E+02  0.40659141987E+02  0.00000000000E+00 0. -1.
         11    1    3    3    0    0 -0.60995606378E+01 -0.14230886402E+00  0.13939839913E+02  0.15216570863E+02  0.51100000000E-03 0. -1.
        -11    1    3    3    0    0 -0.24487009650E+02 -0.16269336162E+02  0.10269382002E+02  0.31141052450E+02  0.51100000000E-03 0.  1.
        -12    1    3    3    0    0  0.39024743844E+01 -0.11007745355E+01  0.97887078802E+00  0.41712346996E+01  0.00000000000E+00 0.  1.
</event>
<event>
 7    1  0.2973028E-011  0.5052886E+02  0.7816164E-02  0.1300439E+00
        -11   -1    0    0    0    0  0.00000000000E+00  0.00000000000E+00  0.45593999997E+02  0.45594000000E+02  0.51100000000E-03 0. -1.
         11   -1    0    0    0    0 -0.00000000000E+00 -0.00000000000E+00 -0.45593999997E+02  0.45594000000E+02  0.51100000000E-03 0.  1.
    9900012    2    1    2    0    0 -0.41753520420E+01 -0.13904851991E+02 -0.37978775640E+02  0.50528857453E+02  0.29999992713E+02 0.  0.
         12    1    1    2    0    0  0.41753520420E+01  0.13904851991E+02  0.37978775640E+02  0.40659142547E+02  0.00000000000E+00 0. -1.
         11    1    3    3    0    0  0.52734906403E+01 -0.91846545596E+01 -0.16206738640E+01  0.10714203981E+02  0.51100000000E-03 0. -1.
        -11    1    3    3    0    0 -0.81133048892E+01 -0.54816178510E+01 -0.12365007478E+02  0.15772357487E+02  0.51100000000E-03 0.  1.
         12    1    3    3    0    0 -0.13355377930E+01  0.76142041919E+00 -0.23993094298E+02  0.24042295985E+02  0.00000000000E+00 0. -1.
</event>
<event>
 7    1  0.2973028E-011  0.5052886E+02  0.7816164E-02  0.1300439E+00
        -11   -1    0    0    0    0  0.00000000000E+00  0.00000000000E+00  0.45593999997E+02  0.45594000000E+02  0.51100000000E-03 0.  1.
         11   -1    0    0    0    0 -0.00000000000E+00 -0.00000000000E+00 -0.45593999997E+02  0.45594000000E+02  0.51100000000E-03 0. -1.
    9900012    2    1    2    0    0  0.21171101863E+02 -0.65735553600E+01  0.34084288824E+02  0.50528856763E+02  0.29999990617E+02 0.  0.
         12    1    1    2    0    0 -0.21171101863E+02  0.65735553600E+01 -0.34084288824E+02  0.40659143237E+02  0.00000000000E+00 0. -1.
         11    1    3    3    0    0 -0.12771055540E+01 -0.49014143038E+01  0.16021578790E+02  0.16803149942E+02  0.51100000000E-03 0. -1.
        -11    1    3    3    0    0  0.15492045438E+02  0.24312421406E+01  0.20808391210E+01  0.15819111919E+02  0.51100000000E-03 0.  1.
        -12    1    3    3    0    0  0.69561619788E+01 -0.41033831967E+01  0.15981870913E+02  0.17906594902E+02  0.00000000000E+00 0.  1.
</event>
<event>
 7    1  0.2973028E-011  0.5052887E+02  0.7816164E-02  0.1300439E+00
        -11   -1    0    0    0    0  0.00000000000E+00  0.00000000000E+00  0.45593999997E+02  0.45594000000E+02  0.51100000000E-03 0. -1.
         11   -1    0    0    0    0 -0.00000000000E+00 -0.00000000000E+00 -0.45593999997E+02  0.45594000000E+02  0.51100000000E-03 0.  1.
    9900012    2    1    2    0    0  0.66421723535E+01 -0.17072059846E+02 -0.36298641348E+02  0.50528867635E+02  0.30000023664E+02 0.  0.
         12    1    1    2    0    0 -0.66421723535E+01  0.17072059846E+02  0.36298641348E+02  0.40659132365E+02  0.00000000000E+00 0. -1.
         11    1    3    3    0    0  0.90441268140E+01  0.18563590446E+01 -0.10367139635E+02  0.13882358704E+02  0.51100000000E-03 0. -1.
        -11    1    3    3    0    0 -0.17003486730E+00 -0.78985343807E+01  0.50297735491E+00  0.79163592453E+01  0.51100000000E-03 0.  1.
         12    1    3    3    0    0 -0.22319195932E+01 -0.11029884510E+02 -0.26434479068E+02  0.28730149686E+02  0.00000000000E+00 0. -1.
</event>
<event>
 7    1  0.2973028E-011  0.5052885E+02  0.7816164E-02  0.1300439E+00
        -11   -1    0    0    0    0  0.00000000000E+00  0.00000000000E+00  0.45593999997E+02  0.45594000000E+02  0.51100000000E-03 0. -1.
         11   -1    0    0    0    0 -0.00000000000E+00 -0.00000000000E+00 -0.45593999997E+02  0.45594000000E+02  0.51100000000E-03 0.  1.
    9900012    2    1    2    0    0  0.28893072076E+02 -0.27229066525E+02  0.87712376088E+01  0.50528852357E+02  0.29999977225E+02 0.  0.
         12    1    1    2    0    0 -0.28893072076E+02  0.27229066525E+02 -0.87712376088E+01  0.40659147643E+02  0.00000000000E+00 0. -1.
         11    1    3    3    0    0 -0.47434017116E+01 -0.76209187691E+01  0.50989859511E+01  0.10323658299E+02  0.51100000000E-03 0. -1.
        -11    1    3    3    0    0  0.32948724071E+02 -0.20558440448E+02  0.38156074877E+01  0.39023412874E+02  0.51100000000E-03 0.  1.
         12    1    3    3    0    0  0.68774971737E+00  0.95029269202E+00 -0.14335583004E+00  0.11817811846E+01  0.00000000000E+00 0. -1.
</event>
<event>
 7    1  0.2973028E-011  0.5052886E+02  0.7816164E-02  0.1300439E+00
        -11   -1    0    0    0    0  0.00000000000E+00  0.00000000000E+00  0.45593999997E+02  0.45594000000E+02  0.51100000000E-03 0.  1.
         11   -1    0    0    0    0 -0.00000000000E+00 -0.00000000000E+00 -0.45593999997E+02  0.45594000000E+02  0.51100000000E-03 0. -1.
    9900012    2    1    2    0    0 -0.71729803131E+01 -0.85784033466E+00  0.40012229315E+02  0.50528855501E+02  0.29999986782E+02 0.  0.
         12    1    1    2    0    0  0.71729803131E+01  0.85784033466E+00 -0.40012229315E+02  0.40659144499E+02  0.00000000000E+00 0. -1.
         11    1    3    3    0    0  0.13702903053E+01  0.17292004398E+01 -0.20745709481E+01  0.30284772678E+01  0.51100000000E-03 0. -1.
        -11    1    3    3    0    0 -0.72539818345E+01 -0.10869408890E+02  0.30661803347E+02  0.33330323833E+02  0.51100000000E-03 0.  1.
        -12    1    3    3    0    0 -0.12892887839E+01  0.82823681157E+01  0.11424996916E+02  0.14170054400E+02  0.00000000000E+00 0.  1.
</event>
<event>
 7    1  0.2973028E-011  0.5052887E+02  0.7816164E-02  0.1300439E+00
        -11   -1    0    0    0    0  0.00000000000E+00  0.00000000000E+00  0.45593999997E+02  0.45594000000E+02  0.51100000000E-03 0.  1.
         11   -1    0    0    0    0 -0.00000000000E+00 -0.00000000000E+00 -0.45593999997E+02  0.45594000000E+02  0.51100000000E-03 0. -1.
    9900012    2    1    2    0    0 -0.17430230941E+02  0.27918818052E+02  0.23872399429E+02  0.50528870563E+02  0.30000032564E+02 0.  0.
         12    1    1    2    0    0  0.17430230941E+02 -0.27918818052E+02 -0.23872399429E+02  0.40659129437E+02  0.00000000000E+00 0. -1.
         11    1    3    3    0    0 -0.16521198698E+02  0.27147263438E+02  0.23923478281E+02  0.39777590826E+02  0.51100000000E-03 0. -1.
        -11    1    3    3    0    0 -0.55678818863E+01 -0.76206009940E+00  0.10682015738E+01  0.57204107509E+01  0.51100000000E-03 0.  1.
         12    1    3    3    0    0  0.46588496434E+01  0.15336147133E+01 -0.11192804255E+01  0.50308689865E+01  0.00000000000E+00 0. -1.
</event>
<event>
 7    1  0.2973028E-011  0.5052885E+02  0.7816164E-02  0.1300439E+00
        -11   -1    0    0    0    0  0.00000000000E+00  0.00000000000E+00  0.45593999997E+02  0.45594000000E+02  0.51100000000E-03 0.  1.
         11   -1    0    0    0    0 -0.00000000000E+00 -0.00000000000E+00 -0.45593999997E+02  0.45594000000E+02  0.51100000000E-03 0. -1.
    9900012    2    1    2    0    0 -0.18665243308E+02  0.44411008950E+01  0.35847619549E+02  0.50528849588E+02  0.29999968808E+02 0.  0.
         12    1    1    2    0    0  0.18665243308E+02 -0.44411008950E+01 -0.35847619549E+02  0.40659150412E+02  0.00000000000E+00 0. -1.
         11    1    3    3    0    0 -0.10473171328E+01 -0.21245243402E+01 -0.25914595931E+01  0.35108602838E+01  0.51100000000E-03 0. -1.
        -11    1    3    3    0    0 -0.14949739718E+02  0.31038597827E+01  0.39645328368E+02  0.42483887826E+02  0.51100000000E-03 0.  1.
        -12    1    3    3    0    0 -0.26681864574E+01  0.34617654525E+01 -0.12062492261E+01  0.45341014782E+01  0.00000000000E+00 0.  1.
</event>
<event>
 7    1  0.2973028E-011  0.5052887E+02  0.7816164E-02  0.1300439E+00
        -11   -1    0    0    0    0  0.00000000000E+00  0.00000000000E+00  0.45593999997E+02  0.45594000000E+02  0.51100000000E-03 0. -1.
         11   -1    0    0    0    0 -0.00000000000E+00 -0.00000000000E+00 -0.45593999997E+02  0.45594000000E+02  0.51100000000E-03 0.  1.
    9900012    2    1    2    0    0 -0.28229480031E+02  0.29257769047E+02 -0.49441422530E+00  0.50528867719E+02  0.30000023920E+02 0.  0.
         12    1    1    2    0    0  0.28229480031E+02 -0.29257769047E+02  0.49441422530E+00  0.40659132281E+02  0.00000000000E+00 0. -1.
         11    1    3    3    0    0 -0.99351922336E+00  0.78713957402E+01  0.10729007588E+01  0.80060644293E+01  0.51100000000E-03 0. -1.
        -11    1    3    3    0    0 -0.12302532626E+02  0.10682493252E+00 -0.92751626681E+01  0.15407542418E+02  0.51100000000E-03 0.  1.
        -12    1    3    3    0    0 -0.14933428181E+02  0.21279548374E+02  0.77078476839E+01  0.27115260872E+02  0.00000000000E+00 0.  1.
</event>
<event>
 7    1  0.2973028E-011  0.5052888E+02  0.7816164E-02  0.1300439E+00
        -11   -1    0    0    0    0  0.00000000000E+00  0.00000000000E+00  0.45593999997E+02  0.45594000000E+02  0.51100000000E-03 0.  1.
         11   -1    0    0    0    0 -0.00000000000E+00 -0.00000000000E+00 -0.45593999997E+02  0.45594000000E+02  0.51100000000E-03 0. -1.
    9900012    2    1    2    0    0  0.23710429870E+01 -0.13011609972E+02  0.38447893734E+02  0.50528875913E+02  0.30000048825E+02 0.  0.
         12    1    1    2    0    0 -0.23710429870E+01  0.13011609972E+02 -0.38447893734E+02  0.40659124087E+02  0.00000000000E+00 0. -1.
         11    1    3    3    0    0  0.11281595821E+01  0.59256480241E+01  0.12416433913E+01  0.61585491084E+01  0.51100000000E-03 0. -1.
        -11    1    3    3    0    0 -0.73772311402E+00 -0.15951831091E+02  0.15106544066E+02  0.21982102366E+02  0.51100000000E-03 0.  1.
        -12    1    3    3    0    0  0.19806065190E+01 -0.29854269055E+01  0.22099706277E+02  0.22388224439E+02  0.00000000000E+00 0.  1.
</event>
<event>
 7    1  0.2973028E-011  0.5052886E+02  0.7816164E-02  0.1300439E+00
        -11   -1    0    0    0    0  0.00000000000E+00  0.00000000000E+00  0.45593999997E+02  0.45594000000E+02  0.51100000000E-03 0. -1.
         11   -1    0    0    0    0 -0.00000000000E+00 -0.00000000000E+00 -0.45593999997E+02  0.45594000000E+02  0.51100000000E-03 0.  1.
    9900012    2    1    2    0    0 -0.24997712921E+02 -0.32013808118E+02 -0.18427794246E+01  0.50528863296E+02  0.30000010475E+02 0.  0.
         12    1    1    2    0    0  0.24997712921E+02  0.32013808118E+02  0.18427794246E+01  0.40659136704E+02  0.00000000000E+00 0. -1.
         11    1    3    3    0    0  0.41524417582E+00 -0.35616479321E+01 -0.49744202394E+01  0.61320975772E+01  0.51100000000E-03 0. -1.
        -11    1    3    3    0    0 -0.29165356298E+02 -0.22744020468E+02  0.49826420384E+01  0.37319367586E+02  0.51100000000E-03 0.  1.
        -12    1    3    3    0    0  0.37523992014E+01 -0.57081397180E+01 -0.18510012236E+01  0.70773981332E+01  0.00000000000E+00 0.  1.
</event>
<event>
 7    1  0.2973028E-011  0.5052890E+02  0.7816164E-02  0.1300439E+00
        -11   -1    0    0    0    0  0.00000000000E+00  0.00000000000E+00  0.45593999997E+02  0.45594000000E+02  0.51100000000E-03 0. -1.
         11   -1    0    0    0    0 -0.00000000000E+00 -0.00000000000E+00 -0.45593999997E+02  0.45594000000E+02  0.51100000000E-03 0.  1.
    9900012    2    1    2    0    0 -0.17950158488E+02 -0.36030513715E+02  0.57232853087E+01  0.50528903809E+02  0.30000133618E+02 0.  0.
         12    1    1    2    0    0  0.17950158488E+02  0.36030513715E+02 -0.57232853087E+01  0.40659096191E+02  0.00000000000E+00 0. -1.
         11    1    3    3    0    0  0.51729461344E+01 -0.66966485856E+01 -0.37792830886E+01  0.92675484846E+01  0.51100000000E-03 0. -1.
        -11    1    3    3    0    0 -0.16078122337E+02 -0.18310827586E+02  0.13137565127E+02  0.27683714391E+02  0.51100000000E-03 0.  1.
        -12    1    3    3    0    0 -0.70449822855E+01 -0.11023037544E+02 -0.36349967294E+01  0.13577640934E+02  0.00000000000E+00 0.  1.
</event>
<event>
 7    1  0.2973028E-011  0.5052886E+02  0.7816164E-02  0.1300439E+00
        -11   -1    0    0    0    0  0.00000000000E+00  0.00000000000E+00  0.45593999997E+02  0.45594000000E+02  0.51100000000E-03 0.  1.
         11   -1    0    0    0    0 -0.00000000000E+00 -0.00000000000E+00 -0.45593999997E+02  0.45594000000E+02  0.51100000000E-03 0. -1.
    9900012    2    1    2    0    0  0.29358760499E+02 -0.11266515761E+02  0.25773915655E+02  0.50528856826E+02  0.29999990808E+02 0.  0.
         12    1    1    2    0    0 -0.29358760499E+02  0.11266515761E+02 -0.25773915655E+02  0.40659143174E+02  0.00000000000E+00 0. -1.
         11    1    3    3    0    0  0.15353309215E+01 -0.10209441056E+02  0.10652326108E+02  0.14834486155E+02  0.51100000000E-03 0. -1.
        -11    1    3    3    0    0  0.25776922398E+02 -0.63743411809E+01  0.11453729219E+02  0.28918330987E+02  0.51100000000E-03 0.  1.
         12    1    3    3    0    0  0.20465071801E+01  0.53172664758E+01  0.36678603285E+01  0.67760396842E+01  0.00000000000E+00 0. -1.
</event>
<event>
 7    1  0.2973028E-011  0.5052887E+02  0.7816164E-02  0.1300439E+00
        -11   -1    0    0    0    0  0.00000000000E+00  0.00000000000E+00  0.45593999997E+02  0.45594000000E+02  0.51100000000E-03 0. -1.
         11   -1    0    0    0    0 -0.00000000000E+00 -0.00000000000E+00 -0.45593999997E+02  0.45594000000E+02  0.51100000000E-03 0.  1.
    9900012    2    1    2    0    0 -0.22722490539E+02  0.19695967952E+02 -0.27366447746E+02  0.50528865822E+02  0.30000018152E+02 0.  0.
         12    1    1    2    0    0  0.22722490539E+02 -0.19695967952E+02  0.27366447746E+02  0.40659134178E+02  0.00000000000E+00 0. -1.
         11    1    3    3    0    0  0.38930365750E+01  0.71369251587E+01 -0.64401712388E+01  0.10371462787E+02  0.51100000000E-03 0. -1.
        -11    1    3    3    0    0 -0.20278586996E+02  0.84668697852E+01 -0.23512474968E+02  0.32182999455E+02  0.51100000000E-03 0.  1.
         12    1    3    3    0    0 -0.63369401180E+01  0.40921730078E+01  0.25861984604E+01  0.79744035802E+01  0.00000000000E+00 0. -1.
</event>
<event>
 7    1  0.2973028E-011  0.5052888E+02  0.7816164E-02  0.1300439E+00
        -11   -1    0    0    0    0  0.00000000000E+00  0.00000000000E+00  0.45593999997E+02  0.45594000000E+02  0.51100000000E-03 0.  1.
         11   -1    0    0    0    0 -0.00000000000E+00 -0.00000000000E+00 -0.45593999997E+02  0.45594000000E+02  0.51100000000E-03 0. -1.
    9900012    2    1    2    0    0 -0.11441138288E+02  0.10827163412E+02  0.37483825485E+02  0.50528876966E+02  0.30000052026E+02 0.  0.
         12    1    1    2    0    0  0.11441138288E+02 -0.10827163412E+02 -0.37483825485E+02  0.40659123034E+02  0.00000000000E+00 0. -1.
         11    1    3    3    0    0  0.10257332133E+02  0.42777392051E+01  0.11685618322E+02  0.16126549260E+02  0.51100000000E-03 0. -1.
        -11    1    3    3    0    0 -0.13086686892E+02  0.29797619556E+01  0.15836645625E+02  0.20759087168E+02  0.51100000000E-03 0.  1.
         12    1    3    3    0    0 -0.86117835280E+01  0.35696622511E+01  0.99615615383E+01  0.13643240539E+02  0.00000000000E+00 0. -1.
</event>
<event>
 7    1  0.2973028E-011  0.5052886E+02  0.7816164E-02  0.1300439E+00
        -11   -1    0    0    0    0  0.00000000000E+00  0.00000000000E+00  0.45593999997E+02  0.45594000000E+02  0.51100000000E-03 0. -1.
         11   -1    0    0    0    0 -0.00000000000E+00 -0.00000000000E+00 -0.45593999997E+02  0.45594000000E+02  0.51100000000E-03 0.  1.
    9900012    2    1    2    0    0  0.49691056016E+01 -0.23694637016E+02 -0.32665547489E+02  0.50528858020E+02  0.29999994437E+02 0.  0.
         12    1    1    2    0    0 -0.49691056016E+01  0.23694637016E+02  0.32665547489E+02  0.40659141980E+02  0.00000000000E+00 0. -1.
         11    1    3    3    0    0  0.14642788923E+02 -0.16240181526E+02 -0.27093934041E+02  0.34817180034E+02  0.51100000000E-03 0. -1.
        -11    1    3    3    0    0 -0.43900109708E+01  0.88715364373E+00 -0.22857861912E+00  0.44845831866E+01  0.51100000000E-03 0.  1.
        -12    1    3    3    0    0 -0.52836723507E+01 -0.83416091338E+01 -0.53430348292E+01  0.11227094799E+02  0.00000000000E+00 0.  1.
</event>
<event>
 7    1  0.2973028E-011  0.5052883E+02  0.7816164E-02  0.1300439E+00
        -11   -1    0    0    0    0  0.00000000000E+00  0.00000000000E+00  0.45593999997E+02  0.45594000000E+02  0.51100000000E-03 0. -1.
         11   -1    0    0    0    0 -0.00000000000E+00 -0.00000000000E+00 -0.45593999997E+02  0.45594000000E+02  0.51100000000E-03 0.  1.
    9900012    2    1    2    0    0 -0.84382863727E+01 -0.38975812280E+02 -0.79277613664E+01  0.50528831046E+02  0.29999912447E+02 0.  0.
         12    1    1    2    0    0  0.84382863727E+01  0.38975812280E+02  0.79277613664E+01  0.40659168954E+02  0.00000000000E+00 0. -1.
         11    1    3    3    0    0 -0.92765468093E+01 -0.20166959338E+02 -0.25791307833E+01  0.22347538690E+02  0.51100000000E-03 0. -1.
        -11    1    3    3    0    0  0.79772060296E+00 -0.11204787118E+02 -0.13144818902E+02  0.17290745408E+02  0.51100000000E-03 0.  1.
        -12    1    3    3    0    0  0.40539833565E-01 -0.76040658236E+01  0.77961883190E+01  0.10890546948E+02  0.00000000000E+00 0.  1.
</event>
<event>
 7    1  0.2973028E-011  0.5052886E+02  0.7816164E-02  0.1300439E+00
        -11   -1    0    0    0    0  0.00000000000E+00  0.00000000000E+00  0.45593999997E+02  0.45594000000E+02  0.51100000000E-03 0.  1.
         11   -1    0    0    0    0 -0.00000000000E+00 -0.00000000000E+00 -0.45593999997E+02  0.45594000000E+02  0.51100000000E-03 0. -1.
    9900012    2    1    2    0    0  0.14851965191E+02 -0.34622608207E+02  0.15292478206E+02  0.50528858853E+02  0.29999996971E+02 0.  0.
         12    1    1    2    0    0 -0.14851965191E+02  0.34622608207E+02 -0.15292478206E+02  0.40659141147E+02  0.00000000000E+00 0. -1.
         11    1    3    3    0    0 -0.46995556765E+01 -0.61594622817E+01 -0.13838848345E+00  0.77488031843E+01  0.51100000000E-03 0. -1.
        -11    1    3    3    0    0  0.22321606948E+02 -0.22775489787E+02  0.17170566012E+02  0.36218854334E+02  0.51100000000E-03 0.  1.
        -12    1    3    3    0    0 -0.27700860804E+01 -0.56876561377E+01 -0.17396993222E+01  0.65612013356E+01  0.00000000000E+00 0.  1.
</event>
<event>
 7    1  0.2973028E-011  0.5052886E+02  0.7816164E-02  0.1300439E+00
        -11   -1    0    0    0    0  0.00000000000E+00  0.00000000000E+00  0.45593999997E+02  0.45594000000E+02  0.51100000000E-03 0. -1.
         11   -1    0    0    0    0 -0.00000000000E+00 -0.00000000000E+00 -0.45593999997E+02  0.45594000000E+02  0.51100000000E-03 0.  1.
    9900012    2    1    2    0    0 -0.99941852206E+01 -0.39276616106E+02 -0.32602277918E+01  0.50528863312E+02  0.30000010522E+02 0.  0.
         12    1    1    2    0    0  0.99941852206E+01  0.39276616106E+02  0.32602277918E+01  0.40659136688E+02  0.00000000000E+00 0. -1.
         11    1    3    3    0    0 -0.18908144063E+01 -0.18099219316E+01  0.52271773911E+01  0.58458857547E+01  0.51100000000E-03 0. -1.
        -11    1    3    3    0    0 -0.14589415772E+02 -0.31774869208E+02 -0.47740968877E+01  0.35288601093E+02  0.51100000000E-03 0.  1.
        -12    1    3    3    0    0  0.64860449579E+01 -0.56918249668E+01 -0.37133082952E+01  0.93943764638E+01  0.00000000000E+00 0.  1.
</event>
<event>
 7    1  0.2973028E-011  0.5052885E+02  0.7816164E-02  0.1300439E+00
        -11   -1    0    0    0    0  0.00000000000E+00  0.00000000000E+00  0.45593999997E+02  0.45594000000E+02  0.51100000000E-03 0. -1.
         11   -1    0    0    0    0 -0.00000000000E+00 -0.00000000000E+00 -0.45593999997E+02  0.45594000000E+02  0.51100000000E-03 0.  1.
    9900012    2    1    2    0    0  0.26070559851E+02  0.19066463606E+02 -0.24697413487E+02  0.50528851480E+02  0.29999974559E+02 0.  0.
         12    1    1    2    0    0 -0.26070559851E+02 -0.19066463606E+02  0.24697413487E+02  0.40659148520E+02  0.00000000000E+00 0. -1.
         11    1    3    3    0    0 -0.57004448545E+01  0.34272159520E+01 -0.31979634413E+01  0.73802338143E+01  0.51100000000E-03 0. -1.
        -11    1    3    3    0    0  0.28131291828E+02  0.92002781590E+01 -0.19643082622E+02  0.35522744732E+02  0.51100000000E-03 0.  1.
        -12    1    3    3    0    0  0.36397128776E+01  0.64389694955E+01 -0.18563674237E+01  0.76258729341E+01  0.00000000000E+00 0.  1.
</event>
<event>
 7    1  0.2973028E-011  0.5052886E+02  0.7816164E-02  0.1300439E+00
        -11   -1    0    0    0    0  0.00000000000E+00  0.00000000000E+00  0.45593999997E+02  0.45594000000E+02  0.51100000000E-03 0. -1.
         11   -1    0    0    0    0 -0.00000000000E+00 -0.00000000000E+00 -0.45593999997E+02  0.45594000000E+02  0.51100000000E-03 0.  1.
    9900012    2    1    2    0    0  0.36559867627E+02 -0.14969461690E+02  0.96154586196E+01  0.50528858978E+02  0.29999997349E+02 0.  0.
         12    1    1    2    0    0 -0.36559867627E+02  0.14969461690E+02 -0.96154586196E+01  0.40659141022E+02  0.00000000000E+00 0. -1.
         11    1    3    3    0    0  0.44931590111E+01 -0.95602965250E+01  0.10984889774E+02  0.15239932780E+02  0.51100000000E-03 0. -1.
        -11    1    3    3    0    0  0.13978266294E+02  0.32890987484E+01  0.31816401854E+01  0.14708260730E+02  0.51100000000E-03 0.  1.
         12    1    3    3    0    0  0.18088442322E+02 -0.86982639138E+01 -0.45510713398E+01  0.20580665468E+02  0.00000000000E+00 0. -1.
</event>
<event>
 7    1  0.2973028E-011  0.5052886E+02  0.7816164E-02  0.1300439E+00
        -11   -1    0    0    0    0  0.00000000000E+00  0.00000000000E+00  0.45593999997E+02  0.45594000000E+02  0.51100000000E-03 0. -1.
         11   -1    0    0    0    0 -0.00000000000E+00 -0.00000000000E+00 -0.45593999997E+02  0.45594000000E+02  0.51100000000E-03 0.  1.
    9900012    2    1    2    0    0 -0.39392048611E+02  0.82391016661E+01  0.57921492419E+01  0.50528864706E+02  0.30000014760E+02 0.  0.
         12    1    1    2    0    0  0.39392048611E+02 -0.82391016661E+01 -0.57921492419E+01  0.40659135294E+02  0.00000000000E+00 0. -1.
         11    1    3    3    0    0 -0.76018377507E+01 -0.22650168970E+01  0.46123912920E+01  0.91756412541E+01  0.51100000000E-03 0. -1.
        -11    1    3    3    0    0 -0.45057570281E+01  0.31433931167E+01 -0.96377745357E+01  0.11093667786E+02  0.51100000000E-03 0.  1.
        -12    1    3    3    0    0 -0.27284453832E+02  0.73607254465E+01  0.10817532486E+02  0.30259555666E+02  0.00000000000E+00 0.  1.
</event>
<event>
 7    1  0.2973028E-011  0.5052886E+02  0.7816164E-02  0.1300439E+00
        -11   -1    0    0    0    0  0.00000000000E+00  0.00000000000E+00  0.45593999997E+02  0.45594000000E+02  0.51100000000E-03 0.  1.
         11   -1    0    0    0    0 -0.00000000000E+00 -0.00000000000E+00 -0.45593999997E+02  0.45594000000E+02  0.51100000000E-03 0. -1.
    9900012    2    1    2    0    0  0.18231566431E+02 -0.27306168549E+02  0.23982256282E+02  0.50528862383E+02  0.30000007699E+02 0.  0.
         12    1    1    2    0    0 -0.18231566431E+02  0.27306168549E+02 -0.23982256282E+02  0.40659137617E+02  0.00000000000E+00 0. -1.
         11    1    3    3    0    0  0.12848542294E+02 -0.59589389503E+01 -0.34421232485E+01  0.14575397258E+02  0.51100000000E-03 0. -1.
        -11    1    3    3    0    0  0.53936840269E+01 -0.87019744099E+01  0.15477493500E+02  0.18557181664E+02  0.51100000000E-03 0.  1.
         12    1    3    3    0    0 -0.10659889774E-01 -0.12645255189E+02  0.11946886030E+02  0.17396283461E+02  0.00000000000E+00 0. -1.
</event>
<event>
 7    1  0.2973028E-011  0.5052886E+02  0.7816164E-02  0.1300439E+00
        -11   -1    0    0    0    0  0.00000000000E+00  0.00000000000E+00  0.45593999997E+02  0.45594000000E+02  0.51100000000E-03 0. -1.
         11   -1    0    0    0    0 -0.00000000000E+00 -0.00000000000E+00 -0.45593999997E+02  0.45594000000E+02  0.51100000000E-03 0.  1.
    9900012    2    1    2    0    0  0.36176416701E+02 -0.82337092695E+01 -0.16632458374E+02  0.50528858774E+02  0.29999996730E+02 0.  0.
         12    1    1    2    0    0 -0.36176416701E+02  0.82337092695E+01  0.16632458374E+02  0.40659141226E+02  0.00000000000E+00 0. -1.
         11    1    3    3    0    0 -0.44836840510E+00  0.27976080163E+01 -0.58502296256E+01  0.65002178250E+01  0.51100000000E-03 0. -1.
        -11    1    3    3    0    0  0.18837147280E+02 -0.14478539780E+02 -0.18567835377E+01  0.23830943691E+02  0.51100000000E-03 0.  1.
         12    1    3    3    0    0  0.17787637826E+02  0.34472224940E+01 -0.89254452109E+01  0.20197697259E+02  0.00000000000E+00 0. -1.
</event>
<event>
 7    1  0.2973028E-011  0.5052884E+02  0.7816164E-02  0.1300439E+00
        -11   -1    0    0    0    0  0.00000000000E+00  0.00000000000E+00  0.45593999997E+02  0.45594000000E+02  0.51100000000E-03 0. -1.
         11   -1    0    0    0    0 -0.00000000000E+00 -0.00000000000E+00 -0.45593999997E+02  0.45594000000E+02  0.51100000000E-03 0.  1.
    9900012    2    1    2    0    0 -0.38893003611E+02 -0.25563697383E+01 -0.11574399501E+02  0.50528837688E+02  0.29999932636E+02 0.  0.
         12    1    1    2    0    0  0.38893003611E+02  0.25563697383E+01  0.11574399501E+02  0.40659162312E+02  0.00000000000E+00 0. -1.
         11    1    3    3    0    0  0.30698831748E+01  0.36904398338E+01 -0.55615875977E+01  0.73467534151E+01  0.51100000000E-03 0. -1.
        -11    1    3    3    0    0 -0.21443196780E+02 -0.21880145043E+01 -0.55592903526E+01  0.22259914760E+02  0.51100000000E-03 0.  1.
         12    1    3    3    0    0 -0.20519690006E+02 -0.40587950678E+01 -0.45352155042E+00  0.20922169513E+02  0.00000000000E+00 0. -1.
</event>
<event>
 7    1  0.2973028E-011  0.5052886E+02  0.7816164E-02  0.1300439E+00
        -11   -1    0    0    0    0  0.00000000000E+00  0.00000000000E+00  0.45593999997E+02  0.45594000000E+02  0.51100000000E-03 0. -1.
         11   -1    0    0    0    0 -0.00000000000E+00 -0.00000000000E+00 -0.45593999997E+02  0.45594000000E+02  0.51100000000E-03 0.  1.
    9900012    2    1    2    0    0  0.20198617143E+02  0.33810401829E+02  0.10101412855E+02  0.50528856526E+02  0.29999989897E+02 0.  0.
         12    1    1    2    0    0 -0.20198617143E+02 -0.33810401829E+02 -0.10101412855E+02  0.40659143474E+02  0.00000000000E+00 0. -1.
         11    1    3    3    0    0 -0.82320513481E+00 -0.21692824851E+00  0.92218107041E+01  0.92610214060E+01  0.51100000000E-03 0. -1.
        -11    1    3    3    0    0  0.16227972228E+02  0.32326004027E+02  0.67719202621E+00  0.36177012152E+02  0.51100000000E-03 0.  1.
        -12    1    3    3    0    0  0.47938500497E+01  0.17013260511E+01  0.20241012464E+00  0.50908229678E+01  0.00000000000E+00 0.  1.
</event>
<event>
 7    1  0.2973028E-011  0.5052886E+02  0.7816164E-02  0.1300439E+00
        -11   -1    0    0    0    0  0.00000000000E+00  0.00000000000E+00  0.45593999997E+02  0.45594000000E+02  0.51100000000E-03 0.  1.
         11   -1    0    0    0    0 -0.00000000000E+00 -0.00000000000E+00 -0.45593999997E+02  0.45594000000E+02  0.51100000000E-03 0. -1.
    9900012    2    1    2    0    0  0.65674258351E+01  0.16346441835E+02  0.36644624013E+02  0.50528859431E+02  0.29999998726E+02 0.  0.
         12    1    1    2    0    0 -0.65674258351E+01 -0.16346441835E+02 -0.36644624013E+02  0.40659140569E+02  0.00000000000E+00 0. -1.
         11    1    3    3    0    0  0.36897269413E+01  0.26401382014E+01  0.42749656347E+01  0.62337585824E+01  0.51100000000E-03 0. -1.
        -11    1    3    3    0    0  0.14208086252E+01  0.15663936690E+01  0.31992446896E+02  0.32062266684E+02  0.51100000000E-03 0.  1.
        -12    1    3    3    0    0  0.14568902686E+01  0.12139909964E+02  0.37721148282E+00  0.12232834165E+02  0.00000000000E+00 0.  1.
</event>
<event>
 7    1  0.2973028E-011  0.5052886E+02  0.7816164E-02  0.1300439E+00
        -11   -1    0    0    0    0  0.00000000000E+00  0.00000000000E+00  0.45593999997E+02  0.45594000000E+02  0.51100000000E-03 0.  1.
         11   -1    0    0    0    0 -0.00000000000E+00 -0.00000000000E+00 -0.45593999997E+02  0.45594000000E+02  0.51100000000E-03 0. -1.
    9900012    2    1    2    0    0 -0.29984747373E+01  0.11561534838E+02  0.38865225964E+02  0.50528859234E+02  0.29999998129E+02 0.  0.
         12    1    1    2    0    0  0.29984747373E+01 -0.11561534838E+02 -0.38865225964E+02  0.40659140766E+02  0.00000000000E+00 0. -1.
         11    1    3    3    0    0  0.93006854381E+01  0.19215311547E+00  0.28789170782E+01  0.97379585254E+01  0.51100000000E-03 0. -1.
        -11    1    3    3    0    0 -0.26670056128E+01  0.67498119431E+00  0.15571454273E+02  0.15812612276E+02  0.51100000000E-03 0.  1.
         12    1    3    3    0    0 -0.96321545627E+01  0.10694400528E+02  0.20414854613E+02  0.24978288433E+02  0.00000000000E+00 0. -1.
</event>
<event>
 7    1  0.2973028E-011  0.5052886E+02  0.7816164E-02  0.1300439E+00
        -11   -1    0    0    0    0  0.00000000000E+00  0.00000000000E+00  0.45593999997E+02  0.45594000000E+02  0.51100000000E-03 0. -1.
         11   -1    0    0    0    0 -0.00000000000E+00 -0.00000000000E+00 -0.45593999997E+02  0.45594000000E+02  0.51100000000E-03 0.  1.
    9900012    2    1    2    0    0  0.20611064176E+02  0.23342231172E+01 -0.34969998674E+02  0.50528863619E+02  0.30000011455E+02 0.  0.
         12    1    1    2    0    0 -0.20611064176E+02 -0.23342231172E+01  0.34969998674E+02  0.40659136381E+02  0.00000000000E+00 0. -1.
         11    1    3    3    0    0  0.31110790890E+01  0.27263248479E+01  0.13197508902E+01  0.43420505464E+01  0.51100000000E-03 0. -1.
        -11    1    3    3    0    0  0.91306119728E+01  0.10061309369E+02 -0.25865037160E+02  0.29216402392E+02  0.51100000000E-03 0.  1.
        -12    1    3    3    0    0  0.83693731143E+01 -0.10453411099E+02 -0.10424712404E+02  0.16970410680E+02  0.00000000000E+00 0.  1.
</event>
<event>
 7    1  0.2973028E-011  0.5052886E+02  0.7816164E-02  0.1300439E+00
        -11   -1    0    0    0    0  0.00000000000E+00  0.00000000000E+00  0.45593999997E+02  0.45594000000E+02  0.51100000000E-03 0.  1.
         11   -1    0    0    0    0 -0.00000000000E+00 -0.00000000000E+00 -0.45593999997E+02  0.45594000000E+02  0.51100000000E-03 0. -1.
    9900012    2    1    2    0    0  0.23622181610E+02 -0.70835146843E+01  0.32326187333E+02  0.50528855496E+02  0.29999986766E+02 0.  0.
         12    1    1    2    0    0 -0.23622181610E+02  0.70835146843E+01 -0.32326187333E+02  0.40659144504E+02  0.00000000000E+00 0. -1.
         11    1    3    3    0    0  0.49208662427E+01 -0.12828983445E+02  0.12733588338E+02  0.18733446373E+02  0.51100000000E-03 0.  1.
        -11    1    3    3    0    0  0.85366680837E+01  0.26161142443E+01  0.19174931803E+02  0.21151755616E+02  0.51100000000E-03 0. -1.
         12    1    3    3    0    0  0.10164647284E+02  0.31293545161E+01  0.41766719160E+00  0.10643653507E+02  0.00000000000E+00 0. -1.
</event>
<event>
 7    1  0.2973028E-011  0.5052885E+02  0.7816164E-02  0.1300439E+00
        -11   -1    0    0    0    0  0.00000000000E+00  0.00000000000E+00  0.45593999997E+02  0.45594000000E+02  0.51100000000E-03 0.  1.
         11   -1    0    0    0    0 -0.00000000000E+00 -0.00000000000E+00 -0.45593999997E+02  0.45594000000E+02  0.51100000000E-03 0. -1.
    9900012    2    1    2    0    0 -0.56685333721E+01  0.38347269335E+02  0.12268705267E+02  0.50528850169E+02  0.29999970574E+02 0.  0.
         12    1    1    2    0    0  0.56685333721E+01 -0.38347269335E+02 -0.12268705267E+02  0.40659149831E+02  0.00000000000E+00 0. -1.
         11    1    3    3    0    0 -0.62714964244E+01  0.54741255996E+01  0.12781869461E+01  0.84220829141E+01  0.51100000000E-03 0. -1.
        -11    1    3    3    0    0 -0.10017532124E-01  0.21115244112E+02  0.18557359983E+02  0.28111016418E+02  0.51100000000E-03 0.  1.
        -12    1    3    3    0    0  0.61298058445E+00  0.11757899624E+02 -0.75668416620E+01  0.13995750837E+02  0.00000000000E+00 0.  1.
</event>
<event>
 7    1  0.3977102E-011  0.5052886E+02  0.7816164E-02  0.1300439E+00
        -11   -1    0    0    0    0  0.00000000000E+00  0.00000000000E+00  0.45593999997E+02  0.45594000000E+02  0.51100000000E-03 0. -1.
         11   -1    0    0    0    0 -0.00000000000E+00 -0.00000000000E+00 -0.45593999997E+02  0.45594000000E+02  0.51100000000E-03 0.  1.
    9900012    2    1    2    0    0 -0.14922146076E+02 -0.36472969636E+02 -0.10010895738E+02  0.50528855997E+02  0.29999988289E+02 0.  0.
         12    1    1    2    0    0  0.14922146076E+02  0.36472969636E+02  0.10010895738E+02  0.40659144003E+02  0.00000000000E+00 0. -1.
         11    1    3    3    0    0 -0.25727367241E+01 -0.12297212739E+01 -0.87055119691E+01  0.91606292125E+01  0.51100000000E-03 0. -1.
        -11    1    3    3    0    0 -0.41976047683E+01 -0.12155767936E+02  0.80337169245E+01  0.15163218253E+02  0.51100000000E-03 0.  1.
        -12    1    3    3    0    0 -0.81518045836E+01 -0.23087480426E+02 -0.93391006931E+01  0.26205008532E+02  0.00000000000E+00 0.  1.
</event>
<event>
 7    1  0.2973028E-011  0.5052886E+02  0.7816164E-02  0.1300439E+00
        -11   -1    0    0    0    0  0.00000000000E+00  0.00000000000E+00  0.45593999997E+02  0.45594000000E+02  0.51100000000E-03 0.  1.
         11   -1    0    0    0    0 -0.00000000000E+00 -0.00000000000E+00 -0.45593999997E+02  0.45594000000E+02  0.51100000000E-03 0. -1.
    9900012    2    1    2    0    0 -0.78391708940E+01 -0.44959139936E+01  0.39642144713E+02  0.50528862277E+02  0.30000007378E+02 0.  0.
         12    1    1    2    0    0  0.78391708940E+01  0.44959139936E+01 -0.39642144713E+02  0.40659137723E+02  0.00000000000E+00 0. -1.
         11    1    3    3    0    0 -0.45663195922E+01 -0.29828431261E+01  0.21910736133E+00  0.54586295010E+01  0.51100000000E-03 0. -1.
        -11    1    3    3    0    0 -0.67477819486E+01  0.59858222688E+01  0.34021092118E+02  0.35196552937E+02  0.51100000000E-03 0.  1.
        -12    1    3    3    0    0  0.34749306468E+01 -0.74988931364E+01  0.54019452332E+01  0.98736798395E+01  0.00000000000E+00 0.  1.
</event>
<event>
 7    1  0.2973028E-011  0.5052886E+02  0.7816164E-02  0.1300439E+00
        -11   -1    0    0    0    0  0.00000000000E+00  0.00000000000E+00  0.45593999997E+02  0.45594000000E+02  0.51100000000E-03 0. -1.
         11   -1    0    0    0    0 -0.00000000000E+00 -0.00000000000E+00 -0.45593999997E+02  0.45594000000E+02  0.51100000000E-03 0.  1.
    9900012    2    1    2    0    0 -0.12214671842E+02  0.38687205358E+02 -0.26958851347E+01  0.50528857568E+02  0.29999993064E+02 0.  0.
         12    1    1    2    0    0  0.12214671842E+02 -0.38687205358E+02  0.26958851347E+01  0.40659142432E+02  0.00000000000E+00 0. -1.
         11    1    3    3    0    0 -0.62085858345E+01  0.53799309755E+01 -0.72445230898E+00  0.82471223329E+01  0.51100000000E-03 0. -1.
        -11    1    3    3    0    0  0.78797944206E+01  0.24634287077E+02 -0.12228683964E+01  0.25892753180E+02  0.51100000000E-03 0.  1.
        -12    1    3    3    0    0 -0.13885880429E+02  0.86729873061E+01 -0.74856442933E+00  0.16388982055E+02  0.00000000000E+00 0.  1.
</event>
<event>
 7    1  0.2973028E-011  0.5052885E+02  0.7816164E-02  0.1300439E+00
        -11   -1    0    0    0    0  0.00000000000E+00  0.00000000000E+00  0.45593999997E+02  0.45594000000E+02  0.51100000000E-03 0. -1.
         11   -1    0    0    0    0 -0.00000000000E+00 -0.00000000000E+00 -0.45593999997E+02  0.45594000000E+02  0.51100000000E-03 0.  1.
    9900012    2    1    2    0    0 -0.12996722196E+01  0.40422957369E+02  0.41787193917E+01  0.50528851877E+02  0.29999975764E+02 0.  0.
         12    1    1    2    0    0  0.12996722196E+01 -0.40422957369E+02 -0.41787193917E+01  0.40659148123E+02  0.00000000000E+00 0. -1.
         11    1    3    3    0    0  0.11263876443E+02  0.97781604280E+01  0.30638383082E+00  0.14919155646E+02  0.51100000000E-03 0. -1.
        -11    1    3    3    0    0 -0.12036838110E+01  0.19321841384E+02  0.20952213495E+01  0.19472348650E+02  0.51100000000E-03 0.  1.
         12    1    3    3    0    0 -0.11359864852E+02  0.11322955558E+02  0.17771142114E+01  0.16137347580E+02  0.00000000000E+00 0. -1.
</event>
<event>
 7    1  0.2973028E-011  0.5052886E+02  0.7816164E-02  0.1300439E+00
        -11   -1    0    0    0    0  0.00000000000E+00  0.00000000000E+00  0.45593999997E+02  0.45594000000E+02  0.51100000000E-03 0. -1.
         11   -1    0    0    0    0 -0.00000000000E+00 -0.00000000000E+00 -0.45593999997E+02  0.45594000000E+02  0.51100000000E-03 0.  1.
    9900012    2    1    2    0    0 -0.39870232234E+02  0.62959475909E+01 -0.48879032469E+01  0.50528856224E+02  0.29999988979E+02 0.  0.
         12    1    1    2    0    0  0.39870232234E+02 -0.62959475909E+01  0.48879032469E+01  0.40659143776E+02  0.00000000000E+00 0. -1.
         11    1    3    3    0    0 -0.63465470479E+01  0.11443549075E+02 -0.56860064187E+01  0.14267590690E+02  0.51100000000E-03 0. -1.
        -11    1    3    3    0    0 -0.24434751400E+02 -0.34801675833E+01 -0.52285235178E+01  0.25229072532E+02  0.51100000000E-03 0.  1.
         12    1    3    3    0    0 -0.90889337859E+01 -0.16674339005E+01  0.60266266896E+01  0.11032193002E+02  0.00000000000E+00 0. -1.
</event>
