<event>
 7    1  0.6198176E-013  0.5930193E+02  0.7816164E-02  0.1266605E+00
        -11   -1    0    0    0    0  0.00000000000E+00  0.00000000000E+00  0.45593999997E+02  0.45594000000E+02  0.51100000000E-03 0.  1.
         11   -1    0    0    0    0 -0.00000000000E+00 -0.00000000000E+00 -0.45593999997E+02  0.45594000000E+02  0.51100000000E-03 0. -1.
    9900012    2    1    2    0    0  0.11399173584E+02  0.14981541862E+01 -0.29741148687E+02  0.59301928596E+02  0.49999971857E+02 0.  0.
        -12    1    1    2    0    0 -0.11399173584E+02 -0.14981541862E+01  0.29741148687E+02  0.31886071404E+02  0.00000000000E+00 0.  1.
         11    1    3    3    0    0  0.21432524700E+00 -0.58736251928E+01  0.13022847735E+01  0.60200792445E+01  0.51100000000E-03 0. -1.
        -11    1    3    3    0    0 -0.13806567973E+02  0.31682334922E+01 -0.22405254323E+02  0.26507629924E+02  0.51100000000E-03 0.  1.
        -12    1    3    3    0    0  0.24991416309E+02  0.42035458869E+01 -0.86381791377E+01  0.26774219428E+02  0.00000000000E+00 0.  1.
</event>
<event>
 7    1  0.6198176E-013  0.5930196E+02  0.7816164E-02  0.1266605E+00
        -11   -1    0    0    0    0  0.00000000000E+00  0.00000000000E+00  0.45593999997E+02  0.45594000000E+02  0.51100000000E-03 0. -1.
         11   -1    0    0    0    0 -0.00000000000E+00 -0.00000000000E+00 -0.45593999997E+02  0.45594000000E+02  0.51100000000E-03 0.  1.
    9900012    2    1    2    0    0  0.82597419478E+01  0.24752380193E+02  0.18325275635E+02  0.59301962470E+02  0.50000033635E+02 0.  0.
        -12    1    1    2    0    0 -0.82597419478E+01 -0.24752380193E+02 -0.18325275635E+02  0.31886037530E+02  0.00000000000E+00 0.  1.
         11    1    3    3    0    0  0.37182098116E+01  0.12597279081E+02 -0.68269261788E+01  0.14802818845E+02  0.51100000000E-03 0. -1.
        -11    1    3    3    0    0  0.12706991613E+02 -0.67195694424E+01  0.17283988799E+02  0.22480136085E+02  0.51100000000E-03 0.  1.
         12    1    3    3    0    0 -0.81654594767E+01  0.18874670554E+02  0.78682130151E+01  0.22019007540E+02  0.00000000000E+00 0. -1.
</event>
<event>
 7    1  0.6198176E-013  0.5930194E+02  0.7816164E-02  0.1266605E+00
        -11   -1    0    0    0    0  0.00000000000E+00  0.00000000000E+00  0.45593999997E+02  0.45594000000E+02  0.51100000000E-03 0. -1.
         11   -1    0    0    0    0 -0.00000000000E+00 -0.00000000000E+00 -0.45593999997E+02  0.45594000000E+02  0.51100000000E-03 0.  1.
    9900012    2    1    2    0    0  0.11173637926E+02  0.24332424597E+02  0.17314845725E+02  0.59301937939E+02  0.49999988896E+02 0.  0.
        -12    1    1    2    0    0 -0.11173637926E+02 -0.24332424597E+02 -0.17314845725E+02  0.31886062061E+02  0.00000000000E+00 0.  1.
         11    1    3    3    0    0  0.37371921402E+01 -0.18831830221E+01  0.46471003237E+01  0.62536809214E+01  0.51100000000E-03 0. -1.
        -11    1    3    3    0    0  0.24983488275E+02  0.21690341107E+02  0.10929404027E+02  0.34843901279E+02  0.51100000000E-03 0.  1.
        -12    1    3    3    0    0 -0.17547042489E+02  0.45252665121E+01  0.17383413738E+01  0.18204355738E+02  0.00000000000E+00 0.  1.
</event>
<event>
 7    1  0.6198176E-013  0.5930194E+02  0.7816164E-02  0.1266605E+00
        -11   -1    0    0    0    0  0.00000000000E+00  0.00000000000E+00  0.45593999997E+02  0.45594000000E+02  0.51100000000E-03 0. -1.
         11   -1    0    0    0    0 -0.00000000000E+00 -0.00000000000E+00 -0.45593999997E+02  0.45594000000E+02  0.51100000000E-03 0.  1.
    9900012    2    1    2    0    0 -0.13406073437E+02  0.28466719149E+02  0.51617618174E+01  0.59301942088E+02  0.49999996463E+02 0.  0.
        -12    1    1    2    0    0  0.13406073437E+02 -0.28466719149E+02 -0.51617618174E+01  0.31886057912E+02  0.00000000000E+00 0.  1.
         11    1    3    3    0    0 -0.12308053741E+02  0.11783305256E+02  0.20730232538E+02  0.26834250707E+02  0.51100000000E-03 0. -1.
        -11    1    3    3    0    0 -0.89879053478E+01  0.23127116115E+01  0.78221933970E+00  0.93135892596E+01  0.51100000000E-03 0.  1.
        -12    1    3    3    0    0  0.78898856520E+01  0.14370702281E+02 -0.16350690060E+02  0.23154102122E+02  0.00000000000E+00 0.  1.
</event>
<event>
 7    1  0.6198176E-013  0.5930198E+02  0.7816164E-02  0.1266605E+00
        -11   -1    0    0    0    0  0.00000000000E+00  0.00000000000E+00  0.45593999997E+02  0.45594000000E+02  0.51100000000E-03 0.  1.
         11   -1    0    0    0    0 -0.00000000000E+00 -0.00000000000E+00 -0.45593999997E+02  0.45594000000E+02  0.51100000000E-03 0. -1.
    9900012    2    1    2    0    0 -0.31092074898E+02  0.66728715690E+01 -0.23396822083E+01  0.59301977211E+02  0.50000060518E+02 0.  0.
        -12    1    1    2    0    0  0.31092074898E+02 -0.66728715690E+01  0.23396822083E+01  0.31886022789E+02  0.00000000000E+00 0.  1.
         11    1    3    3    0    0 -0.10244985514E+02  0.11050384178E+02 -0.62338021664E+01  0.16307391219E+02  0.51100000000E-03 0. -1.
        -11    1    3    3    0    0 -0.21905709963E+02  0.55071509398E+01  0.15739548772E+02  0.27530387507E+02  0.51100000000E-03 0.  1.
         12    1    3    3    0    0  0.10586205789E+01 -0.98846635488E+01 -0.11845428814E+02  0.15464198485E+02  0.00000000000E+00 0. -1.
</event>
<event>
 7    1  0.6198176E-013  0.5930201E+02  0.7816164E-02  0.1266605E+00
        -11   -1    0    0    0    0  0.00000000000E+00  0.00000000000E+00  0.45593999997E+02  0.45594000000E+02  0.51100000000E-03 0.  1.
         11   -1    0    0    0    0 -0.00000000000E+00 -0.00000000000E+00 -0.45593999997E+02  0.45594000000E+02  0.51100000000E-03 0. -1.
    9900012    2    1    2    0    0  0.19422432099E+02  0.29515408064E+01 -0.25115210083E+02  0.59302011866E+02  0.50000123721E+02 0.  0.
        -12    1    1    2    0    0 -0.19422432099E+02 -0.29515408064E+01  0.25115210083E+02  0.31885988134E+02  0.00000000000E+00 0.  1.
         11    1    3    3    0    0  0.63873616385E+01  0.22670566008E+02 -0.12100686598E+02  0.26479795471E+02  0.51100000000E-03 0. -1.
        -11    1    3    3    0    0  0.42851959509E+01  0.15228769558E+01 -0.81596418794E+01  0.93414032362E+01  0.51100000000E-03 0.  1.
        -12    1    3    3    0    0  0.87498745097E+01 -0.21241902157E+02 -0.48548816056E+01  0.23480813159E+02  0.00000000000E+00 0.  1.
</event>
<event>
 7    1  0.6198176E-013  0.5930191E+02  0.7816164E-02  0.1266605E+00
        -11   -1    0    0    0    0  0.00000000000E+00  0.00000000000E+00  0.45593999997E+02  0.45594000000E+02  0.51100000000E-03 0.  1.
         11   -1    0    0    0    0 -0.00000000000E+00 -0.00000000000E+00 -0.45593999997E+02  0.45594000000E+02  0.51100000000E-03 0. -1.
    9900012    2    1    2    0    0  0.60911195327E+01  0.36191459691E+01 -0.31088952451E+02  0.59301907119E+02  0.49999932688E+02 0.  0.
        -12    1    1    2    0    0 -0.60911195327E+01 -0.36191459691E+01  0.31088952451E+02  0.31886092881E+02  0.00000000000E+00 0.  1.
         11    1    3    3    0    0 -0.73515118697E+01 -0.12527020886E+01 -0.26335535770E+02  0.27371051019E+02  0.51100000000E-03 0. -1.
        -11    1    3    3    0    0  0.11290257618E+02  0.12105658578E+02 -0.12780364130E+02  0.20913024512E+02  0.51100000000E-03 0.  1.
        -12    1    3    3    0    0  0.21523737840E+01 -0.72338105205E+01  0.80269474496E+01  0.11017831588E+02  0.00000000000E+00 0.  1.
</event>
<event>
 7    1  0.6198176E-013  0.5930210E+02  0.7816164E-02  0.1266604E+00
        -11   -1    0    0    0    0  0.00000000000E+00  0.00000000000E+00  0.45593999997E+02  0.45594000000E+02  0.51100000000E-03 0.  1.
         11   -1    0    0    0    0 -0.00000000000E+00 -0.00000000000E+00 -0.45593999997E+02  0.45594000000E+02  0.51100000000E-03 0. -1.
    9900012    2    1    2    0    0 -0.47038378488E+01 -0.67364659503E+01 -0.30809161504E+02  0.59302101916E+02  0.50000287950E+02 0.  0.
        -12    1    1    2    0    0  0.47038378488E+01  0.67364659503E+01  0.30809161504E+02  0.31885898084E+02  0.00000000000E+00 0.  1.
         11    1    3    3    0    0  0.51488148897E+01  0.78980883065E+01 -0.68981549989E+01  0.11682235930E+02  0.51100000000E-03 0. -1.
        -11    1    3    3    0    0 -0.37460955050E+01  0.10081231065E+02 -0.18791202400E+02  0.21651183321E+02  0.51100000000E-03 0.  1.
         12    1    3    3    0    0 -0.61065572335E+01 -0.24715785322E+02 -0.51198041054E+01  0.25968682666E+02  0.00000000000E+00 0. -1.
</event>
<event>
 7    1  0.6198176E-013  0.5930230E+02  0.7816164E-02  0.1266604E+00
        -11   -1    0    0    0    0  0.00000000000E+00  0.00000000000E+00  0.45593999997E+02  0.45594000000E+02  0.51100000000E-03 0.  1.
         11   -1    0    0    0    0 -0.00000000000E+00 -0.00000000000E+00 -0.45593999997E+02  0.45594000000E+02  0.51100000000E-03 0. -1.
    9900012    2    1    2    0    0  0.17678560875E+01  0.92265699329E+01 -0.30470364100E+02  0.59302297933E+02  0.50000645435E+02 0.  0.
        -12    1    1    2    0    0 -0.17678560875E+01 -0.92265699329E+01  0.30470364100E+02  0.31885702067E+02  0.00000000000E+00 0.  1.
         11    1    3    3    0    0  0.13891609913E+02 -0.23991932138E+01 -0.56487831056E+01  0.15186892536E+02  0.51100000000E-03 0. -1.
        -11    1    3    3    0    0 -0.35588062221E+01 -0.10648846497E+02 -0.26396483647E+01  0.11533896878E+02  0.51100000000E-03 0.  1.
        -12    1    3    3    0    0 -0.85649476036E+01  0.22274609644E+02 -0.22181932630E+02  0.32581508520E+02  0.00000000000E+00 0.  1.
</event>
<event>
 7    1  0.6198176E-013  0.5930195E+02  0.7816164E-02  0.1266605E+00
        -11   -1    0    0    0    0  0.00000000000E+00  0.00000000000E+00  0.45593999997E+02  0.45594000000E+02  0.51100000000E-03 0. -1.
         11   -1    0    0    0    0 -0.00000000000E+00 -0.00000000000E+00 -0.45593999997E+02  0.45594000000E+02  0.51100000000E-03 0.  1.
    9900012    2    1    2    0    0 -0.28791535526E+02  0.90294559832E+00 -0.13673045064E+02  0.59301953051E+02  0.50000016456E+02 0.  0.
        -12    1    1    2    0    0  0.28791535526E+02 -0.90294559832E+00  0.13673045064E+02  0.31886046949E+02  0.00000000000E+00 0.  1.
         11    1    3    3    0    0 -0.16340934376E+02  0.10883915320E+02 -0.90068824244E+01  0.21601149975E+02  0.51100000000E-03 0. -1.
        -11    1    3    3    0    0 -0.18321194300E+02 -0.19075532367E+02 -0.18376478773E+01  0.26512620498E+02  0.51100000000E-03 0.  1.
        -12    1    3    3    0    0  0.58705931505E+01  0.90945626447E+01 -0.28285147624E+01  0.11188182578E+02  0.00000000000E+00 0.  1.
</event>
<event>
 7    1  0.6198176E-013  0.5930195E+02  0.7816164E-02  0.1266605E+00
        -11   -1    0    0    0    0  0.00000000000E+00  0.00000000000E+00  0.45593999997E+02  0.45594000000E+02  0.51100000000E-03 0.  1.
         11   -1    0    0    0    0 -0.00000000000E+00 -0.00000000000E+00 -0.45593999997E+02  0.45594000000E+02  0.51100000000E-03 0. -1.
    9900012    2    1    2    0    0 -0.22166628460E+02  0.12480343428E+02 -0.19225038484E+02  0.59301945147E+02  0.50000002042E+02 0.  0.
        -12    1    1    2    0    0  0.22166628460E+02 -0.12480343428E+02  0.19225038484E+02  0.31886054853E+02  0.00000000000E+00 0.  1.
         11    1    3    3    0    0 -0.96894426669E+01  0.13704912478E+02  0.69908771776E+01  0.18181922044E+02  0.51100000000E-03 0.  1.
        -11    1    3    3    0    0  0.64186304157E+01  0.62453227387E+01 -0.14281825879E+01  0.90687693922E+01  0.51100000000E-03 0. -1.
         12    1    3    3    0    0 -0.18895816209E+02 -0.74698917889E+01 -0.24787733074E+02  0.32051253711E+02  0.00000000000E+00 0. -1.
</event>
<event>
 7    1  0.6198176E-013  0.5930195E+02  0.7816164E-02  0.1266605E+00
        -11   -1    0    0    0    0  0.00000000000E+00  0.00000000000E+00  0.45593999997E+02  0.45594000000E+02  0.51100000000E-03 0. -1.
         11   -1    0    0    0    0 -0.00000000000E+00 -0.00000000000E+00 -0.45593999997E+02  0.45594000000E+02  0.51100000000E-03 0.  1.
    9900012    2    1    2    0    0 -0.97445207814E+01  0.19617498033E+02  0.23171501823E+02  0.59301946448E+02  0.50000004415E+02 0.  0.
        -12    1    1    2    0    0  0.97445207814E+01 -0.19617498033E+02 -0.23171501823E+02  0.31886053552E+02  0.00000000000E+00 0.  1.
         11    1    3    3    0    0  0.51111793586E+01  0.18638470046E+02  0.65346994086E+01  0.20401446436E+02  0.51100000000E-03 0. -1.
        -11    1    3    3    0    0  0.89911550549E+01 -0.47261193025E+01  0.20262642796E+01  0.10357742036E+02  0.51100000000E-03 0.  1.
        -12    1    3    3    0    0 -0.23846855195E+02  0.57051472904E+01  0.14610538135E+02  0.28542757976E+02  0.00000000000E+00 0.  1.
</event>
<event>
 7    1  0.6198176E-013  0.5930195E+02  0.7816164E-02  0.1266605E+00
        -11   -1    0    0    0    0  0.00000000000E+00  0.00000000000E+00  0.45593999997E+02  0.45594000000E+02  0.51100000000E-03 0. -1.
         11   -1    0    0    0    0 -0.00000000000E+00 -0.00000000000E+00 -0.45593999997E+02  0.45594000000E+02  0.51100000000E-03 0.  1.
    9900012    2    1    2    0    0 -0.17795282186E+02  0.18363092955E+02  0.19048480648E+02  0.59301954997E+02  0.50000020005E+02 0.  0.
        -12    1    1    2    0    0  0.17795282186E+02 -0.18363092955E+02 -0.19048480648E+02  0.31886045003E+02  0.00000000000E+00 0.  1.
         11    1    3    3    0    0 -0.28157926344E+01  0.19954880776E+02  0.74657479864E+01  0.21491006216E+02  0.51100000000E-03 0. -1.
        -11    1    3    3    0    0 -0.22439220866E+01  0.19919869130E+01  0.21227440217E+02  0.21438456489E+02  0.51100000000E-03 0.  1.
        -12    1    3    3    0    0 -0.12735567465E+02 -0.35837747337E+01 -0.96447075557E+01  0.16372492291E+02  0.00000000000E+00 0.  1.
</event>
<event>
 7    1  0.6198176E-013  0.5930198E+02  0.7816164E-02  0.1266605E+00
        -11   -1    0    0    0    0  0.00000000000E+00  0.00000000000E+00  0.45593999997E+02  0.45594000000E+02  0.51100000000E-03 0. -1.
         11   -1    0    0    0    0 -0.00000000000E+00 -0.00000000000E+00 -0.45593999997E+02  0.45594000000E+02  0.51100000000E-03 0.  1.
    9900012    2    1    2    0    0  0.13156680208E+02  0.27503822139E+02  0.93359540066E+01  0.59301976361E+02  0.50000058967E+02 0.  0.
        -12    1    1    2    0    0 -0.13156680208E+02 -0.27503822139E+02 -0.93359540066E+01  0.31886023639E+02  0.00000000000E+00 0.  1.
         11    1    3    3    0    0  0.11242103541E+02 -0.76322077838E+01  0.86947039073E+01  0.16131750183E+02  0.51100000000E-03 0. -1.
        -11    1    3    3    0    0 -0.62327766046E+01  0.16840493395E+01 -0.51474985238E+01  0.82571343512E+01  0.51100000000E-03 0.  1.
         12    1    3    3    0    0  0.81473532715E+01  0.33451980583E+02  0.57887486231E+01  0.34913091826E+02  0.00000000000E+00 0. -1.
</event>
<event>
 7    1  0.6198176E-013  0.5930195E+02  0.7816164E-02  0.1266605E+00
        -11   -1    0    0    0    0  0.00000000000E+00  0.00000000000E+00  0.45593999997E+02  0.45594000000E+02  0.51100000000E-03 0.  1.
         11   -1    0    0    0    0 -0.00000000000E+00 -0.00000000000E+00 -0.45593999997E+02  0.45594000000E+02  0.51100000000E-03 0. -1.
    9900012    2    1    2    0    0 -0.89444496937E+01  0.14258353558E+02 -0.27081665322E+02  0.59301946260E+02  0.50000004071E+02 0.  0.
        -12    1    1    2    0    0  0.89444496937E+01 -0.14258353558E+02  0.27081665322E+02  0.31886053740E+02  0.00000000000E+00 0.  1.
         11    1    3    3    0    0 -0.50065952131E+01  0.31416884502E+02 -0.16920129632E+02  0.36033004517E+02  0.51100000000E-03 0. -1.
        -11    1    3    3    0    0 -0.16667127916E+01 -0.53539458843E+01  0.22024391791E+01  0.60244009379E+01  0.51100000000E-03 0.  1.
        -12    1    3    3    0    0 -0.22711416890E+01 -0.11804585061E+02 -0.12363974869E+02  0.17244540805E+02  0.00000000000E+00 0.  1.
</event>
<event>
 7    1  0.6198176E-013  0.5930182E+02  0.7816164E-02  0.1266605E+00
        -11   -1    0    0    0    0  0.00000000000E+00  0.00000000000E+00  0.45593999997E+02  0.45594000000E+02  0.51100000000E-03 0.  1.
         11   -1    0    0    0    0 -0.00000000000E+00 -0.00000000000E+00 -0.45593999997E+02  0.45594000000E+02  0.51100000000E-03 0. -1.
    9900012    2    1    2    0    0 -0.31561830120E+02  0.25628040658E+01 -0.37432043202E+01  0.59301817039E+02  0.49999768403E+02 0.  0.
        -12    1    1    2    0    0  0.31561830120E+02 -0.25628040658E+01  0.37432043202E+01  0.31886182961E+02  0.00000000000E+00 0.  1.
         11    1    3    3    0    0 -0.26657791097E+01 -0.35025459322E+01 -0.22377157391E+01  0.49377705758E+01  0.51100000000E-03 0. -1.
        -11    1    3    3    0    0  0.10735700368E+02  0.73783240075E+01  0.54219093410E+01  0.14109997474E+02  0.51100000000E-03 0.  1.
         12    1    3    3    0    0 -0.39631751379E+02 -0.13129740095E+01 -0.69273979221E+01  0.40254048990E+02  0.00000000000E+00 0. -1.
</event>
<event>
 7    1  0.6198176E-013  0.5930195E+02  0.7816164E-02  0.1266605E+00
        -11   -1    0    0    0    0  0.00000000000E+00  0.00000000000E+00  0.45593999997E+02  0.45594000000E+02  0.51100000000E-03 0.  1.
         11   -1    0    0    0    0 -0.00000000000E+00 -0.00000000000E+00 -0.45593999997E+02  0.45594000000E+02  0.51100000000E-03 0. -1.
    9900012    2    1    2    0    0 -0.27799118393E+02  0.59114163842E-01  0.15618118275E+02  0.59301951384E+02  0.50000013416E+02 0.  0.
        -12    1    1    2    0    0  0.27799118393E+02 -0.59114163842E-01 -0.15618118275E+02  0.31886048616E+02  0.00000000000E+00 0.  1.
         11    1    3    3    0    0 -0.24750821997E+01  0.15426403227E+02  0.13967535135E+02  0.20956907845E+02  0.51100000000E-03 0. -1.
        -11    1    3    3    0    0 -0.68499480505E+00 -0.12826321355E+02  0.40283129006E+01  0.13461465094E+02  0.51100000000E-03 0.  1.
        -12    1    3    3    0    0 -0.24639041388E+02 -0.25409677073E+01 -0.23777297606E+01  0.24883578445E+02  0.00000000000E+00 0.  1.
</event>
<event>
 7    1  0.6198176E-013  0.5930195E+02  0.7816164E-02  0.1266605E+00
        -11   -1    0    0    0    0  0.00000000000E+00  0.00000000000E+00  0.45593999997E+02  0.45594000000E+02  0.51100000000E-03 0.  1.
         11   -1    0    0    0    0 -0.00000000000E+00 -0.00000000000E+00 -0.45593999997E+02  0.45594000000E+02  0.51100000000E-03 0. -1.
    9900012    2    1    2    0    0 -0.74911436431E+01  0.60754424958E+01 -0.30392300592E+02  0.59301950231E+02  0.50000011314E+02 0.  0.
        -12    1    1    2    0    0  0.74911436431E+01 -0.60754424958E+01  0.30392300592E+02  0.31886049769E+02  0.00000000000E+00 0.  1.
         11    1    3    3    0    0 -0.31161424105E+01  0.55232452168E+01 -0.30369587345E+02  0.31024642093E+02  0.51100000000E-03 0. -1.
        -11    1    3    3    0    0  0.32327706430E+01  0.23783623299E+01 -0.12733819898E+02  0.13351313900E+02  0.51100000000E-03 0.  1.
        -12    1    3    3    0    0 -0.76077718756E+01 -0.18261650510E+01  0.12711106651E+02  0.14925994238E+02  0.00000000000E+00 0.  1.
</event>
<event>
 7    1  0.6198176E-013  0.5930196E+02  0.7816164E-02  0.1266605E+00
        -11   -1    0    0    0    0  0.00000000000E+00  0.00000000000E+00  0.45593999997E+02  0.45594000000E+02  0.51100000000E-03 0.  1.
         11   -1    0    0    0    0 -0.00000000000E+00 -0.00000000000E+00 -0.45593999997E+02  0.45594000000E+02  0.51100000000E-03 0. -1.
    9900012    2    1    2    0    0  0.12461158398E+02 -0.13219771959E+02 -0.26204517369E+02  0.59301959641E+02  0.50000028474E+02 0.  0.
        -12    1    1    2    0    0 -0.12461158398E+02  0.13219771959E+02  0.26204517369E+02  0.31886040359E+02  0.00000000000E+00 0.  1.
         11    1    3    3    0    0 -0.49979635115E+01  0.93450100804E+01 -0.59798647151E+01  0.12168304522E+02  0.51100000000E-03 0. -1.
        -11    1    3    3    0    0 -0.79304472310E+01 -0.89674179880E+00 -0.87370628948E+01  0.11833528951E+02  0.51100000000E-03 0.  1.
         12    1    3    3    0    0  0.25389569141E+02 -0.21668040241E+02 -0.11487589759E+02  0.35300126168E+02  0.00000000000E+00 0. -1.
</event>
<event>
 7    1  0.6198176E-013  0.5930193E+02  0.7816164E-02  0.1266605E+00
        -11   -1    0    0    0    0  0.00000000000E+00  0.00000000000E+00  0.45593999997E+02  0.45594000000E+02  0.51100000000E-03 0. -1.
         11   -1    0    0    0    0 -0.00000000000E+00 -0.00000000000E+00 -0.45593999997E+02  0.45594000000E+02  0.51100000000E-03 0.  1.
    9900012    2    1    2    0    0 -0.11367209933E+02  0.14234314308E+02  0.26170449837E+02  0.59301927646E+02  0.49999970124E+02 0.  0.
        -12    1    1    2    0    0  0.11367209933E+02 -0.14234314308E+02 -0.26170449837E+02  0.31886072354E+02  0.00000000000E+00 0.  1.
         11    1    3    3    0    0 -0.12919278684E+02  0.71943071136E+01  0.13233502345E+02  0.19844178016E+02  0.51100000000E-03 0. -1.
        -11    1    3    3    0    0  0.16901450967E+02  0.10827615519E+02  0.18696057237E+01  0.20159159914E+02  0.51100000000E-03 0.  1.
         12    1    3    3    0    0 -0.15349382216E+02 -0.37876083241E+01  0.11067341768E+02  0.19298589716E+02  0.00000000000E+00 0. -1.
</event>
<event>
 7    1  0.6198176E-013  0.5930195E+02  0.7816164E-02  0.1266605E+00
        -11   -1    0    0    0    0  0.00000000000E+00  0.00000000000E+00  0.45593999997E+02  0.45594000000E+02  0.51100000000E-03 0. -1.
         11   -1    0    0    0    0 -0.00000000000E+00 -0.00000000000E+00 -0.45593999997E+02  0.45594000000E+02  0.51100000000E-03 0.  1.
    9900012    2    1    2    0    0  0.95888778090E+01  0.26588418597E+02  0.14759044923E+02  0.59301953080E+02  0.50000016509E+02 0.  0.
        -12    1    1    2    0    0 -0.95888778090E+01 -0.26588418597E+02 -0.14759044923E+02  0.31886046920E+02  0.00000000000E+00 0.  1.
         11    1    3    3    0    0 -0.60001603864E+01 -0.45072976144E+01 -0.35400047136E+01  0.82975472328E+01  0.51100000000E-03 0. -1.
        -11    1    3    3    0    0  0.10135614645E+02 -0.19252372374E+01 -0.36922892533E+01  0.10957655901E+02  0.51100000000E-03 0.  1.
         12    1    3    3    0    0  0.54534235508E+01  0.33020953449E+02  0.21991338890E+02  0.40046749947E+02  0.00000000000E+00 0. -1.
</event>
<event>
 7    1  0.6198176E-013  0.5930194E+02  0.7816164E-02  0.1266605E+00
        -11   -1    0    0    0    0  0.00000000000E+00  0.00000000000E+00  0.45593999997E+02  0.45594000000E+02  0.51100000000E-03 0. -1.
         11   -1    0    0    0    0 -0.00000000000E+00 -0.00000000000E+00 -0.45593999997E+02  0.45594000000E+02  0.51100000000E-03 0.  1.
    9900012    2    1    2    0    0 -0.16510394968E+02  0.24137625652E+02 -0.12708383228E+02  0.59301935357E+02  0.49999984187E+02 0.  0.
        -12    1    1    2    0    0  0.16510394968E+02 -0.24137625652E+02  0.12708383228E+02  0.31886064643E+02  0.00000000000E+00 0.  1.
         11    1    3    3    0    0  0.66879998870E+01  0.21098694110E+02 -0.94962794662E+01  0.24084508706E+02  0.51100000000E-03 0. -1.
        -11    1    3    3    0    0 -0.79541645495E+01  0.54266621010E+01 -0.13565637339E+02  0.16635621778E+02  0.51100000000E-03 0.  1.
        -12    1    3    3    0    0 -0.15244230306E+02 -0.23877305585E+01  0.10353533577E+02  0.18581804874E+02  0.00000000000E+00 0.  1.
</event>
<event>
 7    1  0.6198176E-013  0.5930197E+02  0.7816164E-02  0.1266605E+00
        -11   -1    0    0    0    0  0.00000000000E+00  0.00000000000E+00  0.45593999997E+02  0.45594000000E+02  0.51100000000E-03 0.  1.
         11   -1    0    0    0    0 -0.00000000000E+00 -0.00000000000E+00 -0.45593999997E+02  0.45594000000E+02  0.51100000000E-03 0. -1.
    9900012    2    1    2    0    0 -0.13470879768E+02  0.24531782915E+02  0.15278945998E+02  0.59301965980E+02  0.50000040036E+02 0.  0.
        -12    1    1    2    0    0  0.13470879768E+02 -0.24531782915E+02 -0.15278945998E+02  0.31886034020E+02  0.00000000000E+00 0.  1.
         11    1    3    3    0    0 -0.18553917889E+01  0.95814304660E+01 -0.80379918550E+01  0.12643401512E+02  0.51100000000E-03 0.  1.
        -11    1    3    3    0    0 -0.22001685661E+01  0.22855307562E+02  0.33409975993E+01  0.23202760411E+02  0.51100000000E-03 0. -1.
        -12    1    3    3    0    0 -0.94153194131E+01 -0.79049551130E+01  0.19975940253E+02  0.23455804058E+02  0.00000000000E+00 0.  1.
</event>
<event>
 7    1  0.6198176E-013  0.5930191E+02  0.7816164E-02  0.1266605E+00
        -11   -1    0    0    0    0  0.00000000000E+00  0.00000000000E+00  0.45593999997E+02  0.45594000000E+02  0.51100000000E-03 0.  1.
         11   -1    0    0    0    0 -0.00000000000E+00 -0.00000000000E+00 -0.45593999997E+02  0.45594000000E+02  0.51100000000E-03 0. -1.
    9900012    2    1    2    0    0  0.16073045908E+02  0.24247562590E+02  0.13055109944E+02  0.59301905978E+02  0.49999930607E+02 0.  0.
        -12    1    1    2    0    0 -0.16073045908E+02 -0.24247562590E+02 -0.13055109944E+02  0.31886094022E+02  0.00000000000E+00 0.  1.
         11    1    3    3    0    0  0.13715433465E+02  0.24861931214E+02 -0.14329867764E+01  0.28430304082E+02  0.51100000000E-03 0. -1.
        -11    1    3    3    0    0 -0.40218690944E+01  0.39466436498E+01 -0.64194242599E+01  0.85416880768E+01  0.51100000000E-03 0.  1.
        -12    1    3    3    0    0  0.63794815373E+01 -0.45610122737E+01  0.20907520980E+02  0.22329913819E+02  0.00000000000E+00 0.  1.
</event>
<event>
 7    1  0.6198176E-013  0.5930195E+02  0.7816164E-02  0.1266605E+00
        -11   -1    0    0    0    0  0.00000000000E+00  0.00000000000E+00  0.45593999997E+02  0.45594000000E+02  0.51100000000E-03 0.  1.
         11   -1    0    0    0    0 -0.00000000000E+00 -0.00000000000E+00 -0.45593999997E+02  0.45594000000E+02  0.51100000000E-03 0. -1.
    9900012    2    1    2    0    0 -0.54196980976E+01  0.20732992999E+02 -0.23611231820E+02  0.59301946713E+02  0.50000004897E+02 0.  0.
        -12    1    1    2    0    0  0.54196980976E+01 -0.20732992999E+02  0.23611231820E+02  0.31886053287E+02  0.00000000000E+00 0.  1.
         11    1    3    3    0    0  0.61133992981E+01  0.24238212699E+02 -0.16876977470E+02  0.30161183243E+02  0.51100000000E-03 0. -1.
        -11    1    3    3    0    0 -0.14782098191E+02  0.47949271394E+01 -0.11215016964E+02  0.19164507793E+02  0.51100000000E-03 0.  1.
         12    1    3    3    0    0  0.32490007954E+01 -0.83001468390E+01  0.44807626142E+01  0.99762556765E+01  0.00000000000E+00 0. -1.
</event>
<event>
 7    1  0.6198176E-013  0.5930193E+02  0.7816164E-02  0.1266605E+00
        -11   -1    0    0    0    0  0.00000000000E+00  0.00000000000E+00  0.45593999997E+02  0.45594000000E+02  0.51100000000E-03 0.  1.
         11   -1    0    0    0    0 -0.00000000000E+00 -0.00000000000E+00 -0.45593999997E+02  0.45594000000E+02  0.51100000000E-03 0. -1.
    9900012    2    1    2    0    0 -0.33042300338E-01 -0.27280912706E+02  0.16506722048E+02  0.59301934664E+02  0.49999982922E+02 0.  0.
        -12    1    1    2    0    0  0.33042300338E-01  0.27280912706E+02 -0.16506722048E+02  0.31886065336E+02  0.00000000000E+00 0.  1.
         11    1    3    3    0    0 -0.43871532261E+01 -0.70596479295E+01  0.25381541441E+01  0.86906828868E+01  0.51100000000E-03 0. -1.
        -11    1    3    3    0    0  0.16585556843E+01 -0.15979175014E+02  0.29879985678E+02  0.33924893300E+02  0.51100000000E-03 0.  1.
         12    1    3    3    0    0  0.26955552415E+01 -0.42420897630E+01 -0.15911417774E+02  0.16686358476E+02  0.00000000000E+00 0. -1.
</event>
<event>
 7    1  0.6198176E-013  0.5930175E+02  0.7816164E-02  0.1266605E+00
        -11   -1    0    0    0    0  0.00000000000E+00  0.00000000000E+00  0.45593999997E+02  0.45594000000E+02  0.51100000000E-03 0. -1.
         11   -1    0    0    0    0 -0.00000000000E+00 -0.00000000000E+00 -0.45593999997E+02  0.45594000000E+02  0.51100000000E-03 0.  1.
    9900012    2    1    2    0    0 -0.11591307308E+02  0.29701297576E+02  0.45538077267E+00  0.59301751327E+02  0.49999648559E+02 0.  0.
        -12    1    1    2    0    0  0.11591307308E+02 -0.29701297576E+02 -0.45538077267E+00  0.31886248673E+02  0.00000000000E+00 0.  1.
         11    1    3    3    0    0 -0.28142477292E+00 -0.64389579259E+01  0.61193119697E+01  0.88873707202E+01  0.51100000000E-03 0.  1.
        -11    1    3    3    0    0  0.11337778736E+02  0.17040249448E+02 -0.21335847055E+01  0.20578326265E+02  0.51100000000E-03 0. -1.
        -12    1    3    3    0    0 -0.22647661272E+02  0.19100006054E+02 -0.35303464916E+01  0.29836054342E+02  0.00000000000E+00 0.  1.
</event>
<event>
 7    1  0.6198176E-013  0.5930200E+02  0.7816164E-02  0.1266605E+00
        -11   -1    0    0    0    0  0.00000000000E+00  0.00000000000E+00  0.45593999997E+02  0.45594000000E+02  0.51100000000E-03 0.  1.
         11   -1    0    0    0    0 -0.00000000000E+00 -0.00000000000E+00 -0.45593999997E+02  0.45594000000E+02  0.51100000000E-03 0. -1.
    9900012    2    1    2    0    0  0.22198916755E+02  0.17945467916E+02 -0.14208642245E+02  0.59301996201E+02  0.50000095152E+02 0.  0.
        -12    1    1    2    0    0 -0.22198916755E+02 -0.17945467916E+02  0.14208642245E+02  0.31886003799E+02  0.00000000000E+00 0.  1.
         11    1    3    3    0    0  0.17186837738E+02  0.17964721177E+02 -0.24687259311E+02  0.35036828780E+02  0.51100000000E-03 0. -1.
        -11    1    3    3    0    0  0.96940074524E+01  0.16863596334E+01 -0.26771915785E+01  0.10197300834E+02  0.51100000000E-03 0.  1.
        -12    1    3    3    0    0 -0.46819284353E+01 -0.17056128946E+01  0.13155808645E+02  0.14067866587E+02  0.00000000000E+00 0.  1.
</event>
<event>
 7    1  0.6961710E-013  0.5930194E+02  0.7816164E-02  0.1266605E+00
        -11   -1    0    0    0    0  0.00000000000E+00  0.00000000000E+00  0.45593999997E+02  0.45594000000E+02  0.51100000000E-03 0. -1.
         11   -1    0    0    0    0 -0.00000000000E+00 -0.00000000000E+00 -0.45593999997E+02  0.45594000000E+02  0.51100000000E-03 0.  1.
    9900012    2    1    2    0    0 -0.17349772040E+02  0.16057767587E+02  0.21397527206E+02  0.59301942542E+02  0.49999997290E+02 0.  0.
        -12    1    1    2    0    0  0.17349772040E+02 -0.16057767587E+02 -0.21397527206E+02  0.31886057458E+02  0.00000000000E+00 0.  1.
         11    1    3    3    0    0  0.91989622359E+00  0.23205299508E+02  0.21617481580E+02  0.31727710987E+02  0.51100000000E-03 0. -1.
        -11    1    3    3    0    0 -0.60115667403E+01  0.62758915326E+01  0.28345244651E+01  0.91411311339E+01  0.51100000000E-03 0.  1.
        -12    1    3    3    0    0 -0.12258101523E+02 -0.13423423453E+02 -0.30544788399E+01  0.18433100421E+02  0.00000000000E+00 0.  1.
</event>
<event>
 7    1  0.6198176E-013  0.5930197E+02  0.7816164E-02  0.1266605E+00
        -11   -1    0    0    0    0  0.00000000000E+00  0.00000000000E+00  0.45593999997E+02  0.45594000000E+02  0.51100000000E-03 0.  1.
         11   -1    0    0    0    0 -0.00000000000E+00 -0.00000000000E+00 -0.45593999997E+02  0.45594000000E+02  0.51100000000E-03 0. -1.
    9900012    2    1    2    0    0 -0.22552932358E+02  0.22036072166E+02  0.47429894398E+01  0.59301965701E+02  0.50000039527E+02 0.  0.
        -12    1    1    2    0    0  0.22552932358E+02 -0.22036072166E+02 -0.47429894398E+01  0.31886034299E+02  0.00000000000E+00 0.  1.
         11    1    3    3    0    0 -0.83825274671E-01  0.21188034063E+02  0.10394280380E+02  0.23600442348E+02  0.51100000000E-03 0. -1.
        -11    1    3    3    0    0  0.43148281828E+01 -0.59998570682E+01 -0.28255417586E+01  0.79119980773E+01  0.51100000000E-03 0.  1.
        -12    1    3    3    0    0 -0.26783935266E+02  0.68478951715E+01 -0.28257491820E+01  0.27789525276E+02  0.00000000000E+00 0.  1.
</event>
<event>
 7    1  0.6198176E-013  0.5930194E+02  0.7816164E-02  0.1266605E+00
        -11   -1    0    0    0    0  0.00000000000E+00  0.00000000000E+00  0.45593999997E+02  0.45594000000E+02  0.51100000000E-03 0.  1.
         11   -1    0    0    0    0 -0.00000000000E+00 -0.00000000000E+00 -0.45593999997E+02  0.45594000000E+02  0.51100000000E-03 0. -1.
    9900012    2    1    2    0    0  0.23778431725E+01  0.30592953026E+02 -0.86682188543E+01  0.59301938294E+02  0.49999989544E+02 0.  0.
        -12    1    1    2    0    0 -0.23778431725E+01 -0.30592953026E+02  0.86682188543E+01  0.31886061706E+02  0.00000000000E+00 0.  1.
         11    1    3    3    0    0 -0.50893554430E+01 -0.22394018218E+01 -0.85633309452E+01  0.10210146742E+02  0.51100000000E-03 0.  1.
        -11    1    3    3    0    0  0.21810287115E+02  0.16687104844E+02 -0.96263831217E+00  0.27478623781E+02  0.51100000000E-03 0. -1.
         12    1    3    3    0    0 -0.14343088499E+02  0.16145250004E+02  0.85775040314E+00  0.21613167772E+02  0.00000000000E+00 0. -1.
</event>
<event>
 7    1  0.6198176E-013  0.5930193E+02  0.7816164E-02  0.1266605E+00
        -11   -1    0    0    0    0  0.00000000000E+00  0.00000000000E+00  0.45593999997E+02  0.45594000000E+02  0.51100000000E-03 0.  1.
         11   -1    0    0    0    0 -0.00000000000E+00 -0.00000000000E+00 -0.45593999997E+02  0.45594000000E+02  0.51100000000E-03 0. -1.
    9900012    2    1    2    0    0  0.27824390126E+02 -0.74961800945E+00 -0.15555147151E+02  0.59301933828E+02  0.49999981398E+02 0.  0.
        -12    1    1    2    0    0 -0.27824390126E+02  0.74961800945E+00  0.15555147151E+02  0.31886066172E+02  0.00000000000E+00 0.  1.
         11    1    3    3    0    0  0.22353793675E+02 -0.63288335808E+01 -0.18091045670E+02  0.29445409826E+02  0.51100000000E-03 0. -1.
        -11    1    3    3    0    0  0.16291758399E+02 -0.17615521452E+01 -0.64385701210E+00  0.16399360043E+02  0.51100000000E-03 0.  1.
        -12    1    3    3    0    0 -0.10821161948E+02  0.73407677166E+01  0.31797555310E+01  0.13457163959E+02  0.00000000000E+00 0.  1.
</event>
<event>
 7    1  0.6198176E-013  0.5930191E+02  0.7816164E-02  0.1266605E+00
        -11   -1    0    0    0    0  0.00000000000E+00  0.00000000000E+00  0.45593999997E+02  0.45594000000E+02  0.51100000000E-03 0. -1.
         11   -1    0    0    0    0 -0.00000000000E+00 -0.00000000000E+00 -0.45593999997E+02  0.45594000000E+02  0.51100000000E-03 0.  1.
    9900012    2    1    2    0    0 -0.18964697065E+02  0.22993291846E+02  0.11330106798E+02  0.59301913305E+02  0.49999943969E+02 0.  0.
        -12    1    1    2    0    0  0.18964697065E+02 -0.22993291846E+02 -0.11330106798E+02  0.31886086695E+02  0.00000000000E+00 0.  1.
         11    1    3    3    0    0 -0.12189036549E+02  0.27908607282E+02 -0.46541961135E+01  0.30807864486E+02  0.51100000000E-03 0. -1.
        -11    1    3    3    0    0 -0.81686023178E+01  0.19114705685E+00 -0.30621605674E+01  0.87257910028E+01  0.51100000000E-03 0.  1.
        -12    1    3    3    0    0  0.13929418015E+01 -0.51064624937E+01  0.19046463479E+02  0.19768257817E+02  0.00000000000E+00 0.  1.
</event>
<event>
 7    1  0.6198176E-013  0.5930177E+02  0.7816164E-02  0.1266605E+00
        -11   -1    0    0    0    0  0.00000000000E+00  0.00000000000E+00  0.45593999997E+02  0.45594000000E+02  0.51100000000E-03 0.  1.
         11   -1    0    0    0    0 -0.00000000000E+00 -0.00000000000E+00 -0.45593999997E+02  0.45594000000E+02  0.51100000000E-03 0. -1.
    9900012    2    1    2    0    0 -0.50546521201E+01 -0.28223358736E+02 -0.13950787716E+02  0.59301765285E+02  0.49999674015E+02 0.  0.
        -12    1    1    2    0    0  0.50546521201E+01  0.28223358736E+02  0.13950787716E+02  0.31886234715E+02  0.00000000000E+00 0.  1.
         11    1    3    3    0    0  0.16751351976E+02 -0.15787192560E+02  0.36428670615E+01  0.23304800421E+02  0.51100000000E-03 0. -1.
        -11    1    3    3    0    0 -0.60594071365E+00 -0.23815264015E+01 -0.11493680171E+02  0.11753446996E+02  0.51100000000E-03 0.  1.
        -12    1    3    3    0    0 -0.21200063383E+02 -0.10054639775E+02 -0.60999746062E+01  0.24243517868E+02  0.00000000000E+00 0.  1.
</event>
<event>
 7    1  0.6198176E-013  0.5930192E+02  0.7816164E-02  0.1266605E+00
        -11   -1    0    0    0    0  0.00000000000E+00  0.00000000000E+00  0.45593999997E+02  0.45594000000E+02  0.51100000000E-03 0.  1.
         11   -1    0    0    0    0 -0.00000000000E+00 -0.00000000000E+00 -0.45593999997E+02  0.45594000000E+02  0.51100000000E-03 0. -1.
    9900012    2    1    2    0    0 -0.36930124912E+01 -0.31476560854E+02  0.35085306694E+01  0.59301921346E+02  0.49999958635E+02 0.  0.
        -12    1    1    2    0    0  0.36930124912E+01  0.31476560854E+02 -0.35085306694E+01  0.31886078654E+02  0.00000000000E+00 0.  1.
         11    1    3    3    0    0  0.96153194706E+01 -0.11993911785E+02 -0.45905924061E+00  0.15379175013E+02  0.51100000000E-03 0. -1.
        -11    1    3    3    0    0  0.12705887568E+02 -0.93292721811E+01  0.24870302872E+01  0.15958076896E+02  0.51100000000E-03 0.  1.
        -12    1    3    3    0    0 -0.26014219529E+02 -0.10153376887E+02  0.14805596228E+01  0.27964669437E+02  0.00000000000E+00 0.  1.
</event>
<event>
 7    1  0.6198176E-013  0.5930173E+02  0.7816164E-02  0.1266606E+00
        -11   -1    0    0    0    0  0.00000000000E+00  0.00000000000E+00  0.45593999997E+02  0.45594000000E+02  0.51100000000E-03 0. -1.
         11   -1    0    0    0    0 -0.00000000000E+00 -0.00000000000E+00 -0.45593999997E+02  0.45594000000E+02  0.51100000000E-03 0.  1.
    9900012    2    1    2    0    0  0.18477383934E+02  0.18659323153E+02  0.18087297288E+02  0.59301727393E+02  0.49999604908E+02 0.  0.
        -12    1    1    2    0    0 -0.18477383934E+02 -0.18659323153E+02 -0.18087297288E+02  0.31886272607E+02  0.00000000000E+00 0.  1.
         11    1    3    3    0    0  0.24398852342E+02  0.14463965172E+02  0.12961434037E+02  0.31185077468E+02  0.51100000000E-03 0.  1.
        -11    1    3    3    0    0  0.43071470573E+01 -0.43470637961E+01  0.11739862316E+02  0.13239065181E+02  0.51100000000E-03 0. -1.
        -12    1    3    3    0    0 -0.10228615465E+02  0.85424217775E+01 -0.66139990651E+01  0.14877584743E+02  0.00000000000E+00 0.  1.
</event>
<event>
 7    1  0.6198176E-013  0.5930194E+02  0.7816164E-02  0.1266605E+00
        -11   -1    0    0    0    0  0.00000000000E+00  0.00000000000E+00  0.45593999997E+02  0.45594000000E+02  0.51100000000E-03 0.  1.
         11   -1    0    0    0    0 -0.00000000000E+00 -0.00000000000E+00 -0.45593999997E+02  0.45594000000E+02  0.51100000000E-03 0. -1.
    9900012    2    1    2    0    0  0.38291431223E+01  0.31450824224E+02 -0.35922165288E+01  0.59301941903E+02  0.49999996125E+02 0.  0.
        -12    1    1    2    0    0 -0.38291431223E+01 -0.31450824224E+02  0.35922165288E+01  0.31886058097E+02  0.00000000000E+00 0.  1.
         11    1    3    3    0    0 -0.46010941181E+01 -0.59645267236E+01  0.21575344530E+01  0.78358535781E+01  0.51100000000E-03 0. -1.
        -11    1    3    3    0    0  0.18158830210E+01  0.14134682082E+02 -0.19096518179E+02  0.23827792083E+02  0.51100000000E-03 0.  1.
         12    1    3    3    0    0  0.66143542194E+01  0.23280668865E+02  0.13346767197E+02  0.27638296242E+02  0.00000000000E+00 0. -1.
</event>
<event>
 7    1  0.6198176E-013  0.5930198E+02  0.7816164E-02  0.1266605E+00
        -11   -1    0    0    0    0  0.00000000000E+00  0.00000000000E+00  0.45593999997E+02  0.45594000000E+02  0.51100000000E-03 0. -1.
         11   -1    0    0    0    0 -0.00000000000E+00 -0.00000000000E+00 -0.45593999997E+02  0.45594000000E+02  0.51100000000E-03 0.  1.
    9900012    2    1    2    0    0 -0.21640591116E+02 -0.62366009613E+01  0.22572284814E+02  0.59301977715E+02  0.50000061438E+02 0.  0.
        -12    1    1    2    0    0  0.21640591116E+02  0.62366009613E+01 -0.22572284814E+02  0.31886022285E+02  0.00000000000E+00 0.  1.
         11    1    3    3    0    0 -0.13388886258E+02  0.10522913107E+02  0.25260929475E+02  0.30464873768E+02  0.51100000000E-03 0. -1.
        -11    1    3    3    0    0  0.33552520735E+01  0.38188448070E+01 -0.60635009472E+00  0.51194680227E+01  0.51100000000E-03 0.  1.
         12    1    3    3    0    0 -0.11606956932E+02 -0.20578358875E+02 -0.20822945662E+01  0.23717635925E+02  0.00000000000E+00 0. -1.
</event>
<event>
 7    1  0.6198176E-013  0.5930203E+02  0.7816164E-02  0.1266604E+00
        -11   -1    0    0    0    0  0.00000000000E+00  0.00000000000E+00  0.45593999997E+02  0.45594000000E+02  0.51100000000E-03 0.  1.
         11   -1    0    0    0    0 -0.00000000000E+00 -0.00000000000E+00 -0.45593999997E+02  0.45594000000E+02  0.51100000000E-03 0. -1.
    9900012    2    1    2    0    0  0.27954865143E+02  0.15285715628E+02 -0.12599009355E+01  0.59302032274E+02  0.50000160941E+02 0.  0.
        -12    1    1    2    0    0 -0.27954865143E+02 -0.15285715628E+02  0.12599009355E+01  0.31885967726E+02  0.00000000000E+00 0.  1.
         11    1    3    3    0    0  0.86632375729E+01 -0.31690167551E+01  0.14349559603E+02  0.17058845609E+02  0.51100000000E-03 0. -1.
        -11    1    3    3    0    0  0.15368298215E+01  0.17625694560E+02  0.12609629862E+01  0.17737445773E+02  0.51100000000E-03 0.  1.
         12    1    3    3    0    0  0.17754797749E+02  0.82903782258E+00 -0.16870423525E+02  0.24505740893E+02  0.00000000000E+00 0. -1.
</event>
<event>
 7    1  0.6198176E-013  0.5930197E+02  0.7816164E-02  0.1266605E+00
        -11   -1    0    0    0    0  0.00000000000E+00  0.00000000000E+00  0.45593999997E+02  0.45594000000E+02  0.51100000000E-03 0.  1.
         11   -1    0    0    0    0 -0.00000000000E+00 -0.00000000000E+00 -0.45593999997E+02  0.45594000000E+02  0.51100000000E-03 0. -1.
    9900012    2    1    2    0    0  0.29024720075E+02 -0.10309473868E+02 -0.82461776182E+01  0.59301967444E+02  0.50000042705E+02 0.  0.
        -12    1    1    2    0    0 -0.29024720075E+02  0.10309473868E+02  0.82461776182E+01  0.31886032556E+02  0.00000000000E+00 0.  1.
         11    1    3    3    0    0  0.13211107003E+02  0.21796224832E+01  0.36368634211E+00  0.13394639615E+02  0.51100000000E-03 0. -1.
        -11    1    3    3    0    0  0.16011404254E+02 -0.24598069175E+01 -0.23142545285E+02  0.28248771988E+02  0.51100000000E-03 0.  1.
         12    1    3    3    0    0 -0.19779118196E+00 -0.10029289434E+02  0.14532681325E+02  0.17658555841E+02  0.00000000000E+00 0. -1.
</event>
<event>
 7    1  0.6198176E-013  0.5930195E+02  0.7816164E-02  0.1266605E+00
        -11   -1    0    0    0    0  0.00000000000E+00  0.00000000000E+00  0.45593999997E+02  0.45594000000E+02  0.51100000000E-03 0.  1.
         11   -1    0    0    0    0 -0.00000000000E+00 -0.00000000000E+00 -0.45593999997E+02  0.45594000000E+02  0.51100000000E-03 0. -1.
    9900012    2    1    2    0    0 -0.89218844129E+01  0.49541711638E+00 -0.30608412454E+02  0.59301947053E+02  0.50000005517E+02 0.  0.
        -12    1    1    2    0    0  0.89218844129E+01 -0.49541711638E+00  0.30608412454E+02  0.31886052947E+02  0.00000000000E+00 0.  1.
         11    1    3    3    0    0 -0.21255738187E+01  0.21204949962E+01  0.83948279426E+01  0.89155874476E+01  0.51100000000E-03 0. -1.
        -11    1    3    3    0    0 -0.73373514200E+01 -0.58789749196E+01  0.16172476071E+01  0.95401552425E+01  0.51100000000E-03 0.  1.
         12    1    3    3    0    0  0.54104082581E+00  0.42538970398E+01 -0.40620488004E+02  0.40846204363E+02  0.00000000000E+00 0. -1.
</event>
<event>
 7    1  0.6198176E-013  0.5930194E+02  0.7816164E-02  0.1266605E+00
        -11   -1    0    0    0    0  0.00000000000E+00  0.00000000000E+00  0.45593999997E+02  0.45594000000E+02  0.51100000000E-03 0. -1.
         11   -1    0    0    0    0 -0.00000000000E+00 -0.00000000000E+00 -0.45593999997E+02  0.45594000000E+02  0.51100000000E-03 0.  1.
    9900012    2    1    2    0    0 -0.15903550707E+02 -0.26689890595E+02  0.71727216996E+01  0.59301935307E+02  0.49999984095E+02 0.  0.
        -12    1    1    2    0    0  0.15903550707E+02  0.26689890595E+02 -0.71727216996E+01  0.31886064693E+02  0.00000000000E+00 0.  1.
         11    1    3    3    0    0  0.96087883434E+01 -0.88149095098E+01  0.72714643663E+01  0.14930024695E+02  0.51100000000E-03 0. -1.
        -11    1    3    3    0    0  0.46066898725E+01 -0.88529091279E+01 -0.69900603221E+01  0.12184274093E+02  0.51100000000E-03 0.  1.
        -12    1    3    3    0    0 -0.30119028923E+02 -0.90220719569E+01  0.68913176554E+01  0.32187636519E+02  0.00000000000E+00 0.  1.
</event>
<event>
 7    1  0.6198176E-013  0.5930195E+02  0.7816164E-02  0.1266605E+00
        -11   -1    0    0    0    0  0.00000000000E+00  0.00000000000E+00  0.45593999997E+02  0.45594000000E+02  0.51100000000E-03 0.  1.
         11   -1    0    0    0    0 -0.00000000000E+00 -0.00000000000E+00 -0.45593999997E+02  0.45594000000E+02  0.51100000000E-03 0. -1.
    9900012    2    1    2    0    0 -0.76108270641E+01 -0.66062381200E+01 -0.30251501366E+02  0.59301946534E+02  0.50000004572E+02 0.  0.
        -12    1    1    2    0    0  0.76108270641E+01  0.66062381200E+01  0.30251501366E+02  0.31886053466E+02  0.00000000000E+00 0.  1.
         11    1    3    3    0    0  0.26921933863E+01 -0.46479253687E+01 -0.82141999925E+01  0.98144891482E+01  0.51100000000E-03 0. -1.
        -11    1    3    3    0    0  0.87639521313E+01  0.10269544483E+02 -0.23160923928E+02  0.26808558303E+02  0.51100000000E-03 0.  1.
         12    1    3    3    0    0 -0.19066972582E+02 -0.12227857234E+02  0.11236225541E+01  0.22678899083E+02  0.00000000000E+00 0. -1.
</event>
<event>
 7    1  0.6198176E-013  0.5930196E+02  0.7816164E-02  0.1266605E+00
        -11   -1    0    0    0    0  0.00000000000E+00  0.00000000000E+00  0.45593999997E+02  0.45594000000E+02  0.51100000000E-03 0. -1.
         11   -1    0    0    0    0 -0.00000000000E+00 -0.00000000000E+00 -0.45593999997E+02  0.45594000000E+02  0.51100000000E-03 0.  1.
    9900012    2    1    2    0    0  0.28154667221E+02 -0.14755859750E+02 -0.25097090949E+01  0.59301963510E+02  0.50000035530E+02 0.  0.
        -12    1    1    2    0    0 -0.28154667221E+02  0.14755859750E+02  0.25097090949E+01  0.31886036490E+02  0.00000000000E+00 0.  1.
         11    1    3    3    0    0  0.15017056428E+02 -0.22063894123E+02 -0.31516409389E+01  0.26874899972E+02  0.51100000000E-03 0. -1.
        -11    1    3    3    0    0  0.96065779739E+01 -0.15829624757E+01 -0.12704529530E+02  0.16006160733E+02  0.51100000000E-03 0.  1.
        -12    1    3    3    0    0  0.35310328195E+01  0.88909968484E+01  0.13346461374E+02  0.16420902805E+02  0.00000000000E+00 0.  1.
</event>
<event>
 7    1  0.6198176E-013  0.5930196E+02  0.7816164E-02  0.1266605E+00
        -11   -1    0    0    0    0  0.00000000000E+00  0.00000000000E+00  0.45593999997E+02  0.45594000000E+02  0.51100000000E-03 0.  1.
         11   -1    0    0    0    0 -0.00000000000E+00 -0.00000000000E+00 -0.45593999997E+02  0.45594000000E+02  0.51100000000E-03 0. -1.
    9900012    2    1    2    0    0  0.26237140175E+02 -0.17875123522E+02 -0.29685026542E+01  0.59301959582E+02  0.50000028368E+02 0.  0.
        -12    1    1    2    0    0 -0.26237140175E+02  0.17875123522E+02  0.29685026542E+01  0.31886040418E+02  0.00000000000E+00 0.  1.
         11    1    3    3    0    0  0.13608228034E+02 -0.70819019392E+00  0.41523117738E+01  0.14245248222E+02  0.51100000000E-03 0.  1.
        -11    1    3    3    0    0  0.57453172374E+01 -0.92061278111E+01 -0.23330187614E+02  0.25730509396E+02  0.51100000000E-03 0. -1.
         12    1    3    3    0    0  0.68835949038E+01 -0.79608055174E+01  0.16209373186E+02  0.19326201964E+02  0.00000000000E+00 0. -1.
</event>
<event>
 7    1  0.6198176E-013  0.5930200E+02  0.7816164E-02  0.1266605E+00
        -11   -1    0    0    0    0  0.00000000000E+00  0.00000000000E+00  0.45593999997E+02  0.45594000000E+02  0.51100000000E-03 0.  1.
         11   -1    0    0    0    0 -0.00000000000E+00 -0.00000000000E+00 -0.45593999997E+02  0.45594000000E+02  0.51100000000E-03 0. -1.
    9900012    2    1    2    0    0 -0.15650611230E+02  0.24714799572E+02  0.12686777191E+02  0.59301995778E+02  0.50000094381E+02 0.  0.
        -12    1    1    2    0    0  0.15650611230E+02 -0.24714799572E+02 -0.12686777191E+02  0.31886004222E+02  0.00000000000E+00 0.  1.
         11    1    3    3    0    0  0.83375376568E+00 -0.31335564502E+01  0.42304563964E+01  0.53302047757E+01  0.51100000000E-03 0. -1.
        -11    1    3    3    0    0  0.63899843213E+01  0.34223583301E+01  0.17806750953E+02  0.19225629142E+02  0.51100000000E-03 0.  1.
         12    1    3    3    0    0 -0.22874349317E+02  0.24425997692E+02 -0.93504301581E+01  0.34746161860E+02  0.00000000000E+00 0. -1.
</event>
<event>
 7    1  0.6198176E-013  0.5930195E+02  0.7816164E-02  0.1266605E+00
        -11   -1    0    0    0    0  0.00000000000E+00  0.00000000000E+00  0.45593999997E+02  0.45594000000E+02  0.51100000000E-03 0. -1.
         11   -1    0    0    0    0 -0.00000000000E+00 -0.00000000000E+00 -0.45593999997E+02  0.45594000000E+02  0.51100000000E-03 0.  1.
    9900012    2    1    2    0    0  0.59556970279E+01  0.17677631885E+02  0.25860227726E+02  0.59301947027E+02  0.50000005470E+02 0.  0.
        -12    1    1    2    0    0 -0.59556970279E+01 -0.17677631885E+02 -0.25860227726E+02  0.31886052973E+02  0.00000000000E+00 0.  1.
         11    1    3    3    0    0  0.11920108883E+02 -0.81871093783E+01  0.12795208995E+02  0.19308939102E+02  0.51100000000E-03 0. -1.
        -11    1    3    3    0    0  0.71262791240E+01  0.31040796539E+01 -0.39361395553E+01  0.87127699103E+01  0.51100000000E-03 0.  1.
        -12    1    3    3    0    0 -0.13090690979E+02  0.22760661609E+02  0.17001158287E+02  0.31280238015E+02  0.00000000000E+00 0.  1.
</event>
<event>
 7    1  0.6198176E-013  0.5930191E+02  0.7816164E-02  0.1266605E+00
        -11   -1    0    0    0    0  0.00000000000E+00  0.00000000000E+00  0.45593999997E+02  0.45594000000E+02  0.51100000000E-03 0.  1.
         11   -1    0    0    0    0 -0.00000000000E+00 -0.00000000000E+00 -0.45593999997E+02  0.45594000000E+02  0.51100000000E-03 0. -1.
    9900012    2    1    2    0    0 -0.76192236846E+01 -0.30203302910E+02  0.68140228738E+01  0.59301906104E+02  0.49999930835E+02 0.  0.
        -12    1    1    2    0    0  0.76192236846E+01  0.30203302910E+02 -0.68140228738E+01  0.31886093896E+02  0.00000000000E+00 0.  1.
         11    1    3    3    0    0 -0.11315603377E+02 -0.13760629825E+02  0.45350023157E+01  0.18383798824E+02  0.51100000000E-03 0. -1.
        -11    1    3    3    0    0 -0.13065177697E+02 -0.10707383087E+02  0.11990541097E+02  0.20715211727E+02  0.51100000000E-03 0.  1.
        -12    1    3    3    0    0  0.16761557389E+02 -0.57352899983E+01 -0.97115205394E+01  0.20202895552E+02  0.00000000000E+00 0.  1.
</event>
<event>
 7    1  0.6198176E-013  0.5930202E+02  0.7816164E-02  0.1266604E+00
        -11   -1    0    0    0    0  0.00000000000E+00  0.00000000000E+00  0.45593999997E+02  0.45594000000E+02  0.51100000000E-03 0.  1.
         11   -1    0    0    0    0 -0.00000000000E+00 -0.00000000000E+00 -0.45593999997E+02  0.45594000000E+02  0.51100000000E-03 0. -1.
    9900012    2    1    2    0    0 -0.19937961698E+02  0.78366379142E+01 -0.23617374325E+02  0.59302022196E+02  0.50000142560E+02 0.  0.
        -12    1    1    2    0    0  0.19937961698E+02 -0.78366379142E+01  0.23617374325E+02  0.31885977804E+02  0.00000000000E+00 0.  1.
         11    1    3    3    0    0  0.52748418543E+01  0.84175440262E+01 -0.85111231855E+01  0.13081216387E+02  0.51100000000E-03 0. -1.
        -11    1    3    3    0    0 -0.26049214376E+00 -0.14034348422E+02 -0.10434717053E+02  0.17490400568E+02  0.51100000000E-03 0.  1.
        -12    1    3    3    0    0 -0.24952311409E+02  0.13453442310E+02 -0.46715340869E+01  0.28730405242E+02  0.00000000000E+00 0.  1.
</event>
<event>
 7    1  0.6198176E-013  0.5930185E+02  0.7816164E-02  0.1266605E+00
        -11   -1    0    0    0    0  0.00000000000E+00  0.00000000000E+00  0.45593999997E+02  0.45594000000E+02  0.51100000000E-03 0.  1.
         11   -1    0    0    0    0 -0.00000000000E+00 -0.00000000000E+00 -0.45593999997E+02  0.45594000000E+02  0.51100000000E-03 0. -1.
    9900012    2    1    2    0    0  0.11360280157E+02  0.78442525292E+01 -0.28742616653E+02  0.59301854496E+02  0.49999836716E+02 0.  0.
        -12    1    1    2    0    0 -0.11360280157E+02 -0.78442525292E+01  0.28742616653E+02  0.31886145504E+02  0.00000000000E+00 0.  1.
         11    1    3    3    0    0  0.18212147368E+02 -0.28174854982E+01 -0.30122694478E+02  0.35312848358E+02  0.51100000000E-03 0. -1.
        -11    1    3    3    0    0  0.27711998544E+00 -0.37784095785E+01  0.61236587784E+01  0.72008590824E+01  0.51100000000E-03 0.  1.
        -12    1    3    3    0    0 -0.71289871959E+01  0.14440147606E+02 -0.47435809538E+01  0.16788147056E+02  0.00000000000E+00 0.  1.
</event>
<event>
 7    1  0.6198176E-013  0.5930180E+02  0.7816164E-02  0.1266605E+00
        -11   -1    0    0    0    0  0.00000000000E+00  0.00000000000E+00  0.45593999997E+02  0.45594000000E+02  0.51100000000E-03 0.  1.
         11   -1    0    0    0    0 -0.00000000000E+00 -0.00000000000E+00 -0.45593999997E+02  0.45594000000E+02  0.51100000000E-03 0. -1.
    9900012    2    1    2    0    0 -0.18652269052E+00  0.62887683301E+01 -0.31259344799E+02  0.59301795537E+02  0.49999729187E+02 0.  0.
        -12    1    1    2    0    0  0.18652269052E+00 -0.62887683301E+01  0.31259344799E+02  0.31886204463E+02  0.00000000000E+00 0.  1.
         11    1    3    3    0    0 -0.20012942930E+00 -0.59918142673E+01  0.19947935547E+01  0.63183139831E+01  0.51100000000E-03 0. -1.
        -11    1    3    3    0    0 -0.13681647655E+02  0.48705186478E+01  0.17928685429E+01  0.14632970044E+02  0.51100000000E-03 0.  1.
         12    1    3    3    0    0  0.13695254393E+02  0.74100639496E+01 -0.35047006896E+02  0.38350511509E+02  0.00000000000E+00 0. -1.
</event>
<event>
 7    1  0.6198176E-013  0.5930201E+02  0.7816164E-02  0.1266605E+00
        -11   -1    0    0    0    0  0.00000000000E+00  0.00000000000E+00  0.45593999997E+02  0.45594000000E+02  0.51100000000E-03 0. -1.
         11   -1    0    0    0    0 -0.00000000000E+00 -0.00000000000E+00 -0.45593999997E+02  0.45594000000E+02  0.51100000000E-03 0.  1.
    9900012    2    1    2    0    0  0.23002225869E+02 -0.20833294490E+02  0.73203600651E+01  0.59302012078E+02  0.50000124108E+02 0.  0.
        -12    1    1    2    0    0 -0.23002225869E+02  0.20833294490E+02 -0.73203600651E+01  0.31885987922E+02  0.00000000000E+00 0.  1.
         11    1    3    3    0    0  0.13670585429E+01  0.52457038529E+01  0.31116911913E+01  0.62505104034E+01  0.51100000000E-03 0. -1.
        -11    1    3    3    0    0 -0.19058983916E+01  0.68750230099E+01 -0.80323252625E+01  0.10743213646E+02  0.51100000000E-03 0.  1.
         12    1    3    3    0    0  0.23541065718E+02 -0.32954021353E+02  0.12240994136E+02  0.42308288029E+02  0.00000000000E+00 0. -1.
</event>
<event>
 7    1  0.6198176E-013  0.5930195E+02  0.7816164E-02  0.1266605E+00
        -11   -1    0    0    0    0  0.00000000000E+00  0.00000000000E+00  0.45593999997E+02  0.45594000000E+02  0.51100000000E-03 0.  1.
         11   -1    0    0    0    0 -0.00000000000E+00 -0.00000000000E+00 -0.45593999997E+02  0.45594000000E+02  0.51100000000E-03 0. -1.
    9900012    2    1    2    0    0  0.23711315457E+02  0.43841671488E+00 -0.21314351487E+02  0.59301948673E+02  0.50000008471E+02 0.  0.
        -12    1    1    2    0    0 -0.23711315457E+02 -0.43841671488E+00  0.21314351487E+02  0.31886051327E+02  0.00000000000E+00 0.  1.
         11    1    3    3    0    0  0.65760834951E+01 -0.21189471006E+02 -0.17477751800E+02  0.28243766814E+02  0.51100000000E-03 0. -1.
        -11    1    3    3    0    0  0.23536842734E+01  0.83104621828E+01 -0.67342681949E+01  0.10952350420E+02  0.51100000000E-03 0.  1.
        -12    1    3    3    0    0  0.14781547689E+02  0.13317425538E+02  0.28976685075E+01  0.20105831438E+02  0.00000000000E+00 0.  1.
</event>
<event>
 7    1  0.6198176E-013  0.5930185E+02  0.7816164E-02  0.1266605E+00
        -11   -1    0    0    0    0  0.00000000000E+00  0.00000000000E+00  0.45593999997E+02  0.45594000000E+02  0.51100000000E-03 0. -1.
         11   -1    0    0    0    0 -0.00000000000E+00 -0.00000000000E+00 -0.45593999997E+02  0.45594000000E+02  0.51100000000E-03 0.  1.
    9900012    2    1    2    0    0  0.10103217934E+02  0.13414901749E+02  0.27105200181E+02  0.59301851309E+02  0.49999830902E+02 0.  0.
        -12    1    1    2    0    0 -0.10103217934E+02 -0.13414901749E+02 -0.27105200181E+02  0.31886148691E+02  0.00000000000E+00 0.  1.
         11    1    3    3    0    0  0.15692542831E+02 -0.77417264959E+01  0.17783412599E+02  0.24948747335E+02  0.51100000000E-03 0. -1.
        -11    1    3    3    0    0 -0.63267399677E+01  0.83403399166E+01  0.16578140961E+02  0.19606725033E+02  0.51100000000E-03 0.  1.
        -12    1    3    3    0    0  0.73741507082E+00  0.12816288328E+02 -0.72563533797E+01  0.14746378941E+02  0.00000000000E+00 0.  1.
</event>
<event>
 7    1  0.6198176E-013  0.5930196E+02  0.7816164E-02  0.1266605E+00
        -11   -1    0    0    0    0  0.00000000000E+00  0.00000000000E+00  0.45593999997E+02  0.45594000000E+02  0.51100000000E-03 0. -1.
         11   -1    0    0    0    0 -0.00000000000E+00 -0.00000000000E+00 -0.45593999997E+02  0.45594000000E+02  0.51100000000E-03 0.  1.
    9900012    2    1    2    0    0  0.24558951452E+02  0.27349103260E+01 -0.20151872402E+02  0.59301956153E+02  0.50000022113E+02 0.  0.
        -12    1    1    2    0    0 -0.24558951452E+02 -0.27349103260E+01  0.20151872402E+02  0.31886043847E+02  0.00000000000E+00 0.  1.
         11    1    3    3    0    0  0.12611069980E+02  0.40857139346E+01 -0.59478995092E+01  0.14529612976E+02  0.51100000000E-03 0. -1.
        -11    1    3    3    0    0  0.13624498539E+02 -0.18962410864E+02 -0.13704168358E+02  0.27074050618E+02  0.51100000000E-03 0.  1.
         12    1    3    3    0    0 -0.16766170677E+01  0.17611607256E+02 -0.49980453566E+00  0.17698292559E+02  0.00000000000E+00 0. -1.
</event>
<event>
 7    1  0.6198176E-013  0.5930183E+02  0.7816164E-02  0.1266605E+00
        -11   -1    0    0    0    0  0.00000000000E+00  0.00000000000E+00  0.45593999997E+02  0.45594000000E+02  0.51100000000E-03 0.  1.
         11   -1    0    0    0    0 -0.00000000000E+00 -0.00000000000E+00 -0.45593999997E+02  0.45594000000E+02  0.51100000000E-03 0. -1.
    9900012    2    1    2    0    0  0.16271444177E+02 -0.84079039855E+01 -0.26101246352E+02  0.59301830488E+02  0.49999792931E+02 0.  0.
        -12    1    1    2    0    0 -0.16271444177E+02  0.84079039855E+01  0.26101246352E+02  0.31886169512E+02  0.00000000000E+00 0.  1.
         11    1    3    3    0    0  0.48619166649E+01 -0.13888240103E+02 -0.31371163084E+02  0.34650704470E+02  0.51100000000E-03 0. -1.
        -11    1    3    3    0    0  0.49311708641E+01 -0.77887797160E+01  0.95733317128E+00  0.92681186126E+01  0.51100000000E-03 0.  1.
        -12    1    3    3    0    0  0.64783566480E+01  0.13269115833E+02  0.43125835610E+01  0.15383007405E+02  0.00000000000E+00 0.  1.
</event>
<event>
 7    1  0.6198176E-013  0.5930192E+02  0.7816164E-02  0.1266605E+00
        -11   -1    0    0    0    0  0.00000000000E+00  0.00000000000E+00  0.45593999997E+02  0.45594000000E+02  0.51100000000E-03 0. -1.
         11   -1    0    0    0    0 -0.00000000000E+00 -0.00000000000E+00 -0.45593999997E+02  0.45594000000E+02  0.51100000000E-03 0.  1.
    9900012    2    1    2    0    0  0.17048767040E+02  0.22385911598E+02  0.14997746402E+02  0.59301923214E+02  0.49999962041E+02 0.  0.
        -12    1    1    2    0    0 -0.17048767040E+02 -0.22385911598E+02 -0.14997746402E+02  0.31886076786E+02  0.00000000000E+00 0.  1.
         11    1    3    3    0    0  0.96509673959E-01  0.94043550367E+01 -0.48698293517E+01  0.10590866157E+02  0.51100000000E-03 0. -1.
        -11    1    3    3    0    0  0.27264933876E+02  0.97377626147E+01  0.35941064079E+01  0.29173930849E+02  0.51100000000E-03 0.  1.
        -12    1    3    3    0    0 -0.10312676510E+02  0.32437939461E+01  0.16273469346E+02  0.19537126209E+02  0.00000000000E+00 0.  1.
</event>
<event>
 7    1  0.6198176E-013  0.5930195E+02  0.7816164E-02  0.1266605E+00
        -11   -1    0    0    0    0  0.00000000000E+00  0.00000000000E+00  0.45593999997E+02  0.45594000000E+02  0.51100000000E-03 0. -1.
         11   -1    0    0    0    0 -0.00000000000E+00 -0.00000000000E+00 -0.45593999997E+02  0.45594000000E+02  0.51100000000E-03 0.  1.
    9900012    2    1    2    0    0 -0.17943589849E+02  0.24860921901E+02  0.87568452508E+01  0.59301949865E+02  0.50000010647E+02 0.  0.
        -12    1    1    2    0    0  0.17943589849E+02 -0.24860921901E+02 -0.87568452508E+01  0.31886050135E+02  0.00000000000E+00 0.  1.
         11    1    3    3    0    0 -0.18760560669E+02  0.22193435386E+02  0.46782392028E+01  0.29434556786E+02  0.51100000000E-03 0. -1.
        -11    1    3    3    0    0 -0.18621753859E+01  0.65125508761E+01  0.15828757646E+02  0.17217159607E+02  0.51100000000E-03 0.  1.
        -12    1    3    3    0    0  0.26791462063E+01 -0.38450643613E+01 -0.11750151598E+02  0.12650233472E+02  0.00000000000E+00 0.  1.
</event>
<event>
 7    1  0.6198176E-013  0.5930194E+02  0.7816164E-02  0.1266605E+00
        -11   -1    0    0    0    0  0.00000000000E+00  0.00000000000E+00  0.45593999997E+02  0.45594000000E+02  0.51100000000E-03 0.  1.
         11   -1    0    0    0    0 -0.00000000000E+00 -0.00000000000E+00 -0.45593999997E+02  0.45594000000E+02  0.51100000000E-03 0. -1.
    9900012    2    1    2    0    0  0.15994391687E+02  0.21325239228E+02  0.17496703635E+02  0.59301936717E+02  0.49999986668E+02 0.  0.
        -12    1    1    2    0    0 -0.15994391687E+02 -0.21325239228E+02 -0.17496703635E+02  0.31886063283E+02  0.00000000000E+00 0.  1.
         11    1    3    3    0    0  0.12843910601E+02  0.74618815014E+00 -0.21230584151E+01  0.13039563397E+02  0.51100000000E-03 0. -1.
        -11    1    3    3    0    0  0.11331936977E+02  0.28372054064E+02  0.15271255602E+02  0.34155489974E+02  0.51100000000E-03 0.  1.
        -12    1    3    3    0    0 -0.81814558908E+01 -0.77930029859E+01  0.43485064480E+01  0.12106883346E+02  0.00000000000E+00 0.  1.
</event>
<event>
 7    1  0.6198176E-013  0.5930194E+02  0.7816164E-02  0.1266605E+00
        -11   -1    0    0    0    0  0.00000000000E+00  0.00000000000E+00  0.45593999997E+02  0.45594000000E+02  0.51100000000E-03 0.  1.
         11   -1    0    0    0    0 -0.00000000000E+00 -0.00000000000E+00 -0.45593999997E+02  0.45594000000E+02  0.51100000000E-03 0. -1.
    9900012    2    1    2    0    0  0.26613830444E+02 -0.72166577442E+01 -0.16010773883E+02  0.59301937210E+02  0.49999987567E+02 0.  0.
        -12    1    1    2    0    0 -0.26613830444E+02  0.72166577442E+01  0.16010773883E+02  0.31886062790E+02  0.00000000000E+00 0.  1.
         11    1    3    3    0    0  0.16012555885E+01  0.20858529309E+01 -0.10719722941E+02  0.11037538771E+02  0.51100000000E-03 0. -1.
        -11    1    3    3    0    0 -0.63664678673E+01 -0.11169377826E+02 -0.10248485595E+02  0.16441361603E+02  0.51100000000E-03 0.  1.
         12    1    3    3    0    0  0.31379042723E+02  0.18668671508E+01  0.49574346536E+01  0.31823036836E+02  0.00000000000E+00 0. -1.
</event>
<event>
 7    1  0.6198176E-013  0.5930184E+02  0.7816164E-02  0.1266605E+00
        -11   -1    0    0    0    0  0.00000000000E+00  0.00000000000E+00  0.45593999997E+02  0.45594000000E+02  0.51100000000E-03 0.  1.
         11   -1    0    0    0    0 -0.00000000000E+00 -0.00000000000E+00 -0.45593999997E+02  0.45594000000E+02  0.51100000000E-03 0. -1.
    9900012    2    1    2    0    0 -0.12170459672E+02  0.36763160921E+01 -0.29241957847E+02  0.59301835487E+02  0.49999802047E+02 0.  0.
        -12    1    1    2    0    0  0.12170459672E+02 -0.36763160921E+01  0.29241957847E+02  0.31886164513E+02  0.00000000000E+00 0.  1.
         11    1    3    3    0    0 -0.16961088789E+02  0.27905203443E+01 -0.64685719787E+01  0.18365945672E+02  0.51100000000E-03 0.  1.
        -11    1    3    3    0    0 -0.34720032391E+00 -0.33306619383E+00 -0.31085023304E+02  0.31088746440E+02  0.51100000000E-03 0. -1.
         12    1    3    3    0    0  0.51378294411E+01  0.12188619417E+01  0.83116374351E+01  0.98471433752E+01  0.00000000000E+00 0. -1.
</event>
<event>
 7    1  0.1309472E-012  0.5930195E+02  0.7816164E-02  0.1266605E+00
        -11   -1    0    0    0    0  0.00000000000E+00  0.00000000000E+00  0.45593999997E+02  0.45594000000E+02  0.51100000000E-03 0. -1.
         11   -1    0    0    0    0 -0.00000000000E+00 -0.00000000000E+00 -0.45593999997E+02  0.45594000000E+02  0.51100000000E-03 0.  1.
    9900012    2    1    2    0    0  0.66035067356E+01 -0.23906641169E+02  0.20039617108E+02  0.59301952157E+02  0.50000014826E+02 0.  0.
        -12    1    1    2    0    0 -0.66035067356E+01  0.23906641169E+02 -0.20039617108E+02  0.31886047843E+02  0.00000000000E+00 0.  1.
         11    1    3    3    0    0 -0.15769103092E+01  0.25411069946E+01  0.23354673705E+02  0.23545374387E+02  0.51100000000E-03 0. -1.
        -11    1    3    3    0    0  0.10944606424E+02 -0.14495814724E+02  0.72595614344E+01  0.19560528795E+02  0.51100000000E-03 0.  1.
        -12    1    3    3    0    0 -0.27641893788E+01 -0.11951933440E+02 -0.10574618032E+02  0.16196048975E+02  0.00000000000E+00 0.  1.
</event>
<event>
 7    1  0.6198176E-013  0.5930193E+02  0.7816164E-02  0.1266605E+00
        -11   -1    0    0    0    0  0.00000000000E+00  0.00000000000E+00  0.45593999997E+02  0.45594000000E+02  0.51100000000E-03 0. -1.
         11   -1    0    0    0    0 -0.00000000000E+00 -0.00000000000E+00 -0.45593999997E+02  0.45594000000E+02  0.51100000000E-03 0.  1.
    9900012    2    1    2    0    0 -0.12312851035E+02  0.21930955281E+02  0.19599698603E+02  0.59301932737E+02  0.49999979409E+02 0.  0.
        -12    1    1    2    0    0  0.12312851035E+02 -0.21930955281E+02 -0.19599698603E+02  0.31886067263E+02  0.00000000000E+00 0.  1.
         11    1    3    3    0    0 -0.21309471323E+02  0.25558251996E+02  0.13174558683E+02  0.35789479039E+02  0.51100000000E-03 0. -1.
        -11    1    3    3    0    0 -0.15471049990E+01  0.44840921026E+01  0.88021697606E+01  0.99989403747E+01  0.51100000000E-03 0.  1.
        -12    1    3    3    0    0  0.10543725287E+02 -0.81113888178E+01 -0.23770298404E+01  0.13513513323E+02  0.00000000000E+00 0.  1.
</event>
<event>
 7    1  0.6198176E-013  0.5930194E+02  0.7816164E-02  0.1266605E+00
        -11   -1    0    0    0    0  0.00000000000E+00  0.00000000000E+00  0.45593999997E+02  0.45594000000E+02  0.51100000000E-03 0.  1.
         11   -1    0    0    0    0 -0.00000000000E+00 -0.00000000000E+00 -0.45593999997E+02  0.45594000000E+02  0.51100000000E-03 0. -1.
    9900012    2    1    2    0    0  0.60546839300E+01 -0.62131040615E+01 -0.30683206790E+02  0.59301936611E+02  0.49999986473E+02 0.  0.
        -12    1    1    2    0    0 -0.60546839300E+01  0.62131040615E+01  0.30683206790E+02  0.31886063389E+02  0.00000000000E+00 0.  1.
         11    1    3    3    0    0 -0.90991902893E-01  0.13000880507E+02 -0.15947816261E+02  0.20575811460E+02  0.51100000000E-03 0. -1.
        -11    1    3    3    0    0  0.12923601803E+02 -0.72593183610E+01 -0.19218691324E+02  0.24270873142E+02  0.51100000000E-03 0.  1.
        -12    1    3    3    0    0 -0.67779259703E+01 -0.11954666208E+02  0.44833007948E+01  0.14455252008E+02  0.00000000000E+00 0.  1.
</event>
<event>
 7    1  0.6198176E-013  0.5930194E+02  0.7816164E-02  0.1266605E+00
        -11   -1    0    0    0    0  0.00000000000E+00  0.00000000000E+00  0.45593999997E+02  0.45594000000E+02  0.51100000000E-03 0. -1.
         11   -1    0    0    0    0 -0.00000000000E+00 -0.00000000000E+00 -0.45593999997E+02  0.45594000000E+02  0.51100000000E-03 0.  1.
    9900012    2    1    2    0    0  0.23621958360E+02 -0.99732073601E+01  0.18954135136E+02  0.59301936892E+02  0.49999986985E+02 0.  0.
        -12    1    1    2    0    0 -0.23621958360E+02  0.99732073601E+01 -0.18954135136E+02  0.31886063108E+02  0.00000000000E+00 0.  1.
         11    1    3    3    0    0  0.47829254384E+01  0.65808269845E+01  0.21939934923E+02  0.23399666755E+02  0.51100000000E-03 0. -1.
        -11    1    3    3    0    0  0.17175544656E+02 -0.12844894962E+02  0.89900057891E+01  0.23255340573E+02  0.51100000000E-03 0.  1.
         12    1    3    3    0    0  0.16634882655E+01 -0.37091393821E+01 -0.11975805577E+02  0.12646929563E+02  0.00000000000E+00 0. -1.
</event>
<event>
 7    1  0.6198176E-013  0.5930188E+02  0.7816164E-02  0.1266605E+00
        -11   -1    0    0    0    0  0.00000000000E+00  0.00000000000E+00  0.45593999997E+02  0.45594000000E+02  0.51100000000E-03 0.  1.
         11   -1    0    0    0    0 -0.00000000000E+00 -0.00000000000E+00 -0.45593999997E+02  0.45594000000E+02  0.51100000000E-03 0. -1.
    9900012    2    1    2    0    0 -0.52077678281E+01  0.11006370865E+02 -0.29469704268E+02  0.59301882095E+02  0.49999887050E+02 0.  0.
        -12    1    1    2    0    0  0.52077678281E+01 -0.11006370865E+02  0.29469704268E+02  0.31886117905E+02  0.00000000000E+00 0.  1.
         11    1    3    3    0    0  0.69812884828E+01  0.22691696460E+02 -0.13800414318E+02  0.27460934302E+02  0.51100000000E-03 0. -1.
        -11    1    3    3    0    0  0.64222054604E+01 -0.21439796746E+01 -0.31692910917E+01  0.74756791066E+01  0.51100000000E-03 0.  1.
        -12    1    3    3    0    0 -0.18611261771E+02 -0.95413459209E+01 -0.12499998859E+02  0.24365268687E+02  0.00000000000E+00 0.  1.
</event>
<event>
 7    1  0.6198176E-013  0.5930194E+02  0.7816164E-02  0.1266605E+00
        -11   -1    0    0    0    0  0.00000000000E+00  0.00000000000E+00  0.45593999997E+02  0.45594000000E+02  0.51100000000E-03 0.  1.
         11   -1    0    0    0    0 -0.00000000000E+00 -0.00000000000E+00 -0.45593999997E+02  0.45594000000E+02  0.51100000000E-03 0. -1.
    9900012    2    1    2    0    0 -0.85768987480E+01  0.18321262130E+02 -0.24647295587E+02  0.59301936932E+02  0.49999987060E+02 0.  0.
        -12    1    1    2    0    0  0.85768987480E+01 -0.18321262130E+02  0.24647295587E+02  0.31886063068E+02  0.00000000000E+00 0.  1.
         11    1    3    3    0    0  0.45399045712E+01 -0.73217159812E+01 -0.18870641301E+02  0.20744140421E+02  0.51100000000E-03 0. -1.
        -11    1    3    3    0    0 -0.14904116706E+02  0.30723976302E+01 -0.45508345147E+01  0.15883400676E+02  0.51100000000E-03 0.  1.
         12    1    3    3    0    0  0.17873133866E+01  0.22570580481E+02 -0.12258197715E+01  0.22674395836E+02  0.00000000000E+00 0. -1.
</event>
<event>
 7    1  0.6198176E-013  0.5930196E+02  0.7816164E-02  0.1266605E+00
        -11   -1    0    0    0    0  0.00000000000E+00  0.00000000000E+00  0.45593999997E+02  0.45594000000E+02  0.51100000000E-03 0.  1.
         11   -1    0    0    0    0 -0.00000000000E+00 -0.00000000000E+00 -0.45593999997E+02  0.45594000000E+02  0.51100000000E-03 0. -1.
    9900012    2    1    2    0    0  0.15242539895E+02 -0.18091486120E+02 -0.21379496461E+02  0.59301956637E+02  0.50000022996E+02 0.  0.
        -12    1    1    2    0    0 -0.15242539895E+02  0.18091486120E+02  0.21379496461E+02  0.31886043363E+02  0.00000000000E+00 0.  1.
         11    1    3    3    0    0  0.25677473763E+02 -0.78504412223E+01 -0.79686323620E+01  0.28008234293E+02  0.51100000000E-03 0. -1.
        -11    1    3    3    0    0 -0.34792824441E+01  0.22074210751E+01  0.59565914988E+01  0.72428652254E+01  0.51100000000E-03 0.  1.
        -12    1    3    3    0    0 -0.69556514245E+01 -0.12448465972E+02 -0.19367455597E+02  0.24050857118E+02  0.00000000000E+00 0.  1.
</event>
<event>
 7    1  0.6198176E-013  0.5930191E+02  0.7816164E-02  0.1266605E+00
        -11   -1    0    0    0    0  0.00000000000E+00  0.00000000000E+00  0.45593999997E+02  0.45594000000E+02  0.51100000000E-03 0.  1.
         11   -1    0    0    0    0 -0.00000000000E+00 -0.00000000000E+00 -0.45593999997E+02  0.45594000000E+02  0.51100000000E-03 0. -1.
    9900012    2    1    2    0    0 -0.14859385994E+02  0.12558893029E+02 -0.25262535165E+02  0.59301908530E+02  0.49999935261E+02 0.  0.
        -12    1    1    2    0    0  0.14859385994E+02 -0.12558893029E+02  0.25262535165E+02  0.31886091470E+02  0.00000000000E+00 0.  1.
         11    1    3    3    0    0  0.63832677010E+01  0.16110220159E+01 -0.79552671337E+01  0.10326072531E+02  0.51100000000E-03 0. -1.
        -11    1    3    3    0    0 -0.10428528286E+02  0.23518393801E+02 -0.19455820531E+02  0.32255201162E+02  0.51100000000E-03 0.  1.
        -12    1    3    3    0    0 -0.10814125409E+02 -0.12570522788E+02  0.21485524993E+01  0.16720634837E+02  0.00000000000E+00 0.  1.
</event>
<event>
 7    1  0.6198176E-013  0.5930197E+02  0.7816164E-02  0.1266605E+00
        -11   -1    0    0    0    0  0.00000000000E+00  0.00000000000E+00  0.45593999997E+02  0.45594000000E+02  0.51100000000E-03 0.  1.
         11   -1    0    0    0    0 -0.00000000000E+00 -0.00000000000E+00 -0.45593999997E+02  0.45594000000E+02  0.51100000000E-03 0. -1.
    9900012    2    1    2    0    0  0.30057079925E+02  0.86613163724E+01 -0.61864942729E+01  0.59301965967E+02  0.50000040013E+02 0.  0.
        -12    1    1    2    0    0 -0.30057079925E+02 -0.86613163724E+01  0.61864942729E+01  0.31886034033E+02  0.00000000000E+00 0.  1.
         11    1    3    3    0    0  0.12712652540E+02  0.16652315554E+02 -0.15773209118E+02  0.26224135335E+02  0.51100000000E-03 0. -1.
        -11    1    3    3    0    0  0.45088639780E+01  0.18940319001E+01  0.15172442172E+02  0.15941148420E+02  0.51100000000E-03 0.  1.
         12    1    3    3    0    0  0.12835563407E+02 -0.98850310819E+01 -0.55857273269E+01  0.17136682212E+02  0.00000000000E+00 0. -1.
</event>
<event>
 7    1  0.6198176E-013  0.5930195E+02  0.7816164E-02  0.1266605E+00
        -11   -1    0    0    0    0  0.00000000000E+00  0.00000000000E+00  0.45593999997E+02  0.45594000000E+02  0.51100000000E-03 0.  1.
         11   -1    0    0    0    0 -0.00000000000E+00 -0.00000000000E+00 -0.45593999997E+02  0.45594000000E+02  0.51100000000E-03 0. -1.
    9900012    2    1    2    0    0 -0.75948969780E+01  0.17112002483E+02 -0.25811186419E+02  0.59301946098E+02  0.50000003776E+02 0.  0.
        -12    1    1    2    0    0  0.75948969780E+01 -0.17112002483E+02  0.25811186419E+02  0.31886053902E+02  0.00000000000E+00 0.  1.
         11    1    3    3    0    0  0.94247115117E+01  0.14536981131E+02 -0.57713566737E+01  0.18260820507E+02  0.51100000000E-03 0. -1.
        -11    1    3    3    0    0  0.36722807523E+01 -0.54251537375E+01  0.45093102941E+01  0.79531011931E+01  0.51100000000E-03 0.  1.
        -12    1    3    3    0    0 -0.20691889242E+02  0.80001750895E+01 -0.24549140040E+02  0.33088024398E+02  0.00000000000E+00 0.  1.
</event>
<event>
 7    1  0.6198176E-013  0.5930194E+02  0.7816164E-02  0.1266605E+00
        -11   -1    0    0    0    0  0.00000000000E+00  0.00000000000E+00  0.45593999997E+02  0.45594000000E+02  0.51100000000E-03 0. -1.
         11   -1    0    0    0    0 -0.00000000000E+00 -0.00000000000E+00 -0.45593999997E+02  0.45594000000E+02  0.51100000000E-03 0.  1.
    9900012    2    1    2    0    0 -0.11980425994E+02  0.22523932081E+02  0.19127541516E+02  0.59301937718E+02  0.49999988493E+02 0.  0.
        -12    1    1    2    0    0  0.11980425994E+02 -0.22523932081E+02 -0.19127541516E+02  0.31886062282E+02  0.00000000000E+00 0.  1.
         11    1    3    3    0    0 -0.16311077766E+02  0.31549623663E+01 -0.76321429404E+00  0.16630921254E+02  0.51100000000E-03 0.  1.
        -11    1    3    3    0    0  0.99370823003E+01  0.98254999287E+01 -0.54647188957E+01  0.15004972721E+02  0.51100000000E-03 0. -1.
         12    1    3    3    0    0 -0.56064305279E+01  0.95434697862E+01  0.25355474706E+02  0.27666043743E+02  0.00000000000E+00 0. -1.
</event>
<event>
 7    1  0.6198176E-013  0.5930193E+02  0.7816164E-02  0.1266605E+00
        -11   -1    0    0    0    0  0.00000000000E+00  0.00000000000E+00  0.45593999997E+02  0.45594000000E+02  0.51100000000E-03 0.  1.
         11   -1    0    0    0    0 -0.00000000000E+00 -0.00000000000E+00 -0.45593999997E+02  0.45594000000E+02  0.51100000000E-03 0. -1.
    9900012    2    1    2    0    0 -0.69553645282E+00  0.29308527615E+02 -0.12539842275E+02  0.59301933981E+02  0.49999981677E+02 0.  0.
        -12    1    1    2    0    0  0.69553645282E+00 -0.29308527615E+02  0.12539842275E+02  0.31886066019E+02  0.00000000000E+00 0.  1.
         11    1    3    3    0    0  0.36007052749E+01  0.62793100251E+01  0.43808281748E+01  0.84608787148E+01  0.51100000000E-03 0. -1.
        -11    1    3    3    0    0  0.68114836555E+01  0.32565307020E+02 -0.10876154863E+02  0.35002660982E+02  0.51100000000E-03 0.  1.
         12    1    3    3    0    0 -0.11107725383E+02 -0.95360894310E+01 -0.60445155873E+01  0.15838394284E+02  0.00000000000E+00 0. -1.
</event>
<event>
 7    1  0.6198176E-013  0.5930195E+02  0.7816164E-02  0.1266605E+00
        -11   -1    0    0    0    0  0.00000000000E+00  0.00000000000E+00  0.45593999997E+02  0.45594000000E+02  0.51100000000E-03 0. -1.
         11   -1    0    0    0    0 -0.00000000000E+00 -0.00000000000E+00 -0.45593999997E+02  0.45594000000E+02  0.51100000000E-03 0.  1.
    9900012    2    1    2    0    0  0.22358593653E+02 -0.13203737855E+02  0.18506079780E+02  0.59301946743E+02  0.50000004952E+02 0.  0.
        -12    1    1    2    0    0 -0.22358593653E+02  0.13203737855E+02 -0.18506079780E+02  0.31886053257E+02  0.00000000000E+00 0.  1.
         11    1    3    3    0    0  0.14301419028E+02 -0.15303351273E+02 -0.28116697889E+01  0.21133590175E+02  0.51100000000E-03 0. -1.
        -11    1    3    3    0    0 -0.37979771905E+01  0.26198955229E+01 -0.64735945281E+01  0.79495855028E+01  0.51100000000E-03 0.  1.
         12    1    3    3    0    0  0.11855151816E+02 -0.52028210450E+00  0.27791344097E+02  0.30218771066E+02  0.00000000000E+00 0. -1.
</event>
<event>
 7    1  0.6198176E-013  0.5930194E+02  0.7816164E-02  0.1266605E+00
        -11   -1    0    0    0    0  0.00000000000E+00  0.00000000000E+00  0.45593999997E+02  0.45594000000E+02  0.51100000000E-03 0.  1.
         11   -1    0    0    0    0 -0.00000000000E+00 -0.00000000000E+00 -0.45593999997E+02  0.45594000000E+02  0.51100000000E-03 0. -1.
    9900012    2    1    2    0    0  0.78019794263E+00 -0.22539437674E+02 -0.22540757628E+02  0.59301941700E+02  0.49999995755E+02 0.  0.
        -12    1    1    2    0    0 -0.78019794263E+00  0.22539437674E+02  0.22540757628E+02  0.31886058300E+02  0.00000000000E+00 0.  1.
         11    1    3    3    0    0  0.18448880328E+02  0.14997136380E+01 -0.17643200608E+02  0.25571328755E+02  0.51100000000E-03 0. -1.
        -11    1    3    3    0    0 -0.27896884982E+01 -0.39345892282E-01  0.33053929095E+01  0.43254517178E+01  0.51100000000E-03 0.  1.
        -12    1    3    3    0    0 -0.14878993887E+02 -0.23999805419E+02 -0.82029499291E+01  0.29405161227E+02  0.00000000000E+00 0.  1.
</event>
<event>
 7    1  0.6198176E-013  0.5930193E+02  0.7816164E-02  0.1266605E+00
        -11   -1    0    0    0    0  0.00000000000E+00  0.00000000000E+00  0.45593999997E+02  0.45594000000E+02  0.51100000000E-03 0. -1.
         11   -1    0    0    0    0 -0.00000000000E+00 -0.00000000000E+00 -0.45593999997E+02  0.45594000000E+02  0.51100000000E-03 0.  1.
    9900012    2    1    2    0    0 -0.21744973263E+02  0.33006772332E+01  0.23086428561E+02  0.59301929121E+02  0.49999972813E+02 0.  0.
        -12    1    1    2    0    0  0.21744973263E+02 -0.33006772332E+01 -0.23086428561E+02  0.31886070879E+02  0.00000000000E+00 0.  1.
         11    1    3    3    0    0 -0.26000171373E+02  0.14479999892E+02  0.19124708099E+02  0.35375609796E+02  0.51100000000E-03 0. -1.
        -11    1    3    3    0    0 -0.45456932251E+01 -0.11800127868E+01  0.86185511490E+01  0.98150487133E+01  0.51100000000E-03 0.  1.
        -12    1    3    3    0    0  0.88008913351E+01 -0.99993098723E+01 -0.46568306871E+01  0.14111270611E+02  0.00000000000E+00 0.  1.
</event>
<event>
 7    1  0.6198176E-013  0.5930196E+02  0.7816164E-02  0.1266605E+00
        -11   -1    0    0    0    0  0.00000000000E+00  0.00000000000E+00  0.45593999997E+02  0.45594000000E+02  0.51100000000E-03 0.  1.
         11   -1    0    0    0    0 -0.00000000000E+00 -0.00000000000E+00 -0.45593999997E+02  0.45594000000E+02  0.51100000000E-03 0. -1.
    9900012    2    1    2    0    0  0.14443924788E+01 -0.91920976372E+01 -0.30498174672E+02  0.59301959372E+02  0.50000027984E+02 0.  0.
        -12    1    1    2    0    0 -0.14443924788E+01  0.91920976372E+01  0.30498174672E+02  0.31886040628E+02  0.00000000000E+00 0.  1.
         11    1    3    3    0    0 -0.95168977633E+01  0.59327432007E+00 -0.16513960683E+02  0.19069195451E+02  0.51100000000E-03 0. -1.
        -11    1    3    3    0    0 -0.63625952639E+01  0.90757929511E+01 -0.86831058799E+01  0.14080091057E+02  0.51100000000E-03 0.  1.
         12    1    3    3    0    0  0.17323885506E+02 -0.18861164908E+02 -0.53011081093E+01  0.26152672864E+02  0.00000000000E+00 0. -1.
</event>
<event>
 7    1  0.6198176E-013  0.5930194E+02  0.7816164E-02  0.1266605E+00
        -11   -1    0    0    0    0  0.00000000000E+00  0.00000000000E+00  0.45593999997E+02  0.45594000000E+02  0.51100000000E-03 0. -1.
         11   -1    0    0    0    0 -0.00000000000E+00 -0.00000000000E+00 -0.45593999997E+02  0.45594000000E+02  0.51100000000E-03 0.  1.
    9900012    2    1    2    0    0  0.25085194610E+02  0.22769724248E+01  0.19551698891E+02  0.59301944716E+02  0.50000001256E+02 0.  0.
        -12    1    1    2    0    0 -0.25085194610E+02 -0.22769724248E+01 -0.19551698891E+02  0.31886055284E+02  0.00000000000E+00 0.  1.
         11    1    3    3    0    0  0.26073137751E+02  0.37231391098E+01  0.33344332784E+01  0.26547857212E+02  0.51100000000E-03 0. -1.
        -11    1    3    3    0    0  0.13182770247E+02 -0.45233527415E+01  0.73447366265E+01  0.15754088606E+02  0.51100000000E-03 0.  1.
        -12    1    3    3    0    0 -0.14170713388E+02  0.30771860565E+01  0.88725289860E+01  0.16999998899E+02  0.00000000000E+00 0.  1.
</event>
<event>
 7    1  0.6198176E-013  0.5930193E+02  0.7816164E-02  0.1266605E+00
        -11   -1    0    0    0    0  0.00000000000E+00  0.00000000000E+00  0.45593999997E+02  0.45594000000E+02  0.51100000000E-03 0. -1.
         11   -1    0    0    0    0 -0.00000000000E+00 -0.00000000000E+00 -0.45593999997E+02  0.45594000000E+02  0.51100000000E-03 0.  1.
    9900012    2    1    2    0    0 -0.13620658642E+02 -0.22210114517E+02  0.18382323715E+02  0.59301931665E+02  0.49999977453E+02 0.  0.
        -12    1    1    2    0    0  0.13620658642E+02  0.22210114517E+02 -0.18382323715E+02  0.31886068335E+02  0.00000000000E+00 0.  1.
         11    1    3    3    0    0  0.12095183675E+00  0.75900518328E+01 -0.84249728863E+00  0.76376251620E+01  0.51100000000E-03 0. -1.
        -11    1    3    3    0    0 -0.23048286725E+02 -0.28956195396E+02  0.95675343623E+01  0.38225939973E+02  0.51100000000E-03 0.  1.
         12    1    3    3    0    0  0.93066762465E+01 -0.84397095428E+00  0.96572866411E+01  0.13438366530E+02  0.00000000000E+00 0. -1.
</event>
<event>
 7    1  0.6198176E-013  0.5930187E+02  0.7816164E-02  0.1266605E+00
        -11   -1    0    0    0    0  0.00000000000E+00  0.00000000000E+00  0.45593999997E+02  0.45594000000E+02  0.51100000000E-03 0. -1.
         11   -1    0    0    0    0 -0.00000000000E+00 -0.00000000000E+00 -0.45593999997E+02  0.45594000000E+02  0.51100000000E-03 0.  1.
    9900012    2    1    2    0    0 -0.25365126542E+02  0.12996263854E+02  0.14297997067E+02  0.59301870747E+02  0.49999866353E+02 0.  0.
        -12    1    1    2    0    0  0.25365126542E+02 -0.12996263854E+02 -0.14297997067E+02  0.31886129253E+02  0.00000000000E+00 0.  1.
         11    1    3    3    0    0 -0.26681808685E+00  0.20579170952E+01  0.41955224130E+01  0.46806648290E+01  0.51100000000E-03 0. -1.
        -11    1    3    3    0    0  0.21541574190E+01 -0.15284698166E+02 -0.14927501777E+00  0.15436472249E+02  0.51100000000E-03 0.  1.
         12    1    3    3    0    0 -0.27252465874E+02  0.26223044925E+02  0.10251749672E+02  0.39184733668E+02  0.00000000000E+00 0. -1.
</event>
<event>
 7    1  0.6198176E-013  0.5930193E+02  0.7816164E-02  0.1266605E+00
        -11   -1    0    0    0    0  0.00000000000E+00  0.00000000000E+00  0.45593999997E+02  0.45594000000E+02  0.51100000000E-03 0. -1.
         11   -1    0    0    0    0 -0.00000000000E+00 -0.00000000000E+00 -0.45593999997E+02  0.45594000000E+02  0.51100000000E-03 0.  1.
    9900012    2    1    2    0    0 -0.12675604104E+02  0.13526300617E+02 -0.25943971195E+02  0.59301931112E+02  0.49999976444E+02 0.  0.
        -12    1    1    2    0    0  0.12675604104E+02 -0.13526300617E+02  0.25943971195E+02  0.31886068888E+02  0.00000000000E+00 0.  1.
         11    1    3    3    0    0 -0.14955666691E+02  0.14969682302E+02 -0.11398800335E+02  0.24035307440E+02  0.51100000000E-03 0. -1.
        -11    1    3    3    0    0 -0.14319513024E+02 -0.42224392408E+01 -0.95028264706E+01  0.17696925088E+02  0.51100000000E-03 0.  1.
         12    1    3    3    0    0  0.16599575611E+02  0.27790575559E+01 -0.50423443894E+01  0.17569698584E+02  0.00000000000E+00 0. -1.
</event>
<event>
 7    1  0.6198176E-013  0.5930215E+02  0.7816164E-02  0.1266604E+00
        -11   -1    0    0    0    0  0.00000000000E+00  0.00000000000E+00  0.45593999997E+02  0.45594000000E+02  0.51100000000E-03 0.  1.
         11   -1    0    0    0    0 -0.00000000000E+00 -0.00000000000E+00 -0.45593999997E+02  0.45594000000E+02  0.51100000000E-03 0. -1.
    9900012    2    1    2    0    0  0.17222274847E+02  0.19756878054E+02 -0.18159468901E+02  0.59302152166E+02  0.50000379592E+02 0.  0.
        -12    1    1    2    0    0 -0.17222274847E+02 -0.19756878054E+02  0.18159468901E+02  0.31885847834E+02  0.00000000000E+00 0.  1.
         11    1    3    3    0    0 -0.73624325228E+01  0.13081013987E+01 -0.94910929270E+01  0.12082937852E+02  0.51100000000E-03 0. -1.
        -11    1    3    3    0    0 -0.76402171813E+00  0.69082499979E+01  0.11077719434E+02  0.13077595931E+02  0.51100000000E-03 0.  1.
         12    1    3    3    0    0  0.25348729088E+02  0.11540526658E+02 -0.19746095408E+02  0.34141618382E+02  0.00000000000E+00 0. -1.
</event>
<event>
 7    1  0.6198176E-013  0.5930200E+02  0.7816164E-02  0.1266605E+00
        -11   -1    0    0    0    0  0.00000000000E+00  0.00000000000E+00  0.45593999997E+02  0.45594000000E+02  0.51100000000E-03 0.  1.
         11   -1    0    0    0    0 -0.00000000000E+00 -0.00000000000E+00 -0.45593999997E+02  0.45594000000E+02  0.51100000000E-03 0. -1.
    9900012    2    1    2    0    0 -0.31012110408E+02  0.49954231494E+00 -0.73970606936E+01  0.59301999289E+02  0.50000100782E+02 0.  0.
        -12    1    1    2    0    0  0.31012110408E+02 -0.49954231494E+00  0.73970606936E+01  0.31886000711E+02  0.00000000000E+00 0.  1.
         11    1    3    3    0    0 -0.70529013772E+01  0.32052189783E+01 -0.25128203712E+02  0.26295312674E+02  0.51100000000E-03 0. -1.
        -11    1    3    3    0    0 -0.77708088997E+01 -0.38940140958E-01 -0.13009862463E+01  0.78790578602E+01  0.51100000000E-03 0.  1.
        -12    1    3    3    0    0 -0.16188400131E+02 -0.26667365224E+01  0.19032129265E+02  0.25127628755E+02  0.00000000000E+00 0.  1.
</event>
<event>
 7    1  0.6198176E-013  0.5930198E+02  0.7816164E-02  0.1266605E+00
        -11   -1    0    0    0    0  0.00000000000E+00  0.00000000000E+00  0.45593999997E+02  0.45594000000E+02  0.51100000000E-03 0.  1.
         11   -1    0    0    0    0 -0.00000000000E+00 -0.00000000000E+00 -0.45593999997E+02  0.45594000000E+02  0.51100000000E-03 0. -1.
    9900012    2    1    2    0    0 -0.25784229584E+01  0.11837023552E+02 -0.29494992298E+02  0.59301984849E+02  0.50000074449E+02 0.  0.
        -12    1    1    2    0    0  0.25784229584E+01 -0.11837023552E+02  0.29494992298E+02  0.31886015151E+02  0.00000000000E+00 0.  1.
         11    1    3    3    0    0  0.23145089690E+01 -0.39710478142E+01  0.11462145897E+01  0.47370856713E+01  0.51100000000E-03 0.  1.
        -11    1    3    3    0    0 -0.14197863541E+02  0.98393398352E+01 -0.37685952767E+02  0.41456277857E+02  0.51100000000E-03 0. -1.
         12    1    3    3    0    0  0.93049316139E+01  0.59687315308E+01  0.70447458795E+01  0.13108621321E+02  0.00000000000E+00 0. -1.
</event>
<event>
 7    1  0.6198176E-013  0.5930209E+02  0.7816164E-02  0.1266604E+00
        -11   -1    0    0    0    0  0.00000000000E+00  0.00000000000E+00  0.45593999997E+02  0.45594000000E+02  0.51100000000E-03 0.  1.
         11   -1    0    0    0    0 -0.00000000000E+00 -0.00000000000E+00 -0.45593999997E+02  0.45594000000E+02  0.51100000000E-03 0. -1.
    9900012    2    1    2    0    0 -0.18510529807E+02 -0.61078772264E+01 -0.25234207613E+02  0.59302092269E+02  0.50000270356E+02 0.  0.
        -12    1    1    2    0    0  0.18510529807E+02  0.61078772264E+01  0.25234207613E+02  0.31885907731E+02  0.00000000000E+00 0.  1.
         11    1    3    3    0    0  0.49733571592E+01  0.73208732383E+01 -0.11032221284E+02  0.14143527605E+02  0.51100000000E-03 0. -1.
        -11    1    3    3    0    0 -0.31975426040E+02 -0.11593385642E+02 -0.96715241105E+01  0.35360611419E+02  0.51100000000E-03 0.  1.
         12    1    3    3    0    0  0.84915390735E+01 -0.18353648227E+01 -0.45304622187E+01  0.97979532446E+01  0.00000000000E+00 0. -1.
</event>
<event>
 7    1  0.1161592E-012  0.5930195E+02  0.7816164E-02  0.1266605E+00
        -11   -1    0    0    0    0  0.00000000000E+00  0.00000000000E+00  0.45593999997E+02  0.45594000000E+02  0.51100000000E-03 0. -1.
         11   -1    0    0    0    0 -0.00000000000E+00 -0.00000000000E+00 -0.45593999997E+02  0.45594000000E+02  0.51100000000E-03 0.  1.
    9900012    2    1    2    0    0  0.11810932353E+02 -0.22392184781E+02  0.19385880183E+02  0.59301946422E+02  0.50000004367E+02 0.  0.
        -12    1    1    2    0    0 -0.11810932353E+02  0.22392184781E+02 -0.19385880183E+02  0.31886053578E+02  0.00000000000E+00 0.  1.
         11    1    3    3    0    0 -0.27785146784E+01 -0.52459144671E-01  0.25704617603E+02  0.25854405082E+02  0.51100000000E-03 0. -1.
        -11    1    3    3    0    0  0.10877656751E+02 -0.13327392984E+02  0.55624953215E+01  0.18079938457E+02  0.51100000000E-03 0.  1.
        -12    1    3    3    0    0  0.37117902806E+01 -0.90123326524E+01 -0.11881232742E+02  0.15367602884E+02  0.00000000000E+00 0.  1.
</event>
<event>
 7    1  0.6198176E-013  0.5930187E+02  0.7816164E-02  0.1266605E+00
        -11   -1    0    0    0    0  0.00000000000E+00  0.00000000000E+00  0.45593999997E+02  0.45594000000E+02  0.51100000000E-03 0.  1.
         11   -1    0    0    0    0 -0.00000000000E+00 -0.00000000000E+00 -0.45593999997E+02  0.45594000000E+02  0.51100000000E-03 0. -1.
    9900012    2    1    2    0    0  0.21106779881E+02 -0.19379040383E+02 -0.13988637504E+02  0.59301869123E+02  0.49999863391E+02 0.  0.
        -12    1    1    2    0    0 -0.21106779881E+02  0.19379040383E+02  0.13988637504E+02  0.31886130877E+02  0.00000000000E+00 0.  1.
         11    1    3    3    0    0 -0.28976612378E+01 -0.12203265309E+02  0.45131279727E+01  0.13329833052E+02  0.51100000000E-03 0. -1.
        -11    1    3    3    0    0  0.16634884073E+02 -0.87166655051E+01  0.64905895190E+01  0.19870263667E+02  0.51100000000E-03 0.  1.
         12    1    3    3    0    0  0.73695570464E+01  0.15408904310E+01 -0.24992354995E+02  0.26101772403E+02  0.00000000000E+00 0. -1.
</event>
<event>
 7    1  0.6736422E-013  0.5930194E+02  0.7816164E-02  0.1266605E+00
        -11   -1    0    0    0    0  0.00000000000E+00  0.00000000000E+00  0.45593999997E+02  0.45594000000E+02  0.51100000000E-03 0.  1.
         11   -1    0    0    0    0 -0.00000000000E+00 -0.00000000000E+00 -0.45593999997E+02  0.45594000000E+02  0.51100000000E-03 0. -1.
    9900012    2    1    2    0    0 -0.18879204168E+02  0.10732921674E+02 -0.23347391321E+02  0.59301942872E+02  0.49999997892E+02 0.  0.
        -12    1    1    2    0    0  0.18879204168E+02 -0.10732921674E+02  0.23347391321E+02  0.31886057128E+02  0.00000000000E+00 0.  1.
         11    1    3    3    0    0 -0.22616811847E+02  0.48684398356E+01 -0.20379927677E+02  0.30831207192E+02  0.51100000000E-03 0. -1.
        -11    1    3    3    0    0  0.11395842771E+01 -0.95884295991E+01 -0.74234835443E+01  0.12179685657E+02  0.51100000000E-03 0.  1.
        -12    1    3    3    0    0  0.25980234021E+01  0.15452911438E+02  0.44560198996E+01  0.16291050023E+02  0.00000000000E+00 0.  1.
</event>
<event>
 7    1  0.6198176E-013  0.5930199E+02  0.7816164E-02  0.1266605E+00
        -11   -1    0    0    0    0  0.00000000000E+00  0.00000000000E+00  0.45593999997E+02  0.45594000000E+02  0.51100000000E-03 0. -1.
         11   -1    0    0    0    0 -0.00000000000E+00 -0.00000000000E+00 -0.45593999997E+02  0.45594000000E+02  0.51100000000E-03 0.  1.
    9900012    2    1    2    0    0 -0.13594533190E+02 -0.28838324798E+02 -0.50701517621E+00  0.59301994069E+02  0.50000091264E+02 0.  0.
        -12    1    1    2    0    0  0.13594533190E+02  0.28838324798E+02  0.50701517621E+00  0.31886005931E+02  0.00000000000E+00 0.  1.
         11    1    3    3    0    0 -0.63028544320E+01 -0.33219087939E+02  0.10817138055E+02  0.35499919063E+02  0.51100000000E-03 0. -1.
        -11    1    3    3    0    0 -0.35150321533E+01 -0.75942900204E+01 -0.49059485094E+01  0.97003620031E+01  0.51100000000E-03 0.  1.
        -12    1    3    3    0    0 -0.37766466042E+01  0.11975053161E+02 -0.64182047216E+01  0.14101713004E+02  0.00000000000E+00 0.  1.
</event>
<event>
 7    1  0.6198176E-013  0.5930202E+02  0.7816164E-02  0.1266605E+00
        -11   -1    0    0    0    0  0.00000000000E+00  0.00000000000E+00  0.45593999997E+02  0.45594000000E+02  0.51100000000E-03 0.  1.
         11   -1    0    0    0    0 -0.00000000000E+00 -0.00000000000E+00 -0.45593999997E+02  0.45594000000E+02  0.51100000000E-03 0. -1.
    9900012    2    1    2    0    0 -0.19415724855E+02  0.24988980763E+02 -0.39110694676E+01  0.59302015687E+02  0.50000130689E+02 0.  0.
        -12    1    1    2    0    0  0.19415724855E+02 -0.24988980763E+02  0.39110694676E+01  0.31885984313E+02  0.00000000000E+00 0.  1.
         11    1    3    3    0    0  0.57118312926E+01  0.27329119395E+01 -0.14554459718E+02  0.15872180768E+02  0.51100000000E-03 0. -1.
        -11    1    3    3    0    0 -0.80687542134E+01  0.71521617749E+00  0.13562864020E+02  0.15797708993E+02  0.51100000000E-03 0.  1.
         12    1    3    3    0    0 -0.17058801934E+02  0.21540852646E+02 -0.29194737697E+01  0.27632125927E+02  0.00000000000E+00 0. -1.
</event>
<event>
 7    1  0.6198176E-013  0.5930197E+02  0.7816164E-02  0.1266605E+00
        -11   -1    0    0    0    0  0.00000000000E+00  0.00000000000E+00  0.45593999997E+02  0.45594000000E+02  0.51100000000E-03 0. -1.
         11   -1    0    0    0    0 -0.00000000000E+00 -0.00000000000E+00 -0.45593999997E+02  0.45594000000E+02  0.51100000000E-03 0.  1.
    9900012    2    1    2    0    0  0.12731240183E+02  0.14820881780E+02  0.25198728909E+02  0.59301969329E+02  0.50000046144E+02 0.  0.
        -12    1    1    2    0    0 -0.12731240183E+02 -0.14820881780E+02 -0.25198728909E+02  0.31886030671E+02  0.00000000000E+00 0.  1.
         11    1    3    3    0    0 -0.29722188956E+01 -0.10229403949E+00  0.14891522600E+01  0.33259771418E+01  0.51100000000E-03 0. -1.
        -11    1    3    3    0    0 -0.47360606360E+01  0.17413323510E+02  0.29504277294E+02  0.34585495296E+02  0.51100000000E-03 0.  1.
        -12    1    3    3    0    0  0.20439519714E+02 -0.24901476907E+01 -0.57947006447E+01  0.21390496891E+02  0.00000000000E+00 0.  1.
</event>
<event>
 7    1  0.6198176E-013  0.5930193E+02  0.7816164E-02  0.1266605E+00
        -11   -1    0    0    0    0  0.00000000000E+00  0.00000000000E+00  0.45593999997E+02  0.45594000000E+02  0.51100000000E-03 0. -1.
         11   -1    0    0    0    0 -0.00000000000E+00 -0.00000000000E+00 -0.45593999997E+02  0.45594000000E+02  0.51100000000E-03 0.  1.
    9900012    2    1    2    0    0 -0.17572122632E+02  0.26603787690E+02  0.42477183685E+00  0.59301930246E+02  0.49999974865E+02 0.  0.
        -12    1    1    2    0    0  0.17572122632E+02 -0.26603787690E+02 -0.42477183685E+00  0.31886069754E+02  0.00000000000E+00 0.  1.
         11    1    3    3    0    0 -0.22207348927E+01  0.17855628470E+02  0.22054123996E+01  0.18127850828E+02  0.51100000000E-03 0. -1.
        -11    1    3    3    0    0  0.12366463740E+02  0.14784280792E+01  0.12887907483E+00  0.12455191091E+02  0.51100000000E-03 0.  1.
         12    1    3    3    0    0 -0.27717851480E+02  0.72697311406E+01 -0.19095196376E+01  0.28718888327E+02  0.00000000000E+00 0. -1.
</event>
<event>
 7    1  0.6198176E-013  0.5930171E+02  0.7816164E-02  0.1266606E+00
        -11   -1    0    0    0    0  0.00000000000E+00  0.00000000000E+00  0.45593999997E+02  0.45594000000E+02  0.51100000000E-03 0.  1.
         11   -1    0    0    0    0 -0.00000000000E+00 -0.00000000000E+00 -0.45593999997E+02  0.45594000000E+02  0.51100000000E-03 0. -1.
    9900012    2    1    2    0    0 -0.30601258764E+02 -0.88933607038E+01  0.10983969415E+01  0.59301711749E+02  0.49999576378E+02 0.  0.
        -12    1    1    2    0    0  0.30601258764E+02  0.88933607038E+01 -0.10983969415E+01  0.31886288251E+02  0.00000000000E+00 0.  1.
         11    1    3    3    0    0 -0.29108876882E+02  0.42094066932E+01  0.10119004527E+02  0.31103698670E+02  0.51100000000E-03 0. -1.
        -11    1    3    3    0    0 -0.68566115050E+01  0.45714277055E+01 -0.30381855558E+01  0.87830316138E+01  0.51100000000E-03 0.  1.
         12    1    3    3    0    0  0.53642296227E+01 -0.17674195103E+02 -0.59824220298E+01  0.19414981466E+02  0.00000000000E+00 0. -1.
</event>
<event>
 7    1  0.6198176E-013  0.5930194E+02  0.7816164E-02  0.1266605E+00
        -11   -1    0    0    0    0  0.00000000000E+00  0.00000000000E+00  0.45593999997E+02  0.45594000000E+02  0.51100000000E-03 0. -1.
         11   -1    0    0    0    0 -0.00000000000E+00 -0.00000000000E+00 -0.45593999997E+02  0.45594000000E+02  0.51100000000E-03 0.  1.
    9900012    2    1    2    0    0  0.19829212238E+02  0.24689974545E+02 -0.37320944928E+01  0.59301936739E+02  0.49999986707E+02 0.  0.
        -12    1    1    2    0    0 -0.19829212238E+02 -0.24689974545E+02  0.37320944928E+01  0.31886063261E+02  0.00000000000E+00 0.  1.
         11    1    3    3    0    0  0.18060198693E+02  0.12520491434E+01  0.73994551082E+01  0.19557360253E+02  0.51100000000E-03 0. -1.
        -11    1    3    3    0    0  0.10066100319E+02 -0.75527289290E+00  0.29909562040E+01  0.10528182751E+02  0.51100000000E-03 0.  1.
        -12    1    3    3    0    0 -0.82970867745E+01  0.24193198294E+02 -0.14122505805E+02  0.29216393735E+02  0.00000000000E+00 0.  1.
</event>
<event>
 7    1  0.6198176E-013  0.5930175E+02  0.7816164E-02  0.1266605E+00
        -11   -1    0    0    0    0  0.00000000000E+00  0.00000000000E+00  0.45593999997E+02  0.45594000000E+02  0.51100000000E-03 0.  1.
         11   -1    0    0    0    0 -0.00000000000E+00 -0.00000000000E+00 -0.45593999997E+02  0.45594000000E+02  0.51100000000E-03 0. -1.
    9900012    2    1    2    0    0  0.22982301811E+02 -0.46200028003E+01 -0.21614859364E+02  0.59301752687E+02  0.49999651039E+02 0.  0.
        -12    1    1    2    0    0 -0.22982301811E+02  0.46200028003E+01  0.21614859364E+02  0.31886247313E+02  0.00000000000E+00 0.  1.
         11    1    3    3    0    0  0.11841554148E+02 -0.90211525221E+01 -0.19476036951E+02  0.24513661763E+02  0.51100000000E-03 0. -1.
        -11    1    3    3    0    0  0.97929397451E+01 -0.10266301491E+02 -0.10682867021E+02  0.17760131283E+02  0.51100000000E-03 0.  1.
        -12    1    3    3    0    0  0.13478079180E+01  0.14667451213E+02  0.85440446076E+01  0.17027959640E+02  0.00000000000E+00 0.  1.
</event>
<event>
 7    1  0.6198176E-013  0.5930191E+02  0.7816164E-02  0.1266605E+00
        -11   -1    0    0    0    0  0.00000000000E+00  0.00000000000E+00  0.45593999997E+02  0.45594000000E+02  0.51100000000E-03 0.  1.
         11   -1    0    0    0    0 -0.00000000000E+00 -0.00000000000E+00 -0.45593999997E+02  0.45594000000E+02  0.51100000000E-03 0. -1.
    9900012    2    1    2    0    0 -0.37165304304E+01  0.31656524135E+02  0.87994704163E+00  0.59301914860E+02  0.49999946806E+02 0.  0.
        -12    1    1    2    0    0  0.37165304304E+01 -0.31656524135E+02 -0.87994704163E+00  0.31886085140E+02  0.00000000000E+00 0.  1.
         11    1    3    3    0    0 -0.45599430412E+01  0.71877141155E+01 -0.94588992622E+01  0.12725057574E+02  0.51100000000E-03 0. -1.
        -11    1    3    3    0    0  0.13431367051E+02  0.14174629589E+01 -0.68939003739E+01  0.15163663302E+02  0.51100000000E-03 0.  1.
         12    1    3    3    0    0 -0.12587954440E+02  0.23051347060E+02  0.17232746678E+02  0.31413193985E+02  0.00000000000E+00 0. -1.
</event>
<event>
 7    1  0.6198176E-013  0.5930194E+02  0.7816164E-02  0.1266605E+00
        -11   -1    0    0    0    0  0.00000000000E+00  0.00000000000E+00  0.45593999997E+02  0.45594000000E+02  0.51100000000E-03 0.  1.
         11   -1    0    0    0    0 -0.00000000000E+00 -0.00000000000E+00 -0.45593999997E+02  0.45594000000E+02  0.51100000000E-03 0. -1.
    9900012    2    1    2    0    0  0.53049103722E+01  0.19153929185E+02 -0.24934023817E+02  0.59301943157E+02  0.49999998412E+02 0.  0.
        -12    1    1    2    0    0 -0.53049103722E+01 -0.19153929185E+02  0.24934023817E+02  0.31886056843E+02  0.00000000000E+00 0.  1.
         11    1    3    3    0    0  0.90394740283E+01  0.23116757206E+02 -0.29733726379E+02  0.38732299688E+02  0.51100000000E-03 0. -1.
        -11    1    3    3    0    0 -0.63928819604E+01  0.53801801893E+01 -0.21476014234E+01  0.86271357219E+01  0.51100000000E-03 0.  1.
        -12    1    3    3    0    0  0.26583183043E+01 -0.93430082110E+01  0.69473039852E+01  0.11942507748E+02  0.00000000000E+00 0.  1.
</event>
<event>
 7    1  0.6198176E-013  0.5930196E+02  0.7816164E-02  0.1266605E+00
        -11   -1    0    0    0    0  0.00000000000E+00  0.00000000000E+00  0.45593999997E+02  0.45594000000E+02  0.51100000000E-03 0. -1.
         11   -1    0    0    0    0 -0.00000000000E+00 -0.00000000000E+00 -0.45593999997E+02  0.45594000000E+02  0.51100000000E-03 0.  1.
    9900012    2    1    2    0    0  0.19811375632E+01  0.21236365884E+02  0.23702564818E+02  0.59301957271E+02  0.50000024152E+02 0.  0.
        -12    1    1    2    0    0 -0.19811375632E+01 -0.21236365884E+02 -0.23702564818E+02  0.31886042729E+02  0.00000000000E+00 0.  1.
         11    1    3    3    0    0  0.81781054861E+01 -0.85156521572E+00  0.80748899991E+01  0.11524340390E+02  0.51100000000E-03 0.  1.
        -11    1    3    3    0    0  0.28053653991E+00  0.35748005363E+01  0.25547659269E+02  0.25798077332E+02  0.51100000000E-03 0. -1.
        -12    1    3    3    0    0 -0.64775044628E+01  0.18513130563E+02 -0.99199844501E+01  0.21979539549E+02  0.00000000000E+00 0.  1.
</event>
<event>
 7    1  0.6198176E-013  0.5930197E+02  0.7816164E-02  0.1266605E+00
        -11   -1    0    0    0    0  0.00000000000E+00  0.00000000000E+00  0.45593999997E+02  0.45594000000E+02  0.51100000000E-03 0. -1.
         11   -1    0    0    0    0 -0.00000000000E+00 -0.00000000000E+00 -0.45593999997E+02  0.45594000000E+02  0.51100000000E-03 0.  1.
    9900012    2    1    2    0    0 -0.40805635861E+01 -0.18712484065E+02  0.25493351437E+02  0.59301968159E+02  0.50000044010E+02 0.  0.
        -12    1    1    2    0    0  0.40805635861E+01  0.18712484065E+02 -0.25493351437E+02  0.31886031841E+02  0.00000000000E+00 0.  1.
         11    1    3    3    0    0  0.75158150448E+00 -0.57867349012E+01  0.16304235474E+02  0.17317022557E+02  0.51100000000E-03 0. -1.
        -11    1    3    3    0    0 -0.19707961419E+02 -0.12731845912E+02 -0.17364867362E+01  0.23526985146E+02  0.51100000000E-03 0.  1.
         12    1    3    3    0    0  0.14875816328E+02 -0.19390325225E+00  0.10925602699E+02  0.18457960457E+02  0.00000000000E+00 0. -1.
</event>
<event>
 7    1  0.6198176E-013  0.5930195E+02  0.7816164E-02  0.1266605E+00
        -11   -1    0    0    0    0  0.00000000000E+00  0.00000000000E+00  0.45593999997E+02  0.45594000000E+02  0.51100000000E-03 0.  1.
         11   -1    0    0    0    0 -0.00000000000E+00 -0.00000000000E+00 -0.45593999997E+02  0.45594000000E+02  0.51100000000E-03 0. -1.
    9900012    2    1    2    0    0 -0.35942847307E+01 -0.18305388861E+02 -0.25859508586E+02  0.59301947745E+02  0.50000006780E+02 0.  0.
        -12    1    1    2    0    0  0.35942847307E+01  0.18305388861E+02  0.25859508586E+02  0.31886052255E+02  0.00000000000E+00 0.  1.
         11    1    3    3    0    0 -0.68107289959E+00  0.10212139818E+02 -0.11752712390E+02  0.15584540697E+02  0.51100000000E-03 0. -1.
        -11    1    3    3    0    0 -0.15774628138E+02 -0.13337284780E+02 -0.28369152361E+01  0.20851142571E+02  0.51100000000E-03 0.  1.
         12    1    3    3    0    0  0.12861416307E+02 -0.15180243899E+02 -0.11269880960E+02  0.22866264477E+02  0.00000000000E+00 0. -1.
</event>
<event>
 7    1  0.6198176E-013  0.5930193E+02  0.7816164E-02  0.1266605E+00
        -11   -1    0    0    0    0  0.00000000000E+00  0.00000000000E+00  0.45593999997E+02  0.45594000000E+02  0.51100000000E-03 0. -1.
         11   -1    0    0    0    0 -0.00000000000E+00 -0.00000000000E+00 -0.45593999997E+02  0.45594000000E+02  0.51100000000E-03 0.  1.
    9900012    2    1    2    0    0  0.18518114674E+02 -0.20659840972E+02  0.15715338960E+02  0.59301929707E+02  0.49999973883E+02 0.  0.
        -12    1    1    2    0    0 -0.18518114674E+02  0.20659840972E+02 -0.15715338960E+02  0.31886070293E+02  0.00000000000E+00 0.  1.
         11    1    3    3    0    0 -0.51762926466E+01  0.91504998308E+00  0.13726752080E+02  0.14698811005E+02  0.51100000000E-03 0. -1.
        -11    1    3    3    0    0  0.63541548981E+01  0.30049072116E+01 -0.99985320542E+01  0.12221922734E+02  0.51100000000E-03 0.  1.
        -12    1    3    3    0    0  0.17340252423E+02 -0.24579798167E+02  0.11987118935E+02  0.32381195969E+02  0.00000000000E+00 0.  1.
</event>
<event>
 7    1  0.6198176E-013  0.5930194E+02  0.7816164E-02  0.1266605E+00
        -11   -1    0    0    0    0  0.00000000000E+00  0.00000000000E+00  0.45593999997E+02  0.45594000000E+02  0.51100000000E-03 0.  1.
         11   -1    0    0    0    0 -0.00000000000E+00 -0.00000000000E+00 -0.45593999997E+02  0.45594000000E+02  0.51100000000E-03 0. -1.
    9900012    2    1    2    0    0  0.16591359737E+02  0.25597150849E+02 -0.92861841543E+01  0.59301944024E+02  0.49999999994E+02 0.  0.
        -12    1    1    2    0    0 -0.16591359737E+02 -0.25597150849E+02  0.92861841543E+01  0.31886055976E+02  0.00000000000E+00 0.  1.
         11    1    3    3    0    0  0.17631230995E+02 -0.68356241641E+01 -0.10831223646E+02  0.21792234168E+02  0.51100000000E-03 0. -1.
        -11    1    3    3    0    0 -0.81235781571E+01  0.82403354889E+01 -0.28599895005E+01  0.11919529825E+02  0.51100000000E-03 0.  1.
        -12    1    3    3    0    0  0.70837068994E+01  0.24192439525E+02  0.44050289923E+01  0.25590180031E+02  0.00000000000E+00 0.  1.
</event>
<event>
 7    1  0.6198176E-013  0.5930191E+02  0.7816164E-02  0.1266605E+00
        -11   -1    0    0    0    0  0.00000000000E+00  0.00000000000E+00  0.45593999997E+02  0.45594000000E+02  0.51100000000E-03 0.  1.
         11   -1    0    0    0    0 -0.00000000000E+00 -0.00000000000E+00 -0.45593999997E+02  0.45594000000E+02  0.51100000000E-03 0. -1.
    9900012    2    1    2    0    0  0.15424945000E+02  0.16950848476E+02 -0.22168948128E+02  0.59301914423E+02  0.49999946008E+02 0.  0.
        -12    1    1    2    0    0 -0.15424945000E+02 -0.16950848476E+02  0.22168948128E+02  0.31886085577E+02  0.00000000000E+00 0.  1.
         11    1    3    3    0    0  0.14003284034E+01 -0.24342243425E+01  0.33150449263E+01  0.43446393304E+01  0.51100000000E-03 0. -1.
        -11    1    3    3    0    0  0.11133150171E+02  0.31398029943E+02 -0.92838016356E+01  0.34582832303E+02  0.51100000000E-03 0.  1.
         12    1    3    3    0    0  0.28914664259E+01 -0.12012957125E+02 -0.16200191419E+02  0.20374442789E+02  0.00000000000E+00 0. -1.
</event>
<event>
 7    1  0.6198176E-013  0.5930213E+02  0.7816164E-02  0.1266604E+00
        -11   -1    0    0    0    0  0.00000000000E+00  0.00000000000E+00  0.45593999997E+02  0.45594000000E+02  0.51100000000E-03 0. -1.
         11   -1    0    0    0    0 -0.00000000000E+00 -0.00000000000E+00 -0.45593999997E+02  0.45594000000E+02  0.51100000000E-03 0.  1.
    9900012    2    1    2    0    0 -0.61147017105E+01 -0.29794947307E+02  0.95697504251E+01  0.59302131889E+02  0.50000342612E+02 0.  0.
        -12    1    1    2    0    0  0.61147017105E+01  0.29794947307E+02 -0.95697504251E+01  0.31885868111E+02  0.00000000000E+00 0.  1.
         11    1    3    3    0    0 -0.10007507994E+02 -0.16103926905E+02  0.11390614062E+02  0.22118606804E+02  0.51100000000E-03 0. -1.
        -11    1    3    3    0    0 -0.12400536109E+02  0.19497957927E+00 -0.81733291529E+01  0.14853101445E+02  0.51100000000E-03 0.  1.
         12    1    3    3    0    0  0.16293342392E+02 -0.13885999981E+02  0.63524655164E+01  0.22330423640E+02  0.00000000000E+00 0. -1.
</event>
<event>
 7    1  0.6198176E-013  0.5930195E+02  0.7816164E-02  0.1266605E+00
        -11   -1    0    0    0    0  0.00000000000E+00  0.00000000000E+00  0.45593999997E+02  0.45594000000E+02  0.51100000000E-03 0.  1.
         11   -1    0    0    0    0 -0.00000000000E+00 -0.00000000000E+00 -0.45593999997E+02  0.45594000000E+02  0.51100000000E-03 0. -1.
    9900012    2    1    2    0    0 -0.14036584253E+01 -0.38946890074E+01 -0.31616153277E+02  0.59301952778E+02  0.50000015958E+02 0.  0.
        -12    1    1    2    0    0  0.14036584253E+01  0.38946890074E+01  0.31616153277E+02  0.31886047222E+02  0.00000000000E+00 0.  1.
         11    1    3    3    0    0 -0.12031674818E+02 -0.15997880629E+02 -0.12539218868E+02  0.23620444399E+02  0.51100000000E-03 0. -1.
        -11    1    3    3    0    0  0.43450812819E+01  0.90974338656E+01  0.45415237388E+01  0.11057507514E+02  0.51100000000E-03 0.  1.
         12    1    3    3    0    0  0.62829351107E+01  0.30057577563E+01 -0.23618458148E+02  0.24624000865E+02  0.00000000000E+00 0. -1.
</event>
<event>
 7    1  0.6198176E-013  0.5930194E+02  0.7816164E-02  0.1266605E+00
        -11   -1    0    0    0    0  0.00000000000E+00  0.00000000000E+00  0.45593999997E+02  0.45594000000E+02  0.51100000000E-03 0.  1.
         11   -1    0    0    0    0 -0.00000000000E+00 -0.00000000000E+00 -0.45593999997E+02  0.45594000000E+02  0.51100000000E-03 0. -1.
    9900012    2    1    2    0    0 -0.10179560946E+02  0.23700198256E+02 -0.18745610091E+02  0.59301941038E+02  0.49999994548E+02 0.  0.
        -12    1    1    2    0    0  0.10179560946E+02 -0.23700198256E+02  0.18745610091E+02  0.31886058962E+02  0.00000000000E+00 0.  1.
         11    1    3    3    0    0 -0.17995349460E+02  0.21458388713E+02 -0.16739682202E+02  0.32626860236E+02  0.51100000000E-03 0. -1.
        -11    1    3    3    0    0 -0.87194863395E+01 -0.30480101536E+01 -0.54581157450E+00  0.92529843001E+01  0.51100000000E-03 0.  1.
         12    1    3    3    0    0  0.16535274853E+02  0.52898196963E+01 -0.14601163143E+01  0.17422096502E+02  0.00000000000E+00 0. -1.
</event>
<event>
 7    1  0.6198176E-013  0.5930197E+02  0.7816164E-02  0.1266605E+00
        -11   -1    0    0    0    0  0.00000000000E+00  0.00000000000E+00  0.45593999997E+02  0.45594000000E+02  0.51100000000E-03 0.  1.
         11   -1    0    0    0    0 -0.00000000000E+00 -0.00000000000E+00 -0.45593999997E+02  0.45594000000E+02  0.51100000000E-03 0. -1.
    9900012    2    1    2    0    0 -0.16807542443E+02  0.81192468243E+01 -0.25851565080E+02  0.59301967493E+02  0.50000042796E+02 0.  0.
        -12    1    1    2    0    0  0.16807542443E+02 -0.81192468243E+01  0.25851565080E+02  0.31886032507E+02  0.00000000000E+00 0.  1.
         11    1    3    3    0    0 -0.22608822338E+02  0.22686456817E+01 -0.12852284754E+02  0.26105302611E+02  0.51100000000E-03 0. -1.
        -11    1    3    3    0    0 -0.49203408596E+01 -0.45563837674E+01 -0.16534206654E+02  0.17842375883E+02  0.51100000000E-03 0.  1.
        -12    1    3    3    0    0  0.10721620755E+02  0.10406984910E+02  0.35349263281E+01  0.15354289000E+02  0.00000000000E+00 0.  1.
</event>
<event>
 7    1  0.6198176E-013  0.5930196E+02  0.7816164E-02  0.1266605E+00
        -11   -1    0    0    0    0  0.00000000000E+00  0.00000000000E+00  0.45593999997E+02  0.45594000000E+02  0.51100000000E-03 0.  1.
         11   -1    0    0    0    0 -0.00000000000E+00 -0.00000000000E+00 -0.45593999997E+02  0.45594000000E+02  0.51100000000E-03 0. -1.
    9900012    2    1    2    0    0 -0.21053279130E+02  0.22798032418E+00 -0.23946337947E+02  0.59301958568E+02  0.50000026517E+02 0.  0.
        -12    1    1    2    0    0  0.21053279130E+02 -0.22798032418E+00  0.23946337947E+02  0.31886041432E+02  0.00000000000E+00 0.  1.
         11    1    3    3    0    0  0.52655005517E+01  0.13249465292E+02 -0.12794804342E+02  0.19156744113E+02  0.51100000000E-03 0. -1.
        -11    1    3    3    0    0 -0.44446696888E+01 -0.12027263224E+02 -0.12887775460E+02  0.18179793890E+02  0.51100000000E-03 0.  1.
        -12    1    3    3    0    0 -0.21874109993E+02 -0.99422174408E+00  0.17362418545E+01  0.21965420566E+02  0.00000000000E+00 0.  1.
</event>
<event>
 7    1  0.7212266E-013  0.5930195E+02  0.7816164E-02  0.1266605E+00
        -11   -1    0    0    0    0  0.00000000000E+00  0.00000000000E+00  0.45593999997E+02  0.45594000000E+02  0.51100000000E-03 0.  1.
         11   -1    0    0    0    0 -0.00000000000E+00 -0.00000000000E+00 -0.45593999997E+02  0.45594000000E+02  0.51100000000E-03 0. -1.
    9900012    2    1    2    0    0  0.27959464351E+02 -0.55282663926E+01 -0.14297783310E+02  0.59301953151E+02  0.50000016638E+02 0.  0.
        -12    1    1    2    0    0 -0.27959464351E+02  0.55282663926E+01  0.14297783310E+02  0.31886046849E+02  0.00000000000E+00 0.  1.
         11    1    3    3    0    0  0.18658714483E+02 -0.95606086965E+00 -0.99175241541E+01  0.21152280354E+02  0.51100000000E-03 0. -1.
        -11    1    3    3    0    0  0.20235271792E+02 -0.41456449053E+01  0.75210231281E+01  0.21982228853E+02  0.51100000000E-03 0.  1.
        -12    1    3    3    0    0 -0.10934521925E+02 -0.42656061760E+00 -0.11901282284E+02  0.16167443944E+02  0.00000000000E+00 0.  1.
</event>
<event>
 7    1  0.6198176E-013  0.5930193E+02  0.7816164E-02  0.1266605E+00
        -11   -1    0    0    0    0  0.00000000000E+00  0.00000000000E+00  0.45593999997E+02  0.45594000000E+02  0.51100000000E-03 0.  1.
         11   -1    0    0    0    0 -0.00000000000E+00 -0.00000000000E+00 -0.45593999997E+02  0.45594000000E+02  0.51100000000E-03 0. -1.
    9900012    2    1    2    0    0 -0.26775112600E+02  0.11727093854E+02 -0.12739306893E+02  0.59301932116E+02  0.49999978275E+02 0.  0.
        -12    1    1    2    0    0  0.26775112600E+02 -0.11727093854E+02  0.12739306893E+02  0.31886067884E+02  0.00000000000E+00 0.  1.
         11    1    3    3    0    0 -0.25322165894E+02 -0.12110459818E+02 -0.37758643751E+01  0.28321943341E+02  0.51100000000E-03 0. -1.
        -11    1    3    3    0    0  0.76574810346E+00  0.31586441511E+01  0.49757552528E+01  0.59431930499E+01  0.51100000000E-03 0.  1.
         12    1    3    3    0    0 -0.22186948094E+01  0.20678909521E+02 -0.13939197771E+02  0.25036795724E+02  0.00000000000E+00 0. -1.
</event>
<event>
 7    1  0.6198176E-013  0.5930194E+02  0.7816164E-02  0.1266605E+00
        -11   -1    0    0    0    0  0.00000000000E+00  0.00000000000E+00  0.45593999997E+02  0.45594000000E+02  0.51100000000E-03 0. -1.
         11   -1    0    0    0    0 -0.00000000000E+00 -0.00000000000E+00 -0.45593999997E+02  0.45594000000E+02  0.51100000000E-03 0.  1.
    9900012    2    1    2    0    0  0.26045996207E+02 -0.15739293049E+02  0.95184941803E+01  0.59301937284E+02  0.49999987700E+02 0.  0.
        -12    1    1    2    0    0 -0.26045996207E+02  0.15739293049E+02 -0.95184941803E+01  0.31886062716E+02  0.00000000000E+00 0.  1.
         11    1    3    3    0    0  0.21415135758E+01  0.55090200197E+01  0.97467904258E+01  0.11398916871E+02  0.51100000000E-03 0. -1.
        -11    1    3    3    0    0 -0.60329043770E+01  0.35943493662E+01 -0.51247479537E+01  0.86935794951E+01  0.51100000000E-03 0.  1.
        -12    1    3    3    0    0  0.29937387008E+02 -0.24842662435E+02  0.48964517082E+01  0.39209440917E+02  0.00000000000E+00 0.  1.
</event>
<event>
 7    1  0.6198176E-013  0.5930194E+02  0.7816164E-02  0.1266605E+00
        -11   -1    0    0    0    0  0.00000000000E+00  0.00000000000E+00  0.45593999997E+02  0.45594000000E+02  0.51100000000E-03 0. -1.
         11   -1    0    0    0    0 -0.00000000000E+00 -0.00000000000E+00 -0.45593999997E+02  0.45594000000E+02  0.51100000000E-03 0.  1.
    9900012    2    1    2    0    0 -0.10367297787E+02 -0.29677108402E+02  0.53393816886E+01  0.59301943120E+02  0.49999998345E+02 0.  0.
        -12    1    1    2    0    0  0.10367297787E+02  0.29677108402E+02 -0.53393816886E+01  0.31886056880E+02  0.00000000000E+00 0.  1.
         11    1    3    3    0    0  0.16608097942E+02 -0.13382881311E+02 -0.31574096744E+01  0.21561532078E+02  0.51100000000E-03 0.  1.
        -11    1    3    3    0    0  0.24831236377E+00 -0.31233034626E+01  0.67569144752E+01  0.74479914766E+01  0.51100000000E-03 0. -1.
        -12    1    3    3    0    0 -0.27223708093E+02 -0.13170923629E+02  0.17398768878E+01  0.30292419565E+02  0.00000000000E+00 0.  1.
</event>
<event>
 7    1  0.6198176E-013  0.5930192E+02  0.7816164E-02  0.1266605E+00
        -11   -1    0    0    0    0  0.00000000000E+00  0.00000000000E+00  0.45593999997E+02  0.45594000000E+02  0.51100000000E-03 0.  1.
         11   -1    0    0    0    0 -0.00000000000E+00 -0.00000000000E+00 -0.45593999997E+02  0.45594000000E+02  0.51100000000E-03 0. -1.
    9900012    2    1    2    0    0  0.25483246793E+02  0.42703169974E+01 -0.18683963662E+02  0.59301921964E+02  0.49999959762E+02 0.  0.
        -12    1    1    2    0    0 -0.25483246793E+02 -0.42703169974E+01  0.18683963662E+02  0.31886078036E+02  0.00000000000E+00 0.  1.
         11    1    3    3    0    0  0.11032280549E+02 -0.52826939117E+01 -0.14786286948E+02  0.19189902320E+02  0.51100000000E-03 0. -1.
        -11    1    3    3    0    0  0.18797888320E+01 -0.13352664047E+02 -0.36996508608E+01  0.13982655684E+02  0.51100000000E-03 0.  1.
         12    1    3    3    0    0  0.12571177412E+02  0.22905674957E+02 -0.19802585271E+00  0.26129363961E+02  0.00000000000E+00 0. -1.
</event>
<event>
 7    1  0.6198176E-013  0.5930193E+02  0.7816164E-02  0.1266605E+00
        -11   -1    0    0    0    0  0.00000000000E+00  0.00000000000E+00  0.45593999997E+02  0.45594000000E+02  0.51100000000E-03 0. -1.
         11   -1    0    0    0    0 -0.00000000000E+00 -0.00000000000E+00 -0.45593999997E+02  0.45594000000E+02  0.51100000000E-03 0.  1.
    9900012    2    1    2    0    0 -0.10147057305E+02 -0.50577384312E+01  0.29802316099E+02  0.59301928827E+02  0.49999972278E+02 0.  0.
        -12    1    1    2    0    0  0.10147057305E+02  0.50577384312E+01 -0.29802316099E+02  0.31886071173E+02  0.00000000000E+00 0.  1.
         11    1    3    3    0    0 -0.13510693342E+02 -0.17640226809E+02  0.40667565483E+01  0.22588823465E+02  0.51100000000E-03 0. -1.
        -11    1    3    3    0    0  0.15656255369E+01 -0.65403769874E+01  0.45659924528E+01  0.81287146462E+01  0.51100000000E-03 0.  1.
         12    1    3    3    0    0  0.17980105000E+01  0.19122865365E+02  0.21169567097E+02  0.28584390716E+02  0.00000000000E+00 0. -1.
</event>
<event>
 7    1  0.6198176E-013  0.5930194E+02  0.7816164E-02  0.1266605E+00
        -11   -1    0    0    0    0  0.00000000000E+00  0.00000000000E+00  0.45593999997E+02  0.45594000000E+02  0.51100000000E-03 0.  1.
         11   -1    0    0    0    0 -0.00000000000E+00 -0.00000000000E+00 -0.45593999997E+02  0.45594000000E+02  0.51100000000E-03 0. -1.
    9900012    2    1    2    0    0  0.26169417663E+02  0.96611548165E+01 -0.15444883402E+02  0.59301941032E+02  0.49999994536E+02 0.  0.
        -12    1    1    2    0    0 -0.26169417663E+02 -0.96611548165E+01  0.15444883402E+02  0.31886058968E+02  0.00000000000E+00 0.  1.
         11    1    3    3    0    0  0.22682250886E+02  0.21677218120E+02 -0.15027190775E+02  0.34787968517E+02  0.51100000000E-03 0. -1.
        -11    1    3    3    0    0  0.39609426281E+01 -0.12493481857E+02 -0.90041031889E+01  0.15901258752E+02  0.51100000000E-03 0.  1.
        -12    1    3    3    0    0 -0.47377585025E+00  0.47741855298E+00  0.85864105616E+01  0.86127137630E+01  0.00000000000E+00 0.  1.
</event>
<event>
 7    1  0.6198176E-013  0.5930195E+02  0.7816164E-02  0.1266605E+00
        -11   -1    0    0    0    0  0.00000000000E+00  0.00000000000E+00  0.45593999997E+02  0.45594000000E+02  0.51100000000E-03 0. -1.
         11   -1    0    0    0    0 -0.00000000000E+00 -0.00000000000E+00 -0.45593999997E+02  0.45594000000E+02  0.51100000000E-03 0.  1.
    9900012    2    1    2    0    0 -0.12646839122E+02 -0.85767662264E+01  0.27986009466E+02  0.59301950001E+02  0.50000010894E+02 0.  0.
        -12    1    1    2    0    0  0.12646839122E+02  0.85767662264E+01 -0.27986009466E+02  0.31886049999E+02  0.00000000000E+00 0.  1.
         11    1    3    3    0    0 -0.15918871654E+02 -0.13632007119E+02  0.40952064617E+01  0.21354456421E+02  0.51100000000E-03 0. -1.
        -11    1    3    3    0    0 -0.84939543906E+01 -0.31236220339E+01  0.21621958115E+02  0.23439568016E+02  0.51100000000E-03 0.  1.
        -12    1    3    3    0    0  0.11765986923E+02  0.81788629264E+01  0.22688448901E+01  0.14507925564E+02  0.00000000000E+00 0.  1.
</event>
<event>
 7    1  0.6198176E-013  0.5930195E+02  0.7816164E-02  0.1266605E+00
        -11   -1    0    0    0    0  0.00000000000E+00  0.00000000000E+00  0.45593999997E+02  0.45594000000E+02  0.51100000000E-03 0.  1.
         11   -1    0    0    0    0 -0.00000000000E+00 -0.00000000000E+00 -0.45593999997E+02  0.45594000000E+02  0.51100000000E-03 0. -1.
    9900012    2    1    2    0    0 -0.26228785099E+02 -0.18033440811E+02 -0.18884646875E+01  0.59301945774E+02  0.50000003184E+02 0.  0.
        -12    1    1    2    0    0  0.26228785099E+02  0.18033440811E+02  0.18884646875E+01  0.31886054226E+02  0.00000000000E+00 0.  1.
         11    1    3    3    0    0 -0.43297836195E+01 -0.28631768547E+01 -0.13518325647E+02  0.14480674585E+02  0.51100000000E-03 0. -1.
        -11    1    3    3    0    0 -0.15546631853E+01 -0.22269411686E+01  0.19321563014E+02  0.19511510504E+02  0.51100000000E-03 0.  1.
         12    1    3    3    0    0 -0.20344338294E+02 -0.12943322788E+02 -0.76917020548E+01  0.25309760685E+02  0.00000000000E+00 0. -1.
</event>
<event>
 7    1  0.6198176E-013  0.5930183E+02  0.7816164E-02  0.1266605E+00
        -11   -1    0    0    0    0  0.00000000000E+00  0.00000000000E+00  0.45593999997E+02  0.45594000000E+02  0.51100000000E-03 0.  1.
         11   -1    0    0    0    0 -0.00000000000E+00 -0.00000000000E+00 -0.45593999997E+02  0.45594000000E+02  0.51100000000E-03 0. -1.
    9900012    2    1    2    0    0  0.18463598277E+01 -0.42854712116E+01 -0.31542880822E+02  0.59301833114E+02  0.49999797720E+02 0.  0.
        -12    1    1    2    0    0 -0.18463598277E+01  0.42854712116E+01  0.31542880822E+02  0.31886166886E+02  0.00000000000E+00 0.  1.
         11    1    3    3    0    0 -0.10068127188E+02  0.14105175191E+02 -0.19202839903E+02  0.25866430231E+02  0.51100000000E-03 0. -1.
        -11    1    3    3    0    0 -0.43808237298E+01  0.16444193316E+01  0.28788111021E+00  0.46881347340E+01  0.51100000000E-03 0.  1.
         12    1    3    3    0    0  0.16295310746E+02 -0.20035065735E+02 -0.12627922029E+02  0.28747268150E+02  0.00000000000E+00 0. -1.
</event>
<event>
 7    1  0.6198176E-013  0.5930195E+02  0.7816164E-02  0.1266605E+00
        -11   -1    0    0    0    0  0.00000000000E+00  0.00000000000E+00  0.45593999997E+02  0.45594000000E+02  0.51100000000E-03 0. -1.
         11   -1    0    0    0    0 -0.00000000000E+00 -0.00000000000E+00 -0.45593999997E+02  0.45594000000E+02  0.51100000000E-03 0.  1.
    9900012    2    1    2    0    0 -0.30008535506E+02 -0.34644197066E+00 -0.10774408416E+02  0.59301951296E+02  0.50000013256E+02 0.  0.
        -12    1    1    2    0    0  0.30008535506E+02  0.34644197066E+00  0.10774408416E+02  0.31886048704E+02  0.00000000000E+00 0.  1.
         11    1    3    3    0    0 -0.79629133693E+00 -0.72541249513E+01 -0.10376155844E+01  0.73710959202E+01  0.51100000000E-03 0. -1.
        -11    1    3    3    0    0 -0.40638945180E+01 -0.83585777619E+01 -0.18946755421E+02  0.21103568468E+02  0.51100000000E-03 0.  1.
         12    1    3    3    0    0 -0.25148349651E+02  0.15266260743E+02  0.92099625893E+01  0.30827286908E+02  0.00000000000E+00 0. -1.
</event>
<event>
 7    1  0.6198176E-013  0.5930194E+02  0.7816164E-02  0.1266605E+00
        -11   -1    0    0    0    0  0.00000000000E+00  0.00000000000E+00  0.45593999997E+02  0.45594000000E+02  0.51100000000E-03 0. -1.
         11   -1    0    0    0    0 -0.00000000000E+00 -0.00000000000E+00 -0.45593999997E+02  0.45594000000E+02  0.51100000000E-03 0.  1.
    9900012    2    1    2    0    0  0.23899228967E+02 -0.20996620290E+02 -0.21655278200E+01  0.59301941611E+02  0.49999995592E+02 0.  0.
        -12    1    1    2    0    0 -0.23899228967E+02  0.20996620290E+02  0.21655278200E+01  0.31886058389E+02  0.00000000000E+00 0.  1.
         11    1    3    3    0    0  0.22139501756E+02 -0.64254070027E+01  0.59091001974E+01  0.23798337307E+02  0.51100000000E-03 0. -1.
        -11    1    3    3    0    0 -0.10146377384E+02 -0.12083997846E+02  0.60183593308E+01  0.16887647179E+02  0.51100000000E-03 0.  1.
        -12    1    3    3    0    0  0.11906104595E+02 -0.24872154418E+01 -0.14092987348E+02  0.18615957125E+02  0.00000000000E+00 0.  1.
</event>
<event>
 7    1  0.6198176E-013  0.5930195E+02  0.7816164E-02  0.1266605E+00
        -11   -1    0    0    0    0  0.00000000000E+00  0.00000000000E+00  0.45593999997E+02  0.45594000000E+02  0.51100000000E-03 0.  1.
         11   -1    0    0    0    0 -0.00000000000E+00 -0.00000000000E+00 -0.45593999997E+02  0.45594000000E+02  0.51100000000E-03 0. -1.
    9900012    2    1    2    0    0  0.53227574629E+01  0.33329711448E+01 -0.31261476876E+02  0.59301946934E+02  0.50000005300E+02 0.  0.
        -12    1    1    2    0    0 -0.53227574629E+01 -0.33329711448E+01  0.31261476876E+02  0.31886053066E+02  0.00000000000E+00 0.  1.
         11    1    3    3    0    0 -0.81677567903E+01  0.15183722527E+02 -0.10004322970E+02  0.19933493400E+02  0.51100000000E-03 0.  1.
        -11    1    3    3    0    0  0.14789709855E+02 -0.41424843722E+01  0.13789023314E+01  0.15420670098E+02  0.51100000000E-03 0. -1.
        -12    1    3    3    0    0 -0.12991956017E+01 -0.77082670100E+01 -0.22636056238E+02  0.23947783436E+02  0.00000000000E+00 0.  1.
</event>
<event>
 7    1  0.6198176E-013  0.5930185E+02  0.7816164E-02  0.1266605E+00
        -11   -1    0    0    0    0  0.00000000000E+00  0.00000000000E+00  0.45593999997E+02  0.45594000000E+02  0.51100000000E-03 0.  1.
         11   -1    0    0    0    0 -0.00000000000E+00 -0.00000000000E+00 -0.45593999997E+02  0.45594000000E+02  0.51100000000E-03 0. -1.
    9900012    2    1    2    0    0 -0.19392793414E+02 -0.24805640413E+02 -0.50324963424E+01  0.59301854856E+02  0.49999837372E+02 0.  0.
        -12    1    1    2    0    0  0.19392793414E+02  0.24805640413E+02  0.50324963424E+01  0.31886145144E+02  0.00000000000E+00 0.  1.
         11    1    3    3    0    0 -0.44351760525E+01 -0.14632572140E+02  0.11426104512E+01  0.15332596419E+02  0.51100000000E-03 0. -1.
        -11    1    3    3    0    0 -0.21276072829E+02  0.64923049996E+01 -0.11928049962E+02  0.25240833492E+02  0.51100000000E-03 0.  1.
         12    1    3    3    0    0  0.63184554675E+01 -0.16665373273E+02  0.57529431685E+01  0.18728424945E+02  0.00000000000E+00 0. -1.
</event>
<event>
 7    1  0.6198176E-013  0.5930191E+02  0.7816164E-02  0.1266605E+00
        -11   -1    0    0    0    0  0.00000000000E+00  0.00000000000E+00  0.45593999997E+02  0.45594000000E+02  0.51100000000E-03 0. -1.
         11   -1    0    0    0    0 -0.00000000000E+00 -0.00000000000E+00 -0.45593999997E+02  0.45594000000E+02  0.51100000000E-03 0.  1.
    9900012    2    1    2    0    0  0.20993644831E+02  0.80083179227E+01  0.22624239412E+02  0.59301913878E+02  0.49999945013E+02 0.  0.
        -12    1    1    2    0    0 -0.20993644831E+02 -0.80083179227E+01 -0.22624239412E+02  0.31886086122E+02  0.00000000000E+00 0.  1.
         11    1    3    3    0    0  0.26247195962E+02 -0.49609906771E+01  0.51556260134E+01  0.27204911399E+02  0.51100000000E-03 0. -1.
        -11    1    3    3    0    0  0.56476208176E+00  0.13090655963E+00 -0.52929013062E+01  0.53245560599E+01  0.51100000000E-03 0.  1.
         12    1    3    3    0    0 -0.58183132129E+01  0.12838402040E+02  0.22761514705E+02  0.26772446419E+02  0.00000000000E+00 0. -1.
</event>
<event>
 7    1  0.6198176E-013  0.5930194E+02  0.7816164E-02  0.1266605E+00
        -11   -1    0    0    0    0  0.00000000000E+00  0.00000000000E+00  0.45593999997E+02  0.45594000000E+02  0.51100000000E-03 0.  1.
         11   -1    0    0    0    0 -0.00000000000E+00 -0.00000000000E+00 -0.45593999997E+02  0.45594000000E+02  0.51100000000E-03 0. -1.
    9900012    2    1    2    0    0  0.18391091544E+02 -0.21281970677E+02 -0.15018859739E+02  0.59301942358E+02  0.49999996954E+02 0.  0.
        -12    1    1    2    0    0 -0.18391091544E+02  0.21281970677E+02  0.15018859739E+02  0.31886057642E+02  0.00000000000E+00 0.  1.
         11    1    3    3    0    0  0.34627624010E+01 -0.82560345056E+01 -0.14010175703E+02  0.16626420321E+02  0.51100000000E-03 0. -1.
        -11    1    3    3    0    0 -0.33098089059E+01  0.97279458540E+01  0.70016407684E+01  0.12434256682E+02  0.51100000000E-03 0.  1.
         12    1    3    3    0    0  0.18238138049E+02 -0.22753882026E+02 -0.80103248049E+01  0.30241265354E+02  0.00000000000E+00 0. -1.
</event>
<event>
 7    1  0.6198176E-013  0.5930192E+02  0.7816164E-02  0.1266605E+00
        -11   -1    0    0    0    0  0.00000000000E+00  0.00000000000E+00  0.45593999997E+02  0.45594000000E+02  0.51100000000E-03 0. -1.
         11   -1    0    0    0    0 -0.00000000000E+00 -0.00000000000E+00 -0.45593999997E+02  0.45594000000E+02  0.51100000000E-03 0.  1.
    9900012    2    1    2    0    0 -0.56516260903E+01  0.21633710752E+02  0.22732442725E+02  0.59301917290E+02  0.49999951237E+02 0.  0.
        -12    1    1    2    0    0  0.56516260903E+01 -0.21633710752E+02 -0.22732442725E+02  0.31886082710E+02  0.00000000000E+00 0.  1.
         11    1    3    3    0    0  0.34265541191E+01  0.32961339208E+02  0.18704078210E+02  0.38053037953E+02  0.51100000000E-03 0. -1.
        -11    1    3    3    0    0 -0.28386810649E+01  0.34697045298E+01 -0.63200225243E+00  0.45272935426E+01  0.51100000000E-03 0.  1.
        -12    1    3    3    0    0 -0.62394991444E+01 -0.14797332986E+02  0.46603667670E+01  0.16721585794E+02  0.00000000000E+00 0.  1.
</event>
<event>
 7    1  0.6198176E-013  0.5930196E+02  0.7816164E-02  0.1266605E+00
        -11   -1    0    0    0    0  0.00000000000E+00  0.00000000000E+00  0.45593999997E+02  0.45594000000E+02  0.51100000000E-03 0.  1.
         11   -1    0    0    0    0 -0.00000000000E+00 -0.00000000000E+00 -0.45593999997E+02  0.45594000000E+02  0.51100000000E-03 0. -1.
    9900012    2    1    2    0    0 -0.22874843480E+02  0.21361602167E+02 -0.60945079041E+01  0.59301960140E+02  0.50000029385E+02 0.  0.
        -12    1    1    2    0    0  0.22874843480E+02 -0.21361602167E+02  0.60945079041E+01  0.31886039860E+02  0.00000000000E+00 0.  1.
         11    1    3    3    0    0 -0.19142565375E+02 -0.70541896833E+01 -0.79369069531E+01  0.21890497789E+02  0.51100000000E-03 0. -1.
        -11    1    3    3    0    0 -0.17520056713E+00 -0.43607047060E+01  0.72153763672E+00  0.44234666942E+01  0.51100000000E-03 0.  1.
        -12    1    3    3    0    0 -0.35570775377E+01  0.32776496557E+02  0.11208614123E+01  0.32987995657E+02  0.00000000000E+00 0.  1.
</event>
<event>
 7    1  0.6198176E-013  0.5930194E+02  0.7816164E-02  0.1266605E+00
        -11   -1    0    0    0    0  0.00000000000E+00  0.00000000000E+00  0.45593999997E+02  0.45594000000E+02  0.51100000000E-03 0.  1.
         11   -1    0    0    0    0 -0.00000000000E+00 -0.00000000000E+00 -0.45593999997E+02  0.45594000000E+02  0.51100000000E-03 0. -1.
    9900012    2    1    2    0    0  0.12226800969E+02 -0.45077445730E+01 -0.29101657259E+02  0.59301939122E+02  0.49999991054E+02 0.  0.
        -12    1    1    2    0    0 -0.12226800969E+02  0.45077445730E+01  0.29101657259E+02  0.31886060878E+02  0.00000000000E+00 0.  1.
         11    1    3    3    0    0 -0.16372964186E+01 -0.71020426331E+01  0.23498426840E+01  0.76577744825E+01  0.51100000000E-03 0. -1.
        -11    1    3    3    0    0  0.15287279199E+02 -0.90493759143E+01  0.32894711721E+00  0.17767957570E+02  0.51100000000E-03 0.  1.
         12    1    3    3    0    0 -0.14231818113E+01  0.11643673974E+02 -0.31780447060E+02  0.33876207070E+02  0.00000000000E+00 0. -1.
</event>
<event>
 7    1  0.6198176E-013  0.5930191E+02  0.7816164E-02  0.1266605E+00
        -11   -1    0    0    0    0  0.00000000000E+00  0.00000000000E+00  0.45593999997E+02  0.45594000000E+02  0.51100000000E-03 0.  1.
         11   -1    0    0    0    0 -0.00000000000E+00 -0.00000000000E+00 -0.45593999997E+02  0.45594000000E+02  0.51100000000E-03 0. -1.
    9900012    2    1    2    0    0  0.24211826678E+02  0.70383086696E+01 -0.19518510714E+02  0.59301912117E+02  0.49999941802E+02 0.  0.
        -12    1    1    2    0    0 -0.24211826678E+02 -0.70383086696E+01  0.19518510714E+02  0.31886087883E+02  0.00000000000E+00 0.  1.
         11    1    3    3    0    0  0.87437423073E+01  0.73437580217E+01 -0.16389111300E+02  0.19974653461E+02  0.51100000000E-03 0.  1.
        -11    1    3    3    0    0  0.17917845731E+02 -0.68393300003E+01 -0.15808845783E+02  0.24854481200E+02  0.51100000000E-03 0. -1.
        -12    1    3    3    0    0 -0.24497613602E+01  0.65338806482E+01  0.12679446369E+02  0.14472777455E+02  0.00000000000E+00 0.  1.
</event>
<event>
 7    1  0.6198176E-013  0.5930191E+02  0.7816164E-02  0.1266605E+00
        -11   -1    0    0    0    0  0.00000000000E+00  0.00000000000E+00  0.45593999997E+02  0.45594000000E+02  0.51100000000E-03 0. -1.
         11   -1    0    0    0    0 -0.00000000000E+00 -0.00000000000E+00 -0.45593999997E+02  0.45594000000E+02  0.51100000000E-03 0.  1.
    9900012    2    1    2    0    0  0.10126447028E+02 -0.15869596720E+01  0.30193692978E+02  0.59301914225E+02  0.49999945648E+02 0.  0.
        -12    1    1    2    0    0 -0.10126447028E+02  0.15869596720E+01 -0.30193692978E+02  0.31886085775E+02  0.00000000000E+00 0.  1.
         11    1    3    3    0    0  0.60559864808E+01 -0.45318188916E+01 -0.46910174769E+01  0.89004494241E+01  0.51100000000E-03 0. -1.
        -11    1    3    3    0    0 -0.58068889978E+01 -0.84896799690E+01 -0.20567593690E+01  0.10489274769E+02  0.51100000000E-03 0.  1.
         12    1    3    3    0    0  0.98773495446E+01  0.11434539189E+02  0.36941469823E+02  0.39912190033E+02  0.00000000000E+00 0. -1.
</event>
<event>
 7    1  0.7996110E-013  0.5930194E+02  0.7816164E-02  0.1266605E+00
        -11   -1    0    0    0    0  0.00000000000E+00  0.00000000000E+00  0.45593999997E+02  0.45594000000E+02  0.51100000000E-03 0.  1.
         11   -1    0    0    0    0 -0.00000000000E+00 -0.00000000000E+00 -0.45593999997E+02  0.45594000000E+02  0.51100000000E-03 0. -1.
    9900012    2    1    2    0    0 -0.18530755662E+02  0.23156007709E+01 -0.25845110545E+02  0.59301942680E+02  0.49999997542E+02 0.  0.
        -12    1    1    2    0    0  0.18530755662E+02 -0.23156007709E+01  0.25845110545E+02  0.31886057320E+02  0.00000000000E+00 0.  1.
         11    1    3    3    0    0 -0.15603356515E+01  0.73590635024E+00 -0.23688763650E+02  0.23751499512E+02  0.51100000000E-03 0. -1.
        -11    1    3    3    0    0 -0.18800868229E+02 -0.98186861906E+01 -0.79280538945E+01  0.22643614630E+02  0.51100000000E-03 0.  1.
        -12    1    3    3    0    0  0.18304482186E+01  0.11398380611E+02  0.57717070001E+01  0.12906828539E+02  0.00000000000E+00 0.  1.
</event>
<event>
 7    1  0.6198176E-013  0.5930177E+02  0.7816164E-02  0.1266605E+00
        -11   -1    0    0    0    0  0.00000000000E+00  0.00000000000E+00  0.45593999997E+02  0.45594000000E+02  0.51100000000E-03 0.  1.
         11   -1    0    0    0    0 -0.00000000000E+00 -0.00000000000E+00 -0.45593999997E+02  0.45594000000E+02  0.51100000000E-03 0. -1.
    9900012    2    1    2    0    0 -0.51074351547E+01  0.24146782213E+02 -0.20188573820E+02  0.59301772597E+02  0.49999687351E+02 0.  0.
        -12    1    1    2    0    0  0.51074351547E+01 -0.24146782213E+02  0.20188573820E+02  0.31886227403E+02  0.00000000000E+00 0.  1.
         11    1    3    3    0    0  0.12763412366E+01 -0.96959363801E+01  0.26988596278E+01  0.10145150210E+02  0.51100000000E-03 0. -1.
        -11    1    3    3    0    0 -0.30901275417E+01  0.12801910068E+01  0.50960637275E+01  0.60957069330E+01  0.51100000000E-03 0.  1.
        -12    1    3    3    0    0 -0.32936488496E+01  0.32562527587E+02 -0.27983497175E+02  0.43060915454E+02  0.00000000000E+00 0.  1.
</event>
<event>
 7    1  0.6198176E-013  0.5930210E+02  0.7816164E-02  0.1266604E+00
        -11   -1    0    0    0    0  0.00000000000E+00  0.00000000000E+00  0.45593999997E+02  0.45594000000E+02  0.51100000000E-03 0.  1.
         11   -1    0    0    0    0 -0.00000000000E+00 -0.00000000000E+00 -0.45593999997E+02  0.45594000000E+02  0.51100000000E-03 0. -1.
    9900012    2    1    2    0    0  0.15147871231E+02 -0.26805837026E+02 -0.82885358360E+01  0.59302098291E+02  0.50000281338E+02 0.  0.
        -12    1    1    2    0    0 -0.15147871231E+02  0.26805837026E+02  0.82885358360E+01  0.31885901709E+02  0.00000000000E+00 0.  1.
         11    1    3    3    0    0 -0.98897791118E+00 -0.77943293490E+01 -0.17340741550E+00  0.78587351211E+01  0.51100000000E-03 0. -1.
        -11    1    3    3    0    0  0.20915266689E+02 -0.26088418773E+02  0.69262622904E+01  0.34147138743E+02  0.51100000000E-03 0.  1.
         12    1    3    3    0    0 -0.47784175462E+01  0.70769110964E+01 -0.15041390711E+02  0.17296224427E+02  0.00000000000E+00 0. -1.
</event>
<event>
 7    1  0.6198176E-013  0.5930199E+02  0.7816164E-02  0.1266605E+00
        -11   -1    0    0    0    0  0.00000000000E+00  0.00000000000E+00  0.45593999997E+02  0.45594000000E+02  0.51100000000E-03 0. -1.
         11   -1    0    0    0    0 -0.00000000000E+00 -0.00000000000E+00 -0.45593999997E+02  0.45594000000E+02  0.51100000000E-03 0.  1.
    9900012    2    1    2    0    0 -0.38270033946E+01 -0.30259417928E+02  0.92972702536E+01  0.59301991117E+02  0.50000085880E+02 0.  0.
        -12    1    1    2    0    0  0.38270033946E+01  0.30259417928E+02 -0.92972702536E+01  0.31886008883E+02  0.00000000000E+00 0.  1.
         11    1    3    3    0    0  0.97412245148E+01 -0.12230545036E+02 -0.78958100627E+01  0.17516321067E+02  0.51100000000E-03 0. -1.
        -11    1    3    3    0    0 -0.44666677596E+01  0.80933749946E+01  0.90809697022E+01  0.12958312030E+02  0.51100000000E-03 0.  1.
         12    1    3    3    0    0 -0.91015601498E+01 -0.26122247886E+02  0.81121106141E+01  0.28827358020E+02  0.00000000000E+00 0. -1.
</event>
<event>
 7    1  0.6198176E-013  0.5930187E+02  0.7816164E-02  0.1266605E+00
        -11   -1    0    0    0    0  0.00000000000E+00  0.00000000000E+00  0.45593999997E+02  0.45594000000E+02  0.51100000000E-03 0.  1.
         11   -1    0    0    0    0 -0.00000000000E+00 -0.00000000000E+00 -0.45593999997E+02  0.45594000000E+02  0.51100000000E-03 0. -1.
    9900012    2    1    2    0    0 -0.52075685314E+01  0.30412502508E+02  0.80427857470E+01  0.59301866942E+02  0.49999859415E+02 0.  0.
        -12    1    1    2    0    0  0.52075685314E+01 -0.30412502508E+02 -0.80427857470E+01  0.31886133058E+02  0.00000000000E+00 0.  1.
         11    1    3    3    0    0  0.65174076184E+01  0.29354296765E+02  0.57991420522E+01  0.30623216510E+02  0.51100000000E-03 0. -1.
        -11    1    3    3    0    0  0.74234384115E+01 -0.43072814723E+01  0.18970243853E+01  0.87896992731E+01  0.51100000000E-03 0.  1.
        -12    1    3    3    0    0 -0.19148414561E+02  0.53654872153E+01  0.34661930951E+00  0.19888951159E+02  0.00000000000E+00 0.  1.
</event>
<event>
 7    1  0.6198176E-013  0.5930198E+02  0.7816164E-02  0.1266605E+00
        -11   -1    0    0    0    0  0.00000000000E+00  0.00000000000E+00  0.45593999997E+02  0.45594000000E+02  0.51100000000E-03 0. -1.
         11   -1    0    0    0    0 -0.00000000000E+00 -0.00000000000E+00 -0.45593999997E+02  0.45594000000E+02  0.51100000000E-03 0.  1.
    9900012    2    1    2    0    0 -0.20549664523E+02 -0.19301505763E+02  0.14895677577E+02  0.59301983516E+02  0.50000072018E+02 0.  0.
        -12    1    1    2    0    0  0.20549664523E+02  0.19301505763E+02 -0.14895677577E+02  0.31886016484E+02  0.00000000000E+00 0.  1.
         11    1    3    3    0    0 -0.64053771885E+01 -0.11842054651E+02  0.11707875112E+02  0.17842013765E+02  0.51100000000E-03 0. -1.
        -11    1    3    3    0    0  0.51429823847E+01 -0.17849785597E+02 -0.27087142674E+01  0.18772379895E+02  0.51100000000E-03 0.  1.
        -12    1    3    3    0    0 -0.19287269719E+02  0.10390334486E+02  0.58965167331E+01  0.22687589857E+02  0.00000000000E+00 0.  1.
</event>
<event>
 7    1  0.6198176E-013  0.5930200E+02  0.7816164E-02  0.1266605E+00
        -11   -1    0    0    0    0  0.00000000000E+00  0.00000000000E+00  0.45593999997E+02  0.45594000000E+02  0.51100000000E-03 0.  1.
         11   -1    0    0    0    0 -0.00000000000E+00 -0.00000000000E+00 -0.45593999997E+02  0.45594000000E+02  0.51100000000E-03 0. -1.
    9900012    2    1    2    0    0 -0.29958756287E+02 -0.26647846028E+01 -0.10587202242E+02  0.59301999835E+02  0.50000101779E+02 0.  0.
        -12    1    1    2    0    0  0.29958756287E+02  0.26647846028E+01  0.10587202242E+02  0.31886000165E+02  0.00000000000E+00 0.  1.
         11    1    3    3    0    0  0.88309449023E+01 -0.11169348577E+01  0.49420904258E+01  0.10181227302E+02  0.51100000000E-03 0. -1.
        -11    1    3    3    0    0 -0.20526160459E+01  0.21287776265E+01  0.57795577902E+01  0.64921656885E+01  0.51100000000E-03 0.  1.
         12    1    3    3    0    0 -0.36737085143E+02 -0.36766273715E+01 -0.21308850458E+02  0.42628606844E+02  0.00000000000E+00 0. -1.
</event>
<event>
 7    1  0.6198176E-013  0.5930197E+02  0.7816164E-02  0.1266605E+00
        -11   -1    0    0    0    0  0.00000000000E+00  0.00000000000E+00  0.45593999997E+02  0.45594000000E+02  0.51100000000E-03 0. -1.
         11   -1    0    0    0    0 -0.00000000000E+00 -0.00000000000E+00 -0.45593999997E+02  0.45594000000E+02  0.51100000000E-03 0.  1.
    9900012    2    1    2    0    0  0.23579188318E+01 -0.14671595213E+02  0.28211759308E+02  0.59301970919E+02  0.50000049043E+02 0.  0.
        -12    1    1    2    0    0 -0.23579188318E+01  0.14671595213E+02 -0.28211759308E+02  0.31886029081E+02  0.00000000000E+00 0.  1.
         11    1    3    3    0    0 -0.13289315517E+01  0.43198844928E+01 -0.92501432721E+01  0.10295271338E+02  0.51100000000E-03 0.  1.
        -11    1    3    3    0    0  0.71737035174E+01 -0.10921919919E+01  0.27053190910E+02  0.28009463476E+02  0.51100000000E-03 0. -1.
        -12    1    3    3    0    0 -0.34868531339E+01 -0.17899287714E+02  0.10408711670E+02  0.20997236105E+02  0.00000000000E+00 0.  1.
</event>
<event>
 7    1  0.6198176E-013  0.5930192E+02  0.7816164E-02  0.1266605E+00
        -11   -1    0    0    0    0  0.00000000000E+00  0.00000000000E+00  0.45593999997E+02  0.45594000000E+02  0.51100000000E-03 0. -1.
         11   -1    0    0    0    0 -0.00000000000E+00 -0.00000000000E+00 -0.45593999997E+02  0.45594000000E+02  0.51100000000E-03 0.  1.
    9900012    2    1    2    0    0 -0.23521836529E+02 -0.17555213731E+02  0.12460327105E+02  0.59301920366E+02  0.49999956847E+02 0.  0.
        -12    1    1    2    0    0  0.23521836529E+02  0.17555213731E+02 -0.12460327105E+02  0.31886079634E+02  0.00000000000E+00 0.  1.
         11    1    3    3    0    0  0.14254710393E+01  0.46615796535E+01  0.80269664004E+01  0.93911917457E+01  0.51100000000E-03 0. -1.
        -11    1    3    3    0    0 -0.51576384219E+00 -0.14287237772E+02  0.16244076727E+02  0.21639343901E+02  0.51100000000E-03 0.  1.
         12    1    3    3    0    0 -0.24431543726E+02 -0.79295556126E+01 -0.11810716022E+02  0.28271384720E+02  0.00000000000E+00 0. -1.
</event>
<event>
 7    1  0.6198176E-013  0.5930195E+02  0.7816164E-02  0.1266605E+00
        -11   -1    0    0    0    0  0.00000000000E+00  0.00000000000E+00  0.45593999997E+02  0.45594000000E+02  0.51100000000E-03 0.  1.
         11   -1    0    0    0    0 -0.00000000000E+00 -0.00000000000E+00 -0.45593999997E+02  0.45594000000E+02  0.51100000000E-03 0. -1.
    9900012    2    1    2    0    0  0.13983087756E+02  0.19913450399E+02 -0.20606985176E+02  0.59301951514E+02  0.50000013653E+02 0.  0.
        -12    1    1    2    0    0 -0.13983087756E+02 -0.19913450399E+02  0.20606985176E+02  0.31886048486E+02  0.00000000000E+00 0.  1.
         11    1    3    3    0    0  0.81779862003E+01  0.60952036119E+01 -0.14479964969E+02  0.17711588046E+02  0.51100000000E-03 0. -1.
        -11    1    3    3    0    0  0.92019094843E+01  0.25631697961E+02  0.12364804343E+01  0.27261473963E+02  0.51100000000E-03 0.  1.
         12    1    3    3    0    0 -0.33968079284E+01 -0.11813451174E+02 -0.73635006421E+01  0.14328889505E+02  0.00000000000E+00 0. -1.
</event>
<event>
 7    1  0.6198176E-013  0.5930196E+02  0.7816164E-02  0.1266605E+00
        -11   -1    0    0    0    0  0.00000000000E+00  0.00000000000E+00  0.45593999997E+02  0.45594000000E+02  0.51100000000E-03 0.  1.
         11   -1    0    0    0    0 -0.00000000000E+00 -0.00000000000E+00 -0.45593999997E+02  0.45594000000E+02  0.51100000000E-03 0. -1.
    9900012    2    1    2    0    0  0.17386993112E+02 -0.66919424180E+01 -0.25877207578E+02  0.59301960816E+02  0.50000030618E+02 0.  0.
        -12    1    1    2    0    0 -0.17386993112E+02  0.66919424180E+01  0.25877207578E+02  0.31886039184E+02  0.00000000000E+00 0.  1.
         11    1    3    3    0    0  0.27861572338E+01 -0.37150299469E+01  0.55581196786E+01  0.72427076609E+01  0.51100000000E-03 0. -1.
        -11    1    3    3    0    0 -0.82003551787E+01 -0.11622737716E+02 -0.28878946603E+01  0.14514606192E+02  0.51100000000E-03 0.  1.
         12    1    3    3    0    0  0.22801191057E+02  0.86458252453E+01 -0.28547432596E+02  0.37544646963E+02  0.00000000000E+00 0. -1.
</event>
<event>
 7    1  0.6198176E-013  0.5930191E+02  0.7816164E-02  0.1266605E+00
        -11   -1    0    0    0    0  0.00000000000E+00  0.00000000000E+00  0.45593999997E+02  0.45594000000E+02  0.51100000000E-03 0.  1.
         11   -1    0    0    0    0 -0.00000000000E+00 -0.00000000000E+00 -0.45593999997E+02  0.45594000000E+02  0.51100000000E-03 0. -1.
    9900012    2    1    2    0    0  0.46550537066E+01  0.15991281680E+01 -0.31503901104E+02  0.59301913369E+02  0.49999944085E+02 0.  0.
        -12    1    1    2    0    0 -0.46550537066E+01 -0.15991281680E+01  0.31503901104E+02  0.31886086631E+02  0.00000000000E+00 0.  1.
         11    1    3    3    0    0 -0.11775447004E+02  0.86201149869E+00 -0.32613577310E+01  0.12249108967E+02  0.51100000000E-03 0. -1.
        -11    1    3    3    0    0  0.12331793965E+02 -0.80116518376E+01  0.24205850384E+01  0.14903655248E+02  0.51100000000E-03 0.  1.
         12    1    3    3    0    0  0.40987067457E+01  0.87487685068E+01 -0.30663128411E+02  0.32149149154E+02  0.00000000000E+00 0. -1.
</event>
<event>
 7    1  0.6198176E-013  0.5930198E+02  0.7816164E-02  0.1266605E+00
        -11   -1    0    0    0    0  0.00000000000E+00  0.00000000000E+00  0.45593999997E+02  0.45594000000E+02  0.51100000000E-03 0.  1.
         11   -1    0    0    0    0 -0.00000000000E+00 -0.00000000000E+00 -0.45593999997E+02  0.45594000000E+02  0.51100000000E-03 0. -1.
    9900012    2    1    2    0    0 -0.15663108950E+02 -0.27763886595E+02 -0.74273084631E+00  0.59301983787E+02  0.50000072511E+02 0.  0.
        -12    1    1    2    0    0  0.15663108950E+02  0.27763886595E+02  0.74273084631E+00  0.31886016213E+02  0.00000000000E+00 0.  1.
         11    1    3    3    0    0 -0.11433411149E+02 -0.79274008173E+01  0.12432260068E+01  0.13968256348E+02  0.51100000000E-03 0. -1.
        -11    1    3    3    0    0 -0.63804157510E+01 -0.52100534211E+01  0.18395217412E+02  0.20155356253E+02  0.51100000000E-03 0.  1.
        -12    1    3    3    0    0  0.21507179505E+01 -0.14626432357E+02 -0.20381174265E+02  0.25178371186E+02  0.00000000000E+00 0.  1.
</event>
<event>
 7    1  0.6198176E-013  0.5930186E+02  0.7816164E-02  0.1266605E+00
        -11   -1    0    0    0    0  0.00000000000E+00  0.00000000000E+00  0.45593999997E+02  0.45594000000E+02  0.51100000000E-03 0.  1.
         11   -1    0    0    0    0 -0.00000000000E+00 -0.00000000000E+00 -0.45593999997E+02  0.45594000000E+02  0.51100000000E-03 0. -1.
    9900012    2    1    2    0    0  0.17950276925E+02  0.26342499154E+02  0.76567400975E+00  0.59301859436E+02  0.49999845725E+02 0.  0.
        -12    1    1    2    0    0 -0.17950276925E+02 -0.26342499154E+02 -0.76567400975E+00  0.31886140564E+02  0.00000000000E+00 0.  1.
         11    1    3    3    0    0  0.24314231184E+02  0.70041712910E+01  0.43007929613E+01  0.25665873722E+02  0.51100000000E-03 0. -1.
        -11    1    3    3    0    0  0.60005418283E+01 -0.32845423784E+01 -0.38561758086E+01  0.78526946329E+01  0.51100000000E-03 0.  1.
         12    1    3    3    0    0 -0.12364496088E+02  0.22622870242E+02  0.32105685708E+00  0.25783291081E+02  0.00000000000E+00 0. -1.
</event>
<event>
 7    1  0.6198176E-013  0.5930210E+02  0.7816164E-02  0.1266604E+00
        -11   -1    0    0    0    0  0.00000000000E+00  0.00000000000E+00  0.45593999997E+02  0.45594000000E+02  0.51100000000E-03 0.  1.
         11   -1    0    0    0    0 -0.00000000000E+00 -0.00000000000E+00 -0.45593999997E+02  0.45594000000E+02  0.51100000000E-03 0. -1.
    9900012    2    1    2    0    0 -0.24837312705E+02 -0.88631431680E+01 -0.17923808885E+02  0.59302104463E+02  0.50000292595E+02 0.  0.
        -12    1    1    2    0    0  0.24837312705E+02  0.88631431680E+01  0.17923808885E+02  0.31885895537E+02  0.00000000000E+00 0.  1.
         11    1    3    3    0    0  0.89965246593E+01  0.28698422672E+00 -0.90960501038E+01  0.12796794272E+02  0.51100000000E-03 0. -1.
        -11    1    3    3    0    0  0.19472140644E+01  0.58710005827E+01  0.14665129286E+01  0.63569608214E+01  0.51100000000E-03 0.  1.
        -12    1    3    3    0    0 -0.35781051429E+02 -0.15021127977E+02 -0.10294271710E+02  0.40148349370E+02  0.00000000000E+00 0.  1.
</event>
<event>
 7    1  0.6198176E-013  0.5930194E+02  0.7816164E-02  0.1266605E+00
        -11   -1    0    0    0    0  0.00000000000E+00  0.00000000000E+00  0.45593999997E+02  0.45594000000E+02  0.51100000000E-03 0.  1.
         11   -1    0    0    0    0 -0.00000000000E+00 -0.00000000000E+00 -0.45593999997E+02  0.45594000000E+02  0.51100000000E-03 0. -1.
    9900012    2    1    2    0    0 -0.60157478969E+01 -0.28720690714E+02 -0.12476106450E+02  0.59301944584E+02  0.50000001014E+02 0.  0.
        -12    1    1    2    0    0  0.60157478969E+01  0.28720690714E+02  0.12476106450E+02  0.31886055416E+02  0.00000000000E+00 0.  1.
         11    1    3    3    0    0  0.41865181472E+00  0.11476190810E+02 -0.11727595248E+02  0.16413857420E+02  0.51100000000E-03 0. -1.
        -11    1    3    3    0    0 -0.91692420673E+01 -0.15558176149E+02 -0.11388284184E+01  0.18094993109E+02  0.51100000000E-03 0.  1.
        -12    1    3    3    0    0  0.27348423556E+01 -0.24638705375E+02  0.39031721677E+00  0.24793094054E+02  0.00000000000E+00 0.  1.
</event>
<event>
 7    1  0.6198176E-013  0.5930194E+02  0.7816164E-02  0.1266605E+00
        -11   -1    0    0    0    0  0.00000000000E+00  0.00000000000E+00  0.45593999997E+02  0.45594000000E+02  0.51100000000E-03 0.  1.
         11   -1    0    0    0    0 -0.00000000000E+00 -0.00000000000E+00 -0.45593999997E+02  0.45594000000E+02  0.51100000000E-03 0. -1.
    9900012    2    1    2    0    0 -0.16000373714E+02 -0.23975789493E+02 -0.13633431029E+02  0.59301939057E+02  0.49999990935E+02 0.  0.
        -12    1    1    2    0    0  0.16000373714E+02  0.23975789493E+02  0.13633431029E+02  0.31886060943E+02  0.00000000000E+00 0.  1.
         11    1    3    3    0    0  0.30432949167E+01 -0.19368195763E+02 -0.63202557705E+01  0.20599375824E+02  0.51100000000E-03 0. -1.
        -11    1    3    3    0    0  0.86479331740E+01 -0.54430044519E+01 -0.31118905070E+01  0.10681615441E+02  0.51100000000E-03 0.  1.
        -12    1    3    3    0    0 -0.27691601805E+02  0.83541072155E+00 -0.42012847517E+01  0.28020947792E+02  0.00000000000E+00 0.  1.
</event>
<event>
 7    1  0.6198176E-013  0.5930196E+02  0.7816164E-02  0.1266605E+00
        -11   -1    0    0    0    0  0.00000000000E+00  0.00000000000E+00  0.45593999997E+02  0.45594000000E+02  0.51100000000E-03 0. -1.
         11   -1    0    0    0    0 -0.00000000000E+00 -0.00000000000E+00 -0.45593999997E+02  0.45594000000E+02  0.51100000000E-03 0.  1.
    9900012    2    1    2    0    0 -0.20881286476E+02  0.14443849304E+02  0.19289033900E+02  0.59301957028E+02  0.50000023710E+02 0.  0.
        -12    1    1    2    0    0  0.20881286476E+02 -0.14443849304E+02 -0.19289033900E+02  0.31886042972E+02  0.00000000000E+00 0.  1.
         11    1    3    3    0    0 -0.18772618882E+02  0.23893930267E+01  0.32527029899E+01  0.19201575345E+02  0.51100000000E-03 0. -1.
        -11    1    3    3    0    0 -0.71664882689E+01  0.65973156319E+01 -0.94371047425E+01  0.13562524612E+02  0.51100000000E-03 0.  1.
         12    1    3    3    0    0  0.50578206749E+01  0.54571406450E+01  0.25473435653E+02  0.26537857072E+02  0.00000000000E+00 0. -1.
</event>
<event>
 7    1  0.6198176E-013  0.5930194E+02  0.7816164E-02  0.1266605E+00
        -11   -1    0    0    0    0  0.00000000000E+00  0.00000000000E+00  0.45593999997E+02  0.45594000000E+02  0.51100000000E-03 0.  1.
         11   -1    0    0    0    0 -0.00000000000E+00 -0.00000000000E+00 -0.45593999997E+02  0.45594000000E+02  0.51100000000E-03 0. -1.
    9900012    2    1    2    0    0 -0.18497589459E+02 -0.25913504346E+02 -0.17464639281E+01  0.59301942553E+02  0.49999997310E+02 0.  0.
        -12    1    1    2    0    0  0.18497589459E+02  0.25913504346E+02  0.17464639281E+01  0.31886057447E+02  0.00000000000E+00 0.  1.
         11    1    3    3    0    0 -0.10402157625E+02 -0.14449778012E+02 -0.14309147420E+02  0.22841905962E+02  0.51100000000E-03 0. -1.
        -11    1    3    3    0    0  0.84198953077E+01 -0.45833007668E+00 -0.51317697564E+01  0.98711582171E+01  0.51100000000E-03 0.  1.
         12    1    3    3    0    0 -0.16515327142E+02 -0.11005396258E+02  0.17694453249E+02  0.26588878374E+02  0.00000000000E+00 0. -1.
</event>
<event>
 7    1  0.6198176E-013  0.5930194E+02  0.7816164E-02  0.1266605E+00
        -11   -1    0    0    0    0  0.00000000000E+00  0.00000000000E+00  0.45593999997E+02  0.45594000000E+02  0.51100000000E-03 0. -1.
         11   -1    0    0    0    0 -0.00000000000E+00 -0.00000000000E+00 -0.45593999997E+02  0.45594000000E+02  0.51100000000E-03 0.  1.
    9900012    2    1    2    0    0  0.89713124035E+00 -0.10565390776E+02  0.30071386803E+02  0.59301943000E+02  0.49999998126E+02 0.  0.
        -12    1    1    2    0    0 -0.89713124035E+00  0.10565390776E+02 -0.30071386803E+02  0.31886057000E+02  0.00000000000E+00 0.  1.
         11    1    3    3    0    0  0.70900534485E+01 -0.14310538146E+02  0.14212511551E+02  0.21378864441E+02  0.51100000000E-03 0. -1.
        -11    1    3    3    0    0  0.37328454573E+01  0.16080046509E+02  0.14604779080E+02  0.22040907495E+02  0.51100000000E-03 0.  1.
         12    1    3    3    0    0 -0.99257676655E+01 -0.12334899139E+02  0.12540961725E+01  0.15882171065E+02  0.00000000000E+00 0. -1.
</event>
<event>
 7    1  0.6198176E-013  0.5930208E+02  0.7816164E-02  0.1266604E+00
        -11   -1    0    0    0    0  0.00000000000E+00  0.00000000000E+00  0.45593999997E+02  0.45594000000E+02  0.51100000000E-03 0. -1.
         11   -1    0    0    0    0 -0.00000000000E+00 -0.00000000000E+00 -0.45593999997E+02  0.45594000000E+02  0.51100000000E-03 0.  1.
    9900012    2    1    2    0    0  0.75173259311E+01 -0.27879322337E+02  0.13525717496E+02  0.59302080899E+02  0.50000249620E+02 0.  0.
        -12    1    1    2    0    0 -0.75173259311E+01  0.27879322337E+02 -0.13525717496E+02  0.31885919101E+02  0.00000000000E+00 0.  1.
         11    1    3    3    0    0 -0.15582835512E+02 -0.66328498825E+01 -0.22183079359E+01  0.17080408383E+02  0.51100000000E-03 0. -1.
        -11    1    3    3    0    0  0.24461469823E+00  0.15367986694E+01 -0.40669006774E+01  0.43544537983E+01  0.51100000000E-03 0.  1.
        -12    1    3    3    0    0  0.22855546745E+02 -0.22783271124E+02  0.19810926109E+02  0.37867218718E+02  0.00000000000E+00 0.  1.
</event>
<event>
 7    1  0.6198176E-013  0.5930193E+02  0.7816164E-02  0.1266605E+00
        -11   -1    0    0    0    0  0.00000000000E+00  0.00000000000E+00  0.45593999997E+02  0.45594000000E+02  0.51100000000E-03 0.  1.
         11   -1    0    0    0    0 -0.00000000000E+00 -0.00000000000E+00 -0.45593999997E+02  0.45594000000E+02  0.51100000000E-03 0. -1.
    9900012    2    1    2    0    0  0.13353989034E+02  0.28910003190E+02 -0.16136541459E+01  0.59301934277E+02  0.49999982218E+02 0.  0.
        -12    1    1    2    0    0 -0.13353989034E+02 -0.28910003190E+02  0.16136541459E+01  0.31886065723E+02  0.00000000000E+00 0.  1.
         11    1    3    3    0    0  0.74281018878E+01  0.33714931388E+02 -0.14950302955E+02  0.37621600908E+02  0.51100000000E-03 0. -1.
        -11    1    3    3    0    0 -0.14089103866E+01  0.47048358630E+01  0.25316740215E+01  0.55253852886E+01  0.51100000000E-03 0.  1.
        -12    1    3    3    0    0  0.73347975328E+01 -0.95097640611E+01  0.10804974787E+02  0.16154948081E+02  0.00000000000E+00 0.  1.
</event>
<event>
 7    1  0.6198176E-013  0.5930197E+02  0.7816164E-02  0.1266605E+00
        -11   -1    0    0    0    0  0.00000000000E+00  0.00000000000E+00  0.45593999997E+02  0.45594000000E+02  0.51100000000E-03 0. -1.
         11   -1    0    0    0    0 -0.00000000000E+00 -0.00000000000E+00 -0.45593999997E+02  0.45594000000E+02  0.51100000000E-03 0.  1.
    9900012    2    1    2    0    0  0.15839621504E+02 -0.26996434396E+02  0.60842505762E+01  0.59301965681E+02  0.50000039491E+02 0.  0.
        -12    1    1    2    0    0 -0.15839621504E+02  0.26996434396E+02 -0.60842505762E+01  0.31886034319E+02  0.00000000000E+00 0.  1.
         11    1    3    3    0    0  0.44719778175E+01 -0.27579641715E+01  0.14112706223E+02  0.15058998279E+02  0.51100000000E-03 0. -1.
        -11    1    3    3    0    0 -0.12091640139E+02 -0.47259056437E+01 -0.19120690920E+01  0.13122421799E+02  0.51100000000E-03 0.  1.
        -12    1    3    3    0    0  0.23459283826E+02 -0.19512564581E+02 -0.61163865552E+01  0.31120545603E+02  0.00000000000E+00 0.  1.
</event>
<event>
 7    1  0.6198176E-013  0.5930194E+02  0.7816164E-02  0.1266605E+00
        -11   -1    0    0    0    0  0.00000000000E+00  0.00000000000E+00  0.45593999997E+02  0.45594000000E+02  0.51100000000E-03 0. -1.
         11   -1    0    0    0    0 -0.00000000000E+00 -0.00000000000E+00 -0.45593999997E+02  0.45594000000E+02  0.51100000000E-03 0.  1.
    9900012    2    1    2    0    0 -0.46111732406E+01 -0.23239165360E+02  0.21340079047E+02  0.59301941933E+02  0.49999996181E+02 0.  0.
        -12    1    1    2    0    0  0.46111732406E+01  0.23239165360E+02 -0.21340079047E+02  0.31886058067E+02  0.00000000000E+00 0.  1.
         11    1    3    3    0    0 -0.93933523970E+01 -0.16668005782E+02  0.33932329270E+01  0.19431199550E+02  0.51100000000E-03 0. -1.
        -11    1    3    3    0    0  0.13036229636E+02 -0.17418139872E+02  0.88714283759E+01  0.23495470232E+02  0.51100000000E-03 0.  1.
         12    1    3    3    0    0 -0.82540504798E+01  0.10846980293E+02  0.90754177440E+01  0.16375272152E+02  0.00000000000E+00 0. -1.
</event>
<event>
 7    1  0.6198176E-013  0.5930197E+02  0.7816164E-02  0.1266605E+00
        -11   -1    0    0    0    0  0.00000000000E+00  0.00000000000E+00  0.45593999997E+02  0.45594000000E+02  0.51100000000E-03 0. -1.
         11   -1    0    0    0    0 -0.00000000000E+00 -0.00000000000E+00 -0.45593999997E+02  0.45594000000E+02  0.51100000000E-03 0.  1.
    9900012    2    1    2    0    0 -0.28253892586E+02 -0.29018859209E+01  0.14491908720E+02  0.59301971610E+02  0.50000050304E+02 0.  0.
        -12    1    1    2    0    0  0.28253892586E+02  0.29018859209E+01 -0.14491908720E+02  0.31886028390E+02  0.00000000000E+00 0.  1.
         11    1    3    3    0    0  0.71015637899E+01  0.38475348300E+00 -0.97242523560E+00  0.71781511969E+01  0.51100000000E-03 0.  1.
        -11    1    3    3    0    0 -0.10522656385E+02 -0.83027497350E+01  0.22179062409E+02  0.25914720916E+02  0.51100000000E-03 0. -1.
        -12    1    3    3    0    0 -0.24832799991E+02  0.50161103311E+01 -0.67147284537E+01  0.26209099497E+02  0.00000000000E+00 0.  1.
</event>
<event>
 7    1  0.6198176E-013  0.5930193E+02  0.7816164E-02  0.1266605E+00
        -11   -1    0    0    0    0  0.00000000000E+00  0.00000000000E+00  0.45593999997E+02  0.45594000000E+02  0.51100000000E-03 0. -1.
         11   -1    0    0    0    0 -0.00000000000E+00 -0.00000000000E+00 -0.45593999997E+02  0.45594000000E+02  0.51100000000E-03 0.  1.
    9900012    2    1    2    0    0  0.38442719062E+01 -0.15004592671E+02 -0.27871230139E+02  0.59301926282E+02  0.49999967635E+02 0.  0.
        -12    1    1    2    0    0 -0.38442719062E+01  0.15004592671E+02  0.27871230139E+02  0.31886073718E+02  0.00000000000E+00 0.  1.
         11    1    3    3    0    0 -0.25745894310E+01 -0.12578789090E+02  0.31779548797E+01  0.13227011877E+02  0.51100000000E-03 0. -1.
        -11    1    3    3    0    0 -0.10808899252E+02 -0.78123900500E+01 -0.22376088508E+02  0.26049089783E+02  0.51100000000E-03 0.  1.
         12    1    3    3    0    0  0.17227760589E+02  0.53865864691E+01 -0.86730965105E+01  0.20025824622E+02  0.00000000000E+00 0. -1.
</event>
<event>
 7    1  0.9169316E-013  0.5930194E+02  0.7816164E-02  0.1266605E+00
        -11   -1    0    0    0    0  0.00000000000E+00  0.00000000000E+00  0.45593999997E+02  0.45594000000E+02  0.51100000000E-03 0. -1.
         11   -1    0    0    0    0 -0.00000000000E+00 -0.00000000000E+00 -0.45593999997E+02  0.45594000000E+02  0.51100000000E-03 0.  1.
    9900012    2    1    2    0    0 -0.76355197384E+01 -0.19389216234E+02  0.24134584520E+02  0.59301936621E+02  0.49999986493E+02 0.  0.
        -12    1    1    2    0    0  0.76355197384E+01  0.19389216234E+02 -0.24134584520E+02  0.31886063379E+02  0.00000000000E+00 0.  1.
         11    1    3    3    0    0  0.10889136033E+02  0.20335827348E+01  0.14917858988E+02  0.18580938064E+02  0.51100000000E-03 0. -1.
        -11    1    3    3    0    0 -0.61744817412E+01 -0.22028915572E+02  0.14701261777E+02  0.27194198723E+02  0.51100000000E-03 0.  1.
        -12    1    3    3    0    0 -0.12350174031E+02  0.60611660401E+00 -0.54845362458E+01  0.13526799834E+02  0.00000000000E+00 0.  1.
</event>
<event>
 7    1  0.6198176E-013  0.5930192E+02  0.7816164E-02  0.1266605E+00
        -11   -1    0    0    0    0  0.00000000000E+00  0.00000000000E+00  0.45593999997E+02  0.45594000000E+02  0.51100000000E-03 0.  1.
         11   -1    0    0    0    0 -0.00000000000E+00 -0.00000000000E+00 -0.45593999997E+02  0.45594000000E+02  0.51100000000E-03 0. -1.
    9900012    2    1    2    0    0  0.34805595487E+01 -0.31132603643E+02  0.59471649271E+01  0.59301920357E+02  0.49999956829E+02 0.  0.
        -12    1    1    2    0    0 -0.34805595487E+01  0.31132603643E+02 -0.59471649271E+01  0.31886079643E+02  0.00000000000E+00 0.  1.
         11    1    3    3    0    0 -0.55382683180E+01  0.64366920360E+01 -0.61800566488E-01  0.84915981946E+01  0.51100000000E-03 0. -1.
        -11    1    3    3    0    0  0.36450399308E+01 -0.67422095364E+01  0.16182765004E+02  0.17906021025E+02  0.51100000000E-03 0.  1.
         12    1    3    3    0    0  0.53737879359E+01 -0.30827086142E+02 -0.10173799510E+02  0.32904301137E+02  0.00000000000E+00 0. -1.
</event>
<event>
 7    1  0.6198176E-013  0.5930195E+02  0.7816164E-02  0.1266605E+00
        -11   -1    0    0    0    0  0.00000000000E+00  0.00000000000E+00  0.45593999997E+02  0.45594000000E+02  0.51100000000E-03 0.  1.
         11   -1    0    0    0    0 -0.00000000000E+00 -0.00000000000E+00 -0.45593999997E+02  0.45594000000E+02  0.51100000000E-03 0. -1.
    9900012    2    1    2    0    0  0.23434353155E+02 -0.44994431440E+01 -0.21149615043E+02  0.59301951125E+02  0.50000012944E+02 0.  0.
        -12    1    1    2    0    0 -0.23434353155E+02  0.44994431440E+01  0.21149615043E+02  0.31886048875E+02  0.00000000000E+00 0.  1.
         11    1    3    3    0    0  0.23389828829E+02  0.70784320149E+01 -0.24717480028E+02  0.34758338735E+02  0.51100000000E-03 0. -1.
        -11    1    3    3    0    0  0.36193875748E+01  0.33377179846E+01  0.72557425251E+01  0.87684735053E+01  0.51100000000E-03 0.  1.
        -12    1    3    3    0    0 -0.35748632490E+01 -0.14915593143E+02 -0.36878775403E+01  0.15775138884E+02  0.00000000000E+00 0.  1.
</event>
<event>
 7    1  0.6198176E-013  0.5930196E+02  0.7816164E-02  0.1266605E+00
        -11   -1    0    0    0    0  0.00000000000E+00  0.00000000000E+00  0.45593999997E+02  0.45594000000E+02  0.51100000000E-03 0.  1.
         11   -1    0    0    0    0 -0.00000000000E+00 -0.00000000000E+00 -0.45593999997E+02  0.45594000000E+02  0.51100000000E-03 0. -1.
    9900012    2    1    2    0    0 -0.83538953299E+01  0.26637130808E+02 -0.15407639627E+02  0.59301958168E+02  0.50000025788E+02 0.  0.
        -12    1    1    2    0    0  0.83538953299E+01 -0.26637130808E+02  0.15407639627E+02  0.31886041832E+02  0.00000000000E+00 0.  1.
         11    1    3    3    0    0  0.42145435941E+01 -0.51746073577E+01  0.23224733415E+01  0.70663159918E+01  0.51100000000E-03 0. -1.
        -11    1    3    3    0    0  0.11698150503E+02  0.46456084528E+01 -0.29690539460E+01  0.12932272989E+02  0.51100000000E-03 0.  1.
         12    1    3    3    0    0 -0.24266589427E+02  0.27166129713E+02 -0.14761059022E+02  0.39303369187E+02  0.00000000000E+00 0. -1.
</event>
<event>
 7    1  0.6198176E-013  0.5930195E+02  0.7816164E-02  0.1266605E+00
        -11   -1    0    0    0    0  0.00000000000E+00  0.00000000000E+00  0.45593999997E+02  0.45594000000E+02  0.51100000000E-03 0.  1.
         11   -1    0    0    0    0 -0.00000000000E+00 -0.00000000000E+00 -0.45593999997E+02  0.45594000000E+02  0.51100000000E-03 0. -1.
    9900012    2    1    2    0    0  0.35108526996E+01  0.18139222054E+02 -0.25987742359E+02  0.59301949503E+02  0.50000009985E+02 0.  0.
        -12    1    1    2    0    0 -0.35108526996E+01 -0.18139222054E+02  0.25987742359E+02  0.31886050497E+02  0.00000000000E+00 0.  1.
         11    1    3    3    0    0  0.48318979451E+01  0.12245152911E+02  0.53124620674E+01  0.14195536659E+02  0.51100000000E-03 0. -1.
        -11    1    3    3    0    0  0.12152635470E+02  0.53455988364E+01 -0.27876757274E+01  0.13565880437E+02  0.51100000000E-03 0.  1.
        -12    1    3    3    0    0 -0.13473680716E+02  0.54847030649E+00 -0.28512528699E+02  0.31540532407E+02  0.00000000000E+00 0.  1.
</event>
<event>
 7    1  0.6198176E-013  0.5930194E+02  0.7816164E-02  0.1266605E+00
        -11   -1    0    0    0    0  0.00000000000E+00  0.00000000000E+00  0.45593999997E+02  0.45594000000E+02  0.51100000000E-03 0. -1.
         11   -1    0    0    0    0 -0.00000000000E+00 -0.00000000000E+00 -0.45593999997E+02  0.45594000000E+02  0.51100000000E-03 0.  1.
    9900012    2    1    2    0    0 -0.27029112897E+01  0.25206767943E+02  0.19339951752E+02  0.59301943277E+02  0.49999998631E+02 0.  0.
        -12    1    1    2    0    0  0.27029112897E+01 -0.25206767943E+02 -0.19339951752E+02  0.31886056723E+02  0.00000000000E+00 0.  1.
         11    1    3    3    0    0 -0.42795934211E+01 -0.84224202888E+01  0.14867680081E+02  0.17615334076E+02  0.51100000000E-03 0. -1.
        -11    1    3    3    0    0 -0.77880990176E+01  0.39012118783E+01 -0.37016906185E+01  0.94644838277E+01  0.51100000000E-03 0.  1.
        -12    1    3    3    0    0  0.93647811491E+01  0.29727976353E+02  0.81739622899E+01  0.32222125373E+02  0.00000000000E+00 0.  1.
</event>
<event>
 7    1  0.6198176E-013  0.5930193E+02  0.7816164E-02  0.1266605E+00
        -11   -1    0    0    0    0  0.00000000000E+00  0.00000000000E+00  0.45593999997E+02  0.45594000000E+02  0.51100000000E-03 0. -1.
         11   -1    0    0    0    0 -0.00000000000E+00 -0.00000000000E+00 -0.45593999997E+02  0.45594000000E+02  0.51100000000E-03 0.  1.
    9900012    2    1    2    0    0 -0.23181048848E+02  0.13112004328E+02  0.17533841603E+02  0.59301932752E+02  0.49999979436E+02 0.  0.
        -12    1    1    2    0    0  0.23181048848E+02 -0.13112004328E+02 -0.17533841603E+02  0.31886067248E+02  0.00000000000E+00 0.  1.
         11    1    3    3    0    0 -0.27687762197E+00  0.28328320783E+01  0.46684910420E+01  0.54677607548E+01  0.51100000000E-03 0. -1.
        -11    1    3    3    0    0 -0.35663074617E+02  0.48061328044E+01  0.17127753663E+01  0.36026204399E+02  0.51100000000E-03 0.  1.
         12    1    3    3    0    0  0.12758903391E+02  0.54730394452E+01  0.11152575195E+02  0.17807967598E+02  0.00000000000E+00 0. -1.
</event>
<event>
 7    1  0.6198176E-013  0.5930195E+02  0.7816164E-02  0.1266605E+00
        -11   -1    0    0    0    0  0.00000000000E+00  0.00000000000E+00  0.45593999997E+02  0.45594000000E+02  0.51100000000E-03 0.  1.
         11   -1    0    0    0    0 -0.00000000000E+00 -0.00000000000E+00 -0.45593999997E+02  0.45594000000E+02  0.51100000000E-03 0. -1.
    9900012    2    1    2    0    0 -0.26403428425E+02  0.53858672722E+00 -0.17868662885E+02  0.59301949421E+02  0.50000009836E+02 0.  0.
        -12    1    1    2    0    0  0.26403428425E+02 -0.53858672722E+00  0.17868662885E+02  0.31886050579E+02  0.00000000000E+00 0.  1.
         11    1    3    3    0    0  0.51203962208E+01  0.54686885469E+01 -0.32353933915E+01  0.81604400947E+01  0.51100000000E-03 0. -1.
        -11    1    3    3    0    0 -0.46313402253E+01  0.88745475754E+01  0.84557398844E+01  0.13103680559E+02  0.51100000000E-03 0.  1.
         12    1    3    3    0    0 -0.26892484420E+02 -0.13804649395E+02 -0.23089009378E+02  0.38037828767E+02  0.00000000000E+00 0. -1.
</event>
<event>
 7    1  0.6198176E-013  0.5930196E+02  0.7816164E-02  0.1266605E+00
        -11   -1    0    0    0    0  0.00000000000E+00  0.00000000000E+00  0.45593999997E+02  0.45594000000E+02  0.51100000000E-03 0.  1.
         11   -1    0    0    0    0 -0.00000000000E+00 -0.00000000000E+00 -0.45593999997E+02  0.45594000000E+02  0.51100000000E-03 0. -1.
    9900012    2    1    2    0    0 -0.94744598320E+00 -0.31774208396E+02  0.24942888857E+01  0.59301961517E+02  0.50000031897E+02 0.  0.
        -12    1    1    2    0    0  0.94744598320E+00  0.31774208396E+02 -0.24942888857E+01  0.31886038483E+02  0.00000000000E+00 0.  1.
         11    1    3    3    0    0  0.75186446341E+01  0.18661117993E+01 -0.10809493721E+01  0.78218183428E+01  0.51100000000E-03 0. -1.
        -11    1    3    3    0    0  0.81791666127E+00 -0.34640019480E+01  0.16856528669E+02  0.17228199447E+02  0.51100000000E-03 0.  1.
         12    1    3    3    0    0 -0.92840072786E+01 -0.30176318247E+02 -0.13281290411E+02  0.34251943727E+02  0.00000000000E+00 0. -1.
</event>
<event>
 7    1  0.6198176E-013  0.5930199E+02  0.7816164E-02  0.1266605E+00
        -11   -1    0    0    0    0  0.00000000000E+00  0.00000000000E+00  0.45593999997E+02  0.45594000000E+02  0.51100000000E-03 0.  1.
         11   -1    0    0    0    0 -0.00000000000E+00 -0.00000000000E+00 -0.45593999997E+02  0.45594000000E+02  0.51100000000E-03 0. -1.
    9900012    2    1    2    0    0 -0.30015446102E+02  0.73710718321E+01 -0.78395032572E+01  0.59301991846E+02  0.50000087210E+02 0.  0.
        -12    1    1    2    0    0  0.30015446102E+02 -0.73710718321E+01  0.78395032572E+01  0.31886008154E+02  0.00000000000E+00 0.  1.
         11    1    3    3    0    0 -0.97801208982E+01 -0.11252579507E+02 -0.10904350364E+02  0.18470954699E+02  0.51100000000E-03 0. -1.
        -11    1    3    3    0    0 -0.14646068880E+02 -0.22815679621E+00  0.12281417217E+02  0.19115245179E+02  0.51100000000E-03 0.  1.
        -12    1    3    3    0    0 -0.55892563242E+01  0.18851808135E+02 -0.92165701097E+01  0.21715791969E+02  0.00000000000E+00 0.  1.
</event>
<event>
 7    1  0.6198176E-013  0.5930189E+02  0.7816164E-02  0.1266605E+00
        -11   -1    0    0    0    0  0.00000000000E+00  0.00000000000E+00  0.45593999997E+02  0.45594000000E+02  0.51100000000E-03 0. -1.
         11   -1    0    0    0    0 -0.00000000000E+00 -0.00000000000E+00 -0.45593999997E+02  0.45594000000E+02  0.51100000000E-03 0.  1.
    9900012    2    1    2    0    0  0.19805686671E+02  0.11211655100E+02 -0.22332878640E+02  0.59301891693E+02  0.49999904554E+02 0.  0.
        -12    1    1    2    0    0 -0.19805686671E+02 -0.11211655100E+02  0.22332878640E+02  0.31886108307E+02  0.00000000000E+00 0.  1.
         11    1    3    3    0    0  0.55723869533E+01  0.64247233392E+01 -0.23915502647E+02  0.25382667974E+02  0.51100000000E-03 0. -1.
        -11    1    3    3    0    0 -0.16780287312E+01  0.10942869719E+02 -0.86285907070E+01  0.14036194497E+02  0.51100000000E-03 0.  1.
         12    1    3    3    0    0  0.15911328449E+02 -0.61559379575E+01  0.10211214714E+02  0.19883029223E+02  0.00000000000E+00 0. -1.
</event>
<event>
 7    1  0.6198176E-013  0.5930197E+02  0.7816164E-02  0.1266605E+00
        -11   -1    0    0    0    0  0.00000000000E+00  0.00000000000E+00  0.45593999997E+02  0.45594000000E+02  0.51100000000E-03 0. -1.
         11   -1    0    0    0    0 -0.00000000000E+00 -0.00000000000E+00 -0.45593999997E+02  0.45594000000E+02  0.51100000000E-03 0.  1.
    9900012    2    1    2    0    0 -0.24871704665E+02 -0.10014032733E+02  0.17257932169E+02  0.59301972225E+02  0.50000051424E+02 0.  0.
        -12    1    1    2    0    0  0.24871704665E+02  0.10014032733E+02 -0.17257932169E+02  0.31886027775E+02  0.00000000000E+00 0.  1.
         11    1    3    3    0    0 -0.17377863249E+02 -0.95541454036E+01  0.27939410772E+02  0.34261968713E+02  0.51100000000E-03 0. -1.
        -11    1    3    3    0    0 -0.14033875760E+01 -0.10292846736E+02 -0.20020182152E+01  0.10579237582E+02  0.51100000000E-03 0.  1.
        -12    1    3    3    0    0 -0.60904538401E+01  0.98329594061E+01 -0.86794603880E+01  0.14460765930E+02  0.00000000000E+00 0.  1.
</event>
<event>
 7    1  0.6198176E-013  0.5930195E+02  0.7816164E-02  0.1266605E+00
        -11   -1    0    0    0    0  0.00000000000E+00  0.00000000000E+00  0.45593999997E+02  0.45594000000E+02  0.51100000000E-03 0. -1.
         11   -1    0    0    0    0 -0.00000000000E+00 -0.00000000000E+00 -0.45593999997E+02  0.45594000000E+02  0.51100000000E-03 0.  1.
    9900012    2    1    2    0    0  0.24766513938E+02 -0.33305396828E+01  0.19805236061E+02  0.59301951599E+02  0.50000013808E+02 0.  0.
        -12    1    1    2    0    0 -0.24766513938E+02  0.33305396828E+01 -0.19805236061E+02  0.31886048401E+02  0.00000000000E+00 0.  1.
         11    1    3    3    0    0  0.24592027187E+02  0.11916499850E+02  0.12300978999E+02  0.29968063909E+02  0.51100000000E-03 0. -1.
        -11    1    3    3    0    0 -0.26405951161E+00  0.65168339245E+01  0.88815847226E+00  0.65823762851E+01  0.51100000000E-03 0.  1.
         12    1    3    3    0    0  0.43854626181E+00 -0.21763873457E+02  0.66160985891E+01  0.22751511405E+02  0.00000000000E+00 0. -1.
</event>
<event>
 7    1  0.6198176E-013  0.5930193E+02  0.7816164E-02  0.1266605E+00
        -11   -1    0    0    0    0  0.00000000000E+00  0.00000000000E+00  0.45593999997E+02  0.45594000000E+02  0.51100000000E-03 0. -1.
         11   -1    0    0    0    0 -0.00000000000E+00 -0.00000000000E+00 -0.45593999997E+02  0.45594000000E+02  0.51100000000E-03 0.  1.
    9900012    2    1    2    0    0 -0.27981945396E+02 -0.98951086348E+01 -0.11654135014E+02  0.59301932416E+02  0.49999978822E+02 0.  0.
        -12    1    1    2    0    0  0.27981945396E+02  0.98951086348E+01  0.11654135014E+02  0.31886067584E+02  0.00000000000E+00 0.  1.
         11    1    3    3    0    0 -0.22434169375E+02 -0.43055832057E+01 -0.92412386143E+01  0.24642047271E+02  0.51100000000E-03 0. -1.
        -11    1    3    3    0    0  0.34438700820E+01 -0.18454215540E+02  0.46262826556E-01  0.18772864801E+02  0.51100000000E-03 0.  1.
        -12    1    3    3    0    0 -0.89916461029E+01  0.12864690111E+02 -0.24591592265E+01  0.15887020343E+02  0.00000000000E+00 0.  1.
</event>
<event>
 7    1  0.6198176E-013  0.5930193E+02  0.7816164E-02  0.1266605E+00
        -11   -1    0    0    0    0  0.00000000000E+00  0.00000000000E+00  0.45593999997E+02  0.45594000000E+02  0.51100000000E-03 0.  1.
         11   -1    0    0    0    0 -0.00000000000E+00 -0.00000000000E+00 -0.45593999997E+02  0.45594000000E+02  0.51100000000E-03 0. -1.
    9900012    2    1    2    0    0  0.39777439347E+01 -0.15542917075E+02 -0.27555697386E+02  0.59301934447E+02  0.49999982528E+02 0.  0.
        -12    1    1    2    0    0 -0.39777439347E+01  0.15542917075E+02  0.27555697386E+02  0.31886065553E+02  0.00000000000E+00 0.  1.
         11    1    3    3    0    0 -0.12805637619E+02  0.11901596317E+01  0.36062958927E+01  0.13356878569E+02  0.51100000000E-03 0. -1.
        -11    1    3    3    0    0  0.11002830015E+02 -0.15762421716E+01 -0.34639187257E+00  0.11120557330E+02  0.51100000000E-03 0.  1.
         12    1    3    3    0    0  0.57805515380E+01 -0.15156834535E+02 -0.30815601406E+02  0.34824498549E+02  0.00000000000E+00 0. -1.
</event>
<event>
 7    1  0.6198176E-013  0.5930195E+02  0.7816164E-02  0.1266605E+00
        -11   -1    0    0    0    0  0.00000000000E+00  0.00000000000E+00  0.45593999997E+02  0.45594000000E+02  0.51100000000E-03 0. -1.
         11   -1    0    0    0    0 -0.00000000000E+00 -0.00000000000E+00 -0.45593999997E+02  0.45594000000E+02  0.51100000000E-03 0.  1.
    9900012    2    1    2    0    0 -0.17021972527E+02 -0.25210759185E+02  0.95598307991E+01  0.59301948311E+02  0.50000007812E+02 0.  0.
        -12    1    1    2    0    0  0.17021972527E+02  0.25210759185E+02 -0.95598307991E+01  0.31886051689E+02  0.00000000000E+00 0.  1.
         11    1    3    3    0    0  0.13635123652E+02 -0.14638066993E+02 -0.28160326239E+01  0.20201971248E+02  0.51100000000E-03 0. -1.
        -11    1    3    3    0    0 -0.33186146566E+01 -0.63024980209E+01  0.86108470359E+01  0.11175033399E+02  0.51100000000E-03 0.  1.
        -12    1    3    3    0    0 -0.27338481523E+02 -0.42701941709E+01  0.37650163870E+01  0.27924943664E+02  0.00000000000E+00 0.  1.
</event>
<event>
 7    1  0.6198176E-013  0.5930193E+02  0.7816164E-02  0.1266605E+00
        -11   -1    0    0    0    0  0.00000000000E+00  0.00000000000E+00  0.45593999997E+02  0.45594000000E+02  0.51100000000E-03 0.  1.
         11   -1    0    0    0    0 -0.00000000000E+00 -0.00000000000E+00 -0.45593999997E+02  0.45594000000E+02  0.51100000000E-03 0. -1.
    9900012    2    1    2    0    0 -0.15608118244E+02 -0.15692636958E+02 -0.22953202103E+02  0.59301926291E+02  0.49999967653E+02 0.  0.
        -12    1    1    2    0    0  0.15608118244E+02  0.15692636958E+02  0.22953202103E+02  0.31886073709E+02  0.00000000000E+00 0.  1.
         11    1    3    3    0    0 -0.31903373416E+01 -0.32863061577E+01  0.17658616427E+01  0.49088010876E+01  0.51100000000E-03 0. -1.
        -11    1    3    3    0    0  0.16876162216E+02 -0.72366585684E+00 -0.78341070069E+01  0.18619929545E+02  0.51100000000E-03 0.  1.
        -12    1    3    3    0    0 -0.29293943118E+02 -0.11682664943E+02 -0.16884956738E+02  0.35773195659E+02  0.00000000000E+00 0.  1.
</event>
<event>
 7    1  0.6198176E-013  0.5930198E+02  0.7816164E-02  0.1266605E+00
        -11   -1    0    0    0    0  0.00000000000E+00  0.00000000000E+00  0.45593999997E+02  0.45594000000E+02  0.51100000000E-03 0.  1.
         11   -1    0    0    0    0 -0.00000000000E+00 -0.00000000000E+00 -0.45593999997E+02  0.45594000000E+02  0.51100000000E-03 0. -1.
    9900012    2    1    2    0    0  0.25338482273E+02 -0.77425961725E+01 -0.17740683615E+02  0.59301979011E+02  0.50000063800E+02 0.  0.
        -12    1    1    2    0    0 -0.25338482273E+02  0.77425961725E+01  0.17740683615E+02  0.31886020989E+02  0.00000000000E+00 0.  1.
         11    1    3    3    0    0  0.15152238993E+02  0.28356367469E+01  0.64409778034E+01  0.16706806325E+02  0.51100000000E-03 0. -1.
        -11    1    3    3    0    0  0.23876299163E+01  0.96259575005E+01  0.28318034470E+00  0.99216947034E+01  0.51100000000E-03 0.  1.
         12    1    3    3    0    0  0.77986133636E+01 -0.20204190420E+02 -0.24464841763E+02  0.32673477982E+02  0.00000000000E+00 0. -1.
</event>
<event>
 7    1  0.6198176E-013  0.5930193E+02  0.7816164E-02  0.1266605E+00
        -11   -1    0    0    0    0  0.00000000000E+00  0.00000000000E+00  0.45593999997E+02  0.45594000000E+02  0.51100000000E-03 0.  1.
         11   -1    0    0    0    0 -0.00000000000E+00 -0.00000000000E+00 -0.45593999997E+02  0.45594000000E+02  0.51100000000E-03 0. -1.
    9900012    2    1    2    0    0  0.24836223704E+02 -0.14740194966E+02  0.13513327384E+02  0.59301931373E+02  0.49999976920E+02 0.  0.
        -12    1    1    2    0    0 -0.24836223704E+02  0.14740194966E+02 -0.13513327384E+02  0.31886068627E+02  0.00000000000E+00 0.  1.
         11    1    3    3    0    0  0.12056648766E+02 -0.18153895223E+02 -0.10490876081E+02  0.24186466721E+02  0.51100000000E-03 0. -1.
        -11    1    3    3    0    0  0.38796105638E+01 -0.92760063191E+01  0.81421858652E+01  0.12937962061E+02  0.51100000000E-03 0.  1.
        -12    1    3    3    0    0  0.88999643737E+01  0.12689706576E+02  0.15862017600E+02  0.22177502591E+02  0.00000000000E+00 0.  1.
</event>
<event>
 7    1  0.6198176E-013  0.5930195E+02  0.7816164E-02  0.1266605E+00
        -11   -1    0    0    0    0  0.00000000000E+00  0.00000000000E+00  0.45593999997E+02  0.45594000000E+02  0.51100000000E-03 0.  1.
         11   -1    0    0    0    0 -0.00000000000E+00 -0.00000000000E+00 -0.45593999997E+02  0.45594000000E+02  0.51100000000E-03 0. -1.
    9900012    2    1    2    0    0 -0.23374423552E+01  0.21983805442E+02 -0.22977568662E+02  0.59301952893E+02  0.50000016169E+02 0.  0.
        -12    1    1    2    0    0  0.23374423552E+01 -0.21983805442E+02  0.22977568662E+02  0.31886047107E+02  0.00000000000E+00 0.  1.
         11    1    3    3    0    0 -0.96277990786E+00  0.81388719205E+01  0.28073998182E+01  0.86631215673E+01  0.51100000000E-03 0. -1.
        -11    1    3    3    0    0  0.66072492382E+01  0.32909088086E+01  0.10032390068E+02  0.12455307062E+02  0.51100000000E-03 0.  1.
         12    1    3    3    0    0 -0.79819116856E+01  0.10554024713E+02 -0.35817358548E+02  0.38183524263E+02  0.00000000000E+00 0. -1.
</event>
<event>
 7    1  0.6198176E-013  0.5930196E+02  0.7816164E-02  0.1266605E+00
        -11   -1    0    0    0    0  0.00000000000E+00  0.00000000000E+00  0.45593999997E+02  0.45594000000E+02  0.51100000000E-03 0.  1.
         11   -1    0    0    0    0 -0.00000000000E+00 -0.00000000000E+00 -0.45593999997E+02  0.45594000000E+02  0.51100000000E-03 0. -1.
    9900012    2    1    2    0    0 -0.17860371363E+02 -0.23825278014E+02  0.11405375617E+02  0.59301963392E+02  0.50000035315E+02 0.  0.
        -12    1    1    2    0    0  0.17860371363E+02  0.23825278014E+02 -0.11405375617E+02  0.31886036608E+02  0.00000000000E+00 0.  1.
         11    1    3    3    0    0 -0.35989684246E+01 -0.13418099573E+02 -0.59727984858E+01  0.15121914293E+02  0.51100000000E-03 0. -1.
        -11    1    3    3    0    0 -0.39021569006E+01 -0.73059222944E+01  0.27893231956E+02  0.29097005314E+02  0.51100000000E-03 0.  1.
         12    1    3    3    0    0 -0.10359246037E+02 -0.31012561465E+01 -0.10515057853E+02  0.15083043785E+02  0.00000000000E+00 0. -1.
</event>
<event>
 7    1  0.6198176E-013  0.5930195E+02  0.7816164E-02  0.1266605E+00
        -11   -1    0    0    0    0  0.00000000000E+00  0.00000000000E+00  0.45593999997E+02  0.45594000000E+02  0.51100000000E-03 0.  1.
         11   -1    0    0    0    0 -0.00000000000E+00 -0.00000000000E+00 -0.45593999997E+02  0.45594000000E+02  0.51100000000E-03 0. -1.
    9900012    2    1    2    0    0  0.45597842506E+01  0.10276370024E+02 -0.29838314527E+02  0.59301946198E+02  0.50000003957E+02 0.  0.
        -12    1    1    2    0    0 -0.45597842506E+01 -0.10276370024E+02  0.29838314527E+02  0.31886053802E+02  0.00000000000E+00 0.  1.
         11    1    3    3    0    0  0.77259886542E+01 -0.46063450705E+00  0.91600644135E+01  0.11992075098E+02  0.51100000000E-03 0.  1.
        -11    1    3    3    0    0 -0.67290755437E+01  0.98988542144E+01 -0.47676708388E+01  0.12884038882E+02  0.51100000000E-03 0. -1.
        -12    1    3    3    0    0  0.35628711401E+01  0.83815031693E+00 -0.34230708102E+02  0.34425832217E+02  0.00000000000E+00 0.  1.
</event>
<event>
 7    1  0.6198176E-013  0.5930193E+02  0.7816164E-02  0.1266605E+00
        -11   -1    0    0    0    0  0.00000000000E+00  0.00000000000E+00  0.45593999997E+02  0.45594000000E+02  0.51100000000E-03 0. -1.
         11   -1    0    0    0    0 -0.00000000000E+00 -0.00000000000E+00 -0.45593999997E+02  0.45594000000E+02  0.51100000000E-03 0.  1.
    9900012    2    1    2    0    0 -0.15488319206E+02  0.77856831692E+01  0.26762217461E+02  0.59301934428E+02  0.49999982493E+02 0.  0.
        -12    1    1    2    0    0  0.15488319206E+02 -0.77856831692E+01 -0.26762217461E+02  0.31886065572E+02  0.00000000000E+00 0.  1.
         11    1    3    3    0    0  0.84454425151E+01 -0.11418864559E+02  0.15637445564E+02  0.21124527714E+02  0.51100000000E-03 0. -1.
        -11    1    3    3    0    0 -0.16106925477E+02  0.37653909509E+00  0.55263141488E+01  0.17032761912E+02  0.51100000000E-03 0.  1.
        -12    1    3    3    0    0 -0.78268362436E+01  0.18828008633E+02  0.55984577475E+01  0.21144644803E+02  0.00000000000E+00 0.  1.
</event>
<event>
 7    1  0.6198176E-013  0.5930194E+02  0.7816164E-02  0.1266605E+00
        -11   -1    0    0    0    0  0.00000000000E+00  0.00000000000E+00  0.45593999997E+02  0.45594000000E+02  0.51100000000E-03 0.  1.
         11   -1    0    0    0    0 -0.00000000000E+00 -0.00000000000E+00 -0.45593999997E+02  0.45594000000E+02  0.51100000000E-03 0. -1.
    9900012    2    1    2    0    0  0.11015116143E+02 -0.15119916065E+02 -0.25822008591E+02  0.59301940771E+02  0.49999994061E+02 0.  0.
        -12    1    1    2    0    0 -0.11015116143E+02  0.15119916065E+02  0.25822008591E+02  0.31886059229E+02  0.00000000000E+00 0.  1.
         11    1    3    3    0    0 -0.31368157754E+01 -0.52203631484E+01 -0.28289228770E+01  0.67152520068E+01  0.51100000000E-03 0. -1.
        -11    1    3    3    0    0  0.23968183826E+02  0.58075798849E+01 -0.23489011767E+02  0.34057825739E+02  0.51100000000E-03 0.  1.
         12    1    3    3    0    0 -0.98162519078E+01 -0.15707132802E+02  0.49592605219E+00  0.18528863025E+02  0.00000000000E+00 0. -1.
</event>
<event>
 7    1  0.6198176E-013  0.5930193E+02  0.7816164E-02  0.1266605E+00
        -11   -1    0    0    0    0  0.00000000000E+00  0.00000000000E+00  0.45593999997E+02  0.45594000000E+02  0.51100000000E-03 0. -1.
         11   -1    0    0    0    0 -0.00000000000E+00 -0.00000000000E+00 -0.45593999997E+02  0.45594000000E+02  0.51100000000E-03 0.  1.
    9900012    2    1    2    0    0  0.15929948069E+02  0.23290135674E+02  0.14850182959E+02  0.59301927819E+02  0.49999970440E+02 0.  0.
        -12    1    1    2    0    0 -0.15929948069E+02 -0.23290135674E+02 -0.14850182959E+02  0.31886072181E+02  0.00000000000E+00 0.  1.
         11    1    3    3    0    0  0.68967999369E+01  0.19615207991E+01 -0.48684204393E+01  0.86668870449E+01  0.51100000000E-03 0. -1.
        -11    1    3    3    0    0  0.97496903279E+01 -0.95152827585E+01 -0.69445475924E+00  0.13641089954E+02  0.51100000000E-03 0.  1.
         12    1    3    3    0    0 -0.71654219558E+00  0.30843897634E+02  0.20413058157E+02  0.36993950820E+02  0.00000000000E+00 0. -1.
</event>
<event>
 7    1  0.6198176E-013  0.5930193E+02  0.7816164E-02  0.1266605E+00
        -11   -1    0    0    0    0  0.00000000000E+00  0.00000000000E+00  0.45593999997E+02  0.45594000000E+02  0.51100000000E-03 0. -1.
         11   -1    0    0    0    0 -0.00000000000E+00 -0.00000000000E+00 -0.45593999997E+02  0.45594000000E+02  0.51100000000E-03 0.  1.
    9900012    2    1    2    0    0 -0.23745033407E+02 -0.11566679220E+02  0.17863552330E+02  0.59301934368E+02  0.49999982382E+02 0.  0.
        -12    1    1    2    0    0  0.23745033407E+02  0.11566679220E+02 -0.17863552330E+02  0.31886065632E+02  0.00000000000E+00 0.  1.
         11    1    3    3    0    0 -0.25025372334E+02 -0.92328473285E+01  0.82658742307E+01  0.27925604869E+02  0.51100000000E-03 0. -1.
        -11    1    3    3    0    0 -0.10856821156E+01 -0.94890414743E+01 -0.78549307980E+01  0.12366104959E+02  0.51100000000E-03 0.  1.
         12    1    3    3    0    0  0.23660210420E+01  0.71552095827E+01  0.17452608897E+02  0.19010224540E+02  0.00000000000E+00 0. -1.
</event>
<event>
 7    1  0.6198176E-013  0.5930196E+02  0.7816164E-02  0.1266605E+00
        -11   -1    0    0    0    0  0.00000000000E+00  0.00000000000E+00  0.45593999997E+02  0.45594000000E+02  0.51100000000E-03 0. -1.
         11   -1    0    0    0    0 -0.00000000000E+00 -0.00000000000E+00 -0.45593999997E+02  0.45594000000E+02  0.51100000000E-03 0.  1.
    9900012    2    1    2    0    0  0.57836468145E+01 -0.22921368722E+02  0.21398127827E+02  0.59301959339E+02  0.50000027923E+02 0.  0.
        -12    1    1    2    0    0 -0.57836468145E+01  0.22921368722E+02 -0.21398127827E+02  0.31886040661E+02  0.00000000000E+00 0.  1.
         11    1    3    3    0    0  0.13698181723E+01  0.14889437059E+01  0.13683203471E+02  0.13831970672E+02  0.51100000000E-03 0. -1.
        -11    1    3    3    0    0  0.11534947226E+02 -0.27212390214E+02  0.16475262397E+02  0.33837899757E+02  0.51100000000E-03 0.  1.
        -12    1    3    3    0    0 -0.71211185842E+01  0.28020777859E+01 -0.87603380408E+01  0.11632088909E+02  0.00000000000E+00 0.  1.
</event>
<event>
 7    1  0.6198176E-013  0.5930194E+02  0.7816164E-02  0.1266605E+00
        -11   -1    0    0    0    0  0.00000000000E+00  0.00000000000E+00  0.45593999997E+02  0.45594000000E+02  0.51100000000E-03 0.  1.
         11   -1    0    0    0    0 -0.00000000000E+00 -0.00000000000E+00 -0.45593999997E+02  0.45594000000E+02  0.51100000000E-03 0. -1.
    9900012    2    1    2    0    0  0.25339429820E+02 -0.10182464802E+02 -0.16460613914E+02  0.59301935591E+02  0.49999984614E+02 0.  0.
        -12    1    1    2    0    0 -0.25339429820E+02  0.10182464802E+02  0.16460613914E+02  0.31886064409E+02  0.00000000000E+00 0.  1.
         11    1    3    3    0    0  0.16519002832E+02  0.46779993902E-01 -0.30623037447E+02  0.34794397044E+02  0.51100000000E-03 0. -1.
        -11    1    3    3    0    0 -0.22041002047E+01  0.16793745846E+01 -0.27775882383E+00  0.27848710801E+01  0.51100000000E-03 0.  1.
         12    1    3    3    0    0  0.11024527193E+02 -0.11908619380E+02  0.14440182357E+02  0.21722667467E+02  0.00000000000E+00 0. -1.
</event>
<event>
 7    1  0.6198176E-013  0.5930192E+02  0.7816164E-02  0.1266605E+00
        -11   -1    0    0    0    0  0.00000000000E+00  0.00000000000E+00  0.45593999997E+02  0.45594000000E+02  0.51100000000E-03 0.  1.
         11   -1    0    0    0    0 -0.00000000000E+00 -0.00000000000E+00 -0.45593999997E+02  0.45594000000E+02  0.51100000000E-03 0. -1.
    9900012    2    1    2    0    0  0.16152983552E+02 -0.27475900815E+02  0.93718381978E+00  0.59301916566E+02  0.49999949916E+02 0.  0.
        -12    1    1    2    0    0 -0.16152983552E+02  0.27475900815E+02 -0.93718381978E+00  0.31886083434E+02  0.00000000000E+00 0.  1.
         11    1    3    3    0    0  0.72320508484E+01 -0.16424366955E+01  0.32062027355E+01  0.80795973919E+01  0.51100000000E-03 0. -1.
        -11    1    3    3    0    0  0.15759006527E+00  0.46393775063E+01  0.14590288193E+02  0.15310949287E+02  0.51100000000E-03 0.  1.
         12    1    3    3    0    0  0.87633426382E+01 -0.30472841626E+02 -0.16859307108E+02  0.35911369887E+02  0.00000000000E+00 0. -1.
</event>
<event>
 7    1  0.6198176E-013  0.5930194E+02  0.7816164E-02  0.1266605E+00
        -11   -1    0    0    0    0  0.00000000000E+00  0.00000000000E+00  0.45593999997E+02  0.45594000000E+02  0.51100000000E-03 0.  1.
         11   -1    0    0    0    0 -0.00000000000E+00 -0.00000000000E+00 -0.45593999997E+02  0.45594000000E+02  0.51100000000E-03 0. -1.
    9900012    2    1    2    0    0  0.20890223380E+02  0.15951813069E+02 -0.18051561283E+02  0.59301942894E+02  0.49999997932E+02 0.  0.
        -12    1    1    2    0    0 -0.20890223380E+02 -0.15951813069E+02  0.18051561283E+02  0.31886057106E+02  0.00000000000E+00 0.  1.
         11    1    3    3    0    0  0.94200349019E+01  0.55699244571E+01  0.50421154615E+01  0.12049234191E+02  0.51100000000E-03 0. -1.
        -11    1    3    3    0    0  0.23745007524E+02  0.84993955086E+01 -0.56588726396E+01  0.25847397280E+02  0.51100000000E-03 0.  1.
         12    1    3    3    0    0 -0.12274819046E+02  0.18824931029E+01 -0.17434804105E+02  0.21405311422E+02  0.00000000000E+00 0. -1.
</event>
<event>
 7    1  0.6198176E-013  0.5930187E+02  0.7816164E-02  0.1266605E+00
        -11   -1    0    0    0    0  0.00000000000E+00  0.00000000000E+00  0.45593999997E+02  0.45594000000E+02  0.51100000000E-03 0.  1.
         11   -1    0    0    0    0 -0.00000000000E+00 -0.00000000000E+00 -0.45593999997E+02  0.45594000000E+02  0.51100000000E-03 0. -1.
    9900012    2    1    2    0    0  0.88755591405E+01 -0.12879844382E+02 -0.27785956147E+02  0.59301869781E+02  0.49999864592E+02 0.  0.
        -12    1    1    2    0    0 -0.88755591405E+01  0.12879844382E+02  0.27785956147E+02  0.31886130219E+02  0.00000000000E+00 0.  1.
         11    1    3    3    0    0  0.33856474188E+01  0.29483315077E+01  0.47768660058E+01  0.65554340987E+01  0.51100000000E-03 0. -1.
        -11    1    3    3    0    0  0.11134366984E+02 -0.23538964078E+02 -0.93904045706E+01  0.27680980045E+02  0.51100000000E-03 0.  1.
         12    1    3    3    0    0 -0.56444552619E+01  0.77107881892E+01 -0.23172417582E+02  0.25065455637E+02  0.00000000000E+00 0. -1.
</event>
<event>
 7    1  0.6198176E-013  0.5930196E+02  0.7816164E-02  0.1266605E+00
        -11   -1    0    0    0    0  0.00000000000E+00  0.00000000000E+00  0.45593999997E+02  0.45594000000E+02  0.51100000000E-03 0. -1.
         11   -1    0    0    0    0 -0.00000000000E+00 -0.00000000000E+00 -0.45593999997E+02  0.45594000000E+02  0.51100000000E-03 0.  1.
    9900012    2    1    2    0    0  0.12048771120E+02  0.27679346433E+02  0.10266478913E+02  0.59301957697E+02  0.50000024929E+02 0.  0.
        -12    1    1    2    0    0 -0.12048771120E+02 -0.27679346433E+02 -0.10266478913E+02  0.31886042303E+02  0.00000000000E+00 0.  1.
         11    1    3    3    0    0  0.51557123094E+01  0.22154516428E+02  0.15880602082E+02  0.27741620182E+02  0.51100000000E-03 0. -1.
        -11    1    3    3    0    0  0.14683988880E+02  0.52034145880E+01  0.67215195843E+01  0.16966846454E+02  0.51100000000E-03 0.  1.
        -12    1    3    3    0    0 -0.77909300687E+01  0.32141541696E+00 -0.12335642754E+02  0.14593491061E+02  0.00000000000E+00 0.  1.
</event>
<event>
 7    1  0.6198176E-013  0.5930195E+02  0.7816164E-02  0.1266605E+00
        -11   -1    0    0    0    0  0.00000000000E+00  0.00000000000E+00  0.45593999997E+02  0.45594000000E+02  0.51100000000E-03 0. -1.
         11   -1    0    0    0    0 -0.00000000000E+00 -0.00000000000E+00 -0.45593999997E+02  0.45594000000E+02  0.51100000000E-03 0.  1.
    9900012    2    1    2    0    0  0.43825984743E+01 -0.31028559297E+02 -0.58942096177E+01  0.59301947117E+02  0.50000005634E+02 0.  0.
        -12    1    1    2    0    0 -0.43825984743E+01  0.31028559297E+02  0.58942096177E+01  0.31886052883E+02  0.00000000000E+00 0.  1.
         11    1    3    3    0    0  0.12537065601E+01 -0.25142573474E+02  0.91636068772E+01  0.26789782983E+02  0.51100000000E-03 0. -1.
        -11    1    3    3    0    0  0.13243365332E+02  0.41002620685E+01 -0.37851225330E+01  0.14371013436E+02  0.51100000000E-03 0.  1.
        -12    1    3    3    0    0 -0.10114473417E+02 -0.99862478919E+01 -0.11272693962E+02  0.18141150697E+02  0.00000000000E+00 0.  1.
</event>
<event>
 7    1  0.6198176E-013  0.5930194E+02  0.7816164E-02  0.1266605E+00
        -11   -1    0    0    0    0  0.00000000000E+00  0.00000000000E+00  0.45593999997E+02  0.45594000000E+02  0.51100000000E-03 0.  1.
         11   -1    0    0    0    0 -0.00000000000E+00 -0.00000000000E+00 -0.45593999997E+02  0.45594000000E+02  0.51100000000E-03 0. -1.
    9900012    2    1    2    0    0 -0.31839806957E+01  0.29825060682E+02  0.10818922192E+02  0.59301936349E+02  0.49999985996E+02 0.  0.
        -12    1    1    2    0    0  0.31839806957E+01 -0.29825060682E+02 -0.10818922192E+02  0.31886063651E+02  0.00000000000E+00 0.  1.
         11    1    3    3    0    0  0.34441060349E+01  0.18789412890E+02  0.10047762305E+02  0.21583823358E+02  0.51100000000E-03 0. -1.
        -11    1    3    3    0    0 -0.15243978435E+02  0.19963020577E+02  0.22741821874E+01  0.25220487187E+02  0.51100000000E-03 0.  1.
        -12    1    3    3    0    0  0.86158917042E+01 -0.89273727852E+01 -0.15030223006E+01  0.12497625804E+02  0.00000000000E+00 0.  1.
</event>
<event>
 7    1  0.6198176E-013  0.5930195E+02  0.7816164E-02  0.1266605E+00
        -11   -1    0    0    0    0  0.00000000000E+00  0.00000000000E+00  0.45593999997E+02  0.45594000000E+02  0.51100000000E-03 0.  1.
         11   -1    0    0    0    0 -0.00000000000E+00 -0.00000000000E+00 -0.45593999997E+02  0.45594000000E+02  0.51100000000E-03 0. -1.
    9900012    2    1    2    0    0 -0.98377312493E+01  0.25761385763E+02 -0.16009063627E+02  0.59301951785E+02  0.50000014147E+02 0.  0.
        -12    1    1    2    0    0  0.98377312493E+01 -0.25761385763E+02  0.16009063627E+02  0.31886048215E+02  0.00000000000E+00 0.  1.
         11    1    3    3    0    0 -0.15985854266E+02 -0.10967459310E+01  0.67348882416E+00  0.16037580108E+02  0.51100000000E-03 0. -1.
        -11    1    3    3    0    0 -0.53887308288E-02 -0.38112298504E+00  0.67799518970E+01  0.67906576820E+01  0.51100000000E-03 0.  1.
         12    1    3    3    0    0  0.61535117478E+01  0.27239254679E+02 -0.23462504348E+02  0.36473713995E+02  0.00000000000E+00 0. -1.
</event>
<event>
 7    1  0.6198176E-013  0.5930191E+02  0.7816164E-02  0.1266605E+00
        -11   -1    0    0    0    0  0.00000000000E+00  0.00000000000E+00  0.45593999997E+02  0.45594000000E+02  0.51100000000E-03 0. -1.
         11   -1    0    0    0    0 -0.00000000000E+00 -0.00000000000E+00 -0.45593999997E+02  0.45594000000E+02  0.51100000000E-03 0.  1.
    9900012    2    1    2    0    0 -0.18298382737E+02 -0.26102586953E+02  0.73940436769E+00  0.59301912512E+02  0.49999942524E+02 0.  0.
        -12    1    1    2    0    0  0.18298382737E+02  0.26102586953E+02 -0.73940436769E+00  0.31886087488E+02  0.00000000000E+00 0.  1.
         11    1    3    3    0    0  0.36970179197E+01 -0.43485338469E+01 -0.27952149576E+00  0.57145271584E+01  0.51100000000E-03 0. -1.
        -11    1    3    3    0    0  0.66374167696E+01 -0.23435040881E+02 -0.33089191221E+01  0.24580589669E+02  0.51100000000E-03 0.  1.
         12    1    3    3    0    0 -0.28632817426E+02  0.16809877749E+01  0.43278449856E+01  0.29006795685E+02  0.00000000000E+00 0. -1.
</event>
<event>
 7    1  0.6198176E-013  0.5930196E+02  0.7816164E-02  0.1266605E+00
        -11   -1    0    0    0    0  0.00000000000E+00  0.00000000000E+00  0.45593999997E+02  0.45594000000E+02  0.51100000000E-03 0.  1.
         11   -1    0    0    0    0 -0.00000000000E+00 -0.00000000000E+00 -0.45593999997E+02  0.45594000000E+02  0.51100000000E-03 0. -1.
    9900012    2    1    2    0    0  0.22784925094E+01  0.20042112057E+02 -0.24694972234E+02  0.59301961716E+02  0.50000032259E+02 0.  0.
        -12    1    1    2    0    0 -0.22784925094E+01 -0.20042112057E+02  0.24694972234E+02  0.31886038284E+02  0.00000000000E+00 0.  1.
         11    1    3    3    0    0 -0.91780898865E+01  0.19565878763E+01 -0.62456725300E+01  0.11272710220E+02  0.51100000000E-03 0. -1.
        -11    1    3    3    0    0 -0.94181322057E+01  0.14263555122E+02  0.35557032809E+01  0.17458328816E+02  0.51100000000E-03 0.  1.
         12    1    3    3    0    0  0.20874714602E+02  0.38219690584E+01 -0.22005002985E+02  0.30570922681E+02  0.00000000000E+00 0. -1.
</event>
<event>
 7    1  0.6198176E-013  0.5930194E+02  0.7816164E-02  0.1266605E+00
        -11   -1    0    0    0    0  0.00000000000E+00  0.00000000000E+00  0.45593999997E+02  0.45594000000E+02  0.51100000000E-03 0. -1.
         11   -1    0    0    0    0 -0.00000000000E+00 -0.00000000000E+00 -0.45593999997E+02  0.45594000000E+02  0.51100000000E-03 0.  1.
    9900012    2    1    2    0    0  0.41613136262E+01 -0.18766945733E+02  0.25440242303E+02  0.59301941735E+02  0.49999995819E+02 0.  0.
        -12    1    1    2    0    0 -0.41613136262E+01  0.18766945733E+02 -0.25440242303E+02  0.31886058265E+02  0.00000000000E+00 0.  1.
         11    1    3    3    0    0  0.14627971829E+02 -0.78086993127E+00  0.55823869922E+01  0.15676426967E+02  0.51100000000E-03 0.  1.
        -11    1    3    3    0    0 -0.20167088931E+02 -0.16486338570E+02  0.21371900381E+02  0.33693752560E+02  0.51100000000E-03 0. -1.
         12    1    3    3    0    0  0.97004307284E+01 -0.14997372318E+01 -0.15140450708E+01  0.99317622080E+01  0.00000000000E+00 0. -1.
</event>
<event>
 7    1  0.6198176E-013  0.5930193E+02  0.7816164E-02  0.1266605E+00
        -11   -1    0    0    0    0  0.00000000000E+00  0.00000000000E+00  0.45593999997E+02  0.45594000000E+02  0.51100000000E-03 0. -1.
         11   -1    0    0    0    0 -0.00000000000E+00 -0.00000000000E+00 -0.45593999997E+02  0.45594000000E+02  0.51100000000E-03 0.  1.
    9900012    2    1    2    0    0  0.30190963751E+02 -0.80720306295E+01  0.63300533740E+01  0.59301928646E+02  0.49999971947E+02 0.  0.
        -12    1    1    2    0    0 -0.30190963751E+02  0.80720306295E+01 -0.63300533740E+01  0.31886071354E+02  0.00000000000E+00 0.  1.
         11    1    3    3    0    0  0.19736640050E+01 -0.15099524243E+02 -0.38362249385E+01  0.15703744904E+02  0.51100000000E-03 0. -1.
        -11    1    3    3    0    0  0.71647613306E+01  0.42223461614E+01 -0.10882372643E+02  0.13696278569E+02  0.51100000000E-03 0.  1.
         12    1    3    3    0    0  0.21052538415E+02  0.28051474525E+01  0.21048650955E+02  0.29901905173E+02  0.00000000000E+00 0. -1.
</event>
<event>
 7    1  0.6198176E-013  0.5930195E+02  0.7816164E-02  0.1266605E+00
        -11   -1    0    0    0    0  0.00000000000E+00  0.00000000000E+00  0.45593999997E+02  0.45594000000E+02  0.51100000000E-03 0. -1.
         11   -1    0    0    0    0 -0.00000000000E+00 -0.00000000000E+00 -0.45593999997E+02  0.45594000000E+02  0.51100000000E-03 0.  1.
    9900012    2    1    2    0    0 -0.72555862052E+01  0.23015953854E+02  0.20840892910E+02  0.59301945364E+02  0.50000002437E+02 0.  0.
        -12    1    1    2    0    0  0.72555862052E+01 -0.23015953854E+02 -0.20840892910E+02  0.31886054636E+02  0.00000000000E+00 0.  1.
         11    1    3    3    0    0  0.13830189400E+01 -0.53225307440E+01  0.30717910358E+01  0.62990455895E+01  0.51100000000E-03 0. -1.
        -11    1    3    3    0    0  0.76449614277E+01  0.62948583811E+01 -0.99393119767E+01  0.14030702053E+02  0.51100000000E-03 0.  1.
         12    1    3    3    0    0 -0.16283566573E+02  0.22043626216E+02  0.27708413851E+02  0.38972197721E+02  0.00000000000E+00 0. -1.
</event>
<event>
 7    1  0.6198176E-013  0.5930195E+02  0.7816164E-02  0.1266605E+00
        -11   -1    0    0    0    0  0.00000000000E+00  0.00000000000E+00  0.45593999997E+02  0.45594000000E+02  0.51100000000E-03 0. -1.
         11   -1    0    0    0    0 -0.00000000000E+00 -0.00000000000E+00 -0.45593999997E+02  0.45594000000E+02  0.51100000000E-03 0.  1.
    9900012    2    1    2    0    0  0.14292387255E+02  0.24431457101E+02 -0.14681676853E+02  0.59301951879E+02  0.50000014319E+02 0.  0.
        -12    1    1    2    0    0 -0.14292387255E+02 -0.24431457101E+02  0.14681676853E+02  0.31886048121E+02  0.00000000000E+00 0.  1.
         11    1    3    3    0    0  0.96825878302E+01  0.41849474103E+01  0.85542085705E+01  0.13580897483E+02  0.51100000000E-03 0. -1.
        -11    1    3    3    0    0  0.17506356914E+02  0.13883147872E+02 -0.57310462382E+01  0.23066408877E+02  0.51100000000E-03 0.  1.
         12    1    3    3    0    0 -0.12896557488E+02  0.63633618192E+01 -0.17504839185E+02  0.22654645519E+02  0.00000000000E+00 0. -1.
</event>
<event>
 7    1  0.6198176E-013  0.5930196E+02  0.7816164E-02  0.1266605E+00
        -11   -1    0    0    0    0  0.00000000000E+00  0.00000000000E+00  0.45593999997E+02  0.45594000000E+02  0.51100000000E-03 0.  1.
         11   -1    0    0    0    0 -0.00000000000E+00 -0.00000000000E+00 -0.45593999997E+02  0.45594000000E+02  0.51100000000E-03 0. -1.
    9900012    2    1    2    0    0  0.25919707250E+02  0.17028384555E+02  0.74109623971E+01  0.59301961235E+02  0.50000031381E+02 0.  0.
        -12    1    1    2    0    0 -0.25919707250E+02 -0.17028384555E+02 -0.74109623971E+01  0.31886038765E+02  0.00000000000E+00 0.  1.
         11    1    3    3    0    0  0.20211104591E+02 -0.66078817304E+01  0.52349604127E+00  0.21270329055E+02  0.51100000000E-03 0. -1.
        -11    1    3    3    0    0  0.95571822280E+01  0.14207849355E+02  0.16679377619E+02  0.23904065626E+02  0.51100000000E-03 0.  1.
         12    1    3    3    0    0 -0.38485795691E+01  0.94284169306E+01 -0.97919112635E+01  0.14127566553E+02  0.00000000000E+00 0. -1.
</event>
<event>
 7    1  0.6198176E-013  0.5930197E+02  0.7816164E-02  0.1266605E+00
        -11   -1    0    0    0    0  0.00000000000E+00  0.00000000000E+00  0.45593999997E+02  0.45594000000E+02  0.51100000000E-03 0.  1.
         11   -1    0    0    0    0 -0.00000000000E+00 -0.00000000000E+00 -0.45593999997E+02  0.45594000000E+02  0.51100000000E-03 0. -1.
    9900012    2    1    2    0    0 -0.86064722540E+01 -0.55896038907E+01 -0.30189469954E+02  0.59301966500E+02  0.50000040983E+02 0.  0.
        -12    1    1    2    0    0  0.86064722540E+01  0.55896038907E+01  0.30189469954E+02  0.31886033500E+02  0.00000000000E+00 0.  1.
         11    1    3    3    0    0 -0.37629734343E+01  0.77564250150E+01 -0.10887675089E+02  0.13887532797E+02  0.51100000000E-03 0. -1.
        -11    1    3    3    0    0  0.29080353241E+01  0.11275880143E+02  0.21613845056E+01  0.11843720939E+02  0.51100000000E-03 0.  1.
        -12    1    3    3    0    0 -0.77515341439E+01 -0.24621909048E+02 -0.21463179370E+02  0.33570712764E+02  0.00000000000E+00 0.  1.
</event>
<event>
 7    1  0.6198176E-013  0.5930195E+02  0.7816164E-02  0.1266605E+00
        -11   -1    0    0    0    0  0.00000000000E+00  0.00000000000E+00  0.45593999997E+02  0.45594000000E+02  0.51100000000E-03 0. -1.
         11   -1    0    0    0    0 -0.00000000000E+00 -0.00000000000E+00 -0.45593999997E+02  0.45594000000E+02  0.51100000000E-03 0.  1.
    9900012    2    1    2    0    0 -0.66028372314E+01 -0.27195791282E+02 -0.15281087434E+02  0.59301950447E+02  0.50000011706E+02 0.  0.
        -12    1    1    2    0    0  0.66028372314E+01  0.27195791282E+02  0.15281087434E+02  0.31886049553E+02  0.00000000000E+00 0.  1.
         11    1    3    3    0    0 -0.47591892054E+01 -0.77795215086E+01  0.13557139158E+02  0.16339120515E+02  0.51100000000E-03 0. -1.
        -11    1    3    3    0    0 -0.68636556851E+01  0.13177497041E+01  0.12612979342E+00  0.69901461096E+01  0.51100000000E-03 0.  1.
        -12    1    3    3    0    0  0.50200076592E+01 -0.20734019478E+02 -0.28964356385E+02  0.35972683822E+02  0.00000000000E+00 0.  1.
</event>
<event>
 7    1  0.6198176E-013  0.5930195E+02  0.7816164E-02  0.1266605E+00
        -11   -1    0    0    0    0  0.00000000000E+00  0.00000000000E+00  0.45593999997E+02  0.45594000000E+02  0.51100000000E-03 0.  1.
         11   -1    0    0    0    0 -0.00000000000E+00 -0.00000000000E+00 -0.45593999997E+02  0.45594000000E+02  0.51100000000E-03 0. -1.
    9900012    2    1    2    0    0  0.41708388150E+01 -0.18226323539E+02 -0.25828773432E+02  0.59301948141E+02  0.50000007502E+02 0.  0.
        -12    1    1    2    0    0 -0.41708388150E+01  0.18226323539E+02  0.25828773432E+02  0.31886051859E+02  0.00000000000E+00 0.  1.
         11    1    3    3    0    0  0.56238315623E+01 -0.10198922704E+02 -0.33565065682E+01  0.12120711298E+02  0.51100000000E-03 0. -1.
        -11    1    3    3    0    0  0.61723475183E+00 -0.70958763337E+01  0.11286586202E+02  0.13346140567E+02  0.51100000000E-03 0.  1.
         12    1    3    3    0    0 -0.20702274992E+01 -0.93152450156E+00 -0.33758853065E+02  0.33835096277E+02  0.00000000000E+00 0. -1.
</event>
<event>
 7    1  0.6198176E-013  0.5930197E+02  0.7816164E-02  0.1266605E+00
        -11   -1    0    0    0    0  0.00000000000E+00  0.00000000000E+00  0.45593999997E+02  0.45594000000E+02  0.51100000000E-03 0.  1.
         11   -1    0    0    0    0 -0.00000000000E+00 -0.00000000000E+00 -0.45593999997E+02  0.45594000000E+02  0.51100000000E-03 0. -1.
    9900012    2    1    2    0    0  0.94556311208E+01  0.22386517572E+02 -0.20643498434E+02  0.59301966122E+02  0.50000040294E+02 0.  0.
        -12    1    1    2    0    0 -0.94556311208E+01 -0.22386517572E+02  0.20643498434E+02  0.31886033878E+02  0.00000000000E+00 0.  1.
         11    1    3    3    0    0  0.12946295212E+02 -0.98780672363E+01 -0.30078499372E+01  0.16559889297E+02  0.51100000000E-03 0. -1.
        -11    1    3    3    0    0  0.10498694342E+01  0.12233743673E+02  0.39963177456E+01  0.12912678493E+02  0.51100000000E-03 0.  1.
        -12    1    3    3    0    0 -0.45405335250E+01  0.20030841136E+02 -0.21631966243E+02  0.29829398331E+02  0.00000000000E+00 0.  1.
</event>
<event>
 7    1  0.1057498E-012  0.5930198E+02  0.7816164E-02  0.1266605E+00
        -11   -1    0    0    0    0  0.00000000000E+00  0.00000000000E+00  0.45593999997E+02  0.45594000000E+02  0.51100000000E-03 0.  1.
         11   -1    0    0    0    0 -0.00000000000E+00 -0.00000000000E+00 -0.45593999997E+02  0.45594000000E+02  0.51100000000E-03 0. -1.
    9900012    2    1    2    0    0 -0.19619480010E+02 -0.18864388129E+02 -0.16611108315E+02  0.59301983397E+02  0.50000071801E+02 0.  0.
        -12    1    1    2    0    0  0.19619480010E+02  0.18864388129E+02  0.16611108315E+02  0.31886016603E+02  0.00000000000E+00 0.  1.
         11    1    3    3    0    0 -0.20811076503E+02 -0.24808928758E+02 -0.20642540532E+02  0.38401801146E+02  0.51100000000E-03 0. -1.
        -11    1    3    3    0    0 -0.78110680250E+01  0.80935571995E+01  0.20051392974E+01  0.11425368077E+02  0.51100000000E-03 0.  1.
        -12    1    3    3    0    0  0.90026645183E+01 -0.21490165700E+01  0.20262929195E+01  0.94748141746E+01  0.00000000000E+00 0.  1.
</event>
<event>
 7    1  0.6198176E-013  0.5930195E+02  0.7816164E-02  0.1266605E+00
        -11   -1    0    0    0    0  0.00000000000E+00  0.00000000000E+00  0.45593999997E+02  0.45594000000E+02  0.51100000000E-03 0.  1.
         11   -1    0    0    0    0 -0.00000000000E+00 -0.00000000000E+00 -0.45593999997E+02  0.45594000000E+02  0.51100000000E-03 0. -1.
    9900012    2    1    2    0    0  0.18402320041E+02  0.23172161159E+02  0.11879645066E+02  0.59301946582E+02  0.50000004658E+02 0.  0.
        -12    1    1    2    0    0 -0.18402320041E+02 -0.23172161159E+02 -0.11879645066E+02  0.31886053418E+02  0.00000000000E+00 0.  1.
         11    1    3    3    0    0  0.41970814709E+01  0.13704458080E+02 -0.30540542029E+01  0.14654518466E+02  0.51100000000E-03 0. -1.
        -11    1    3    3    0    0  0.26855678494E+02  0.10543221280E+02  0.13554989233E+02  0.31876711181E+02  0.51100000000E-03 0.  1.
         12    1    3    3    0    0 -0.12650439924E+02 -0.10755182014E+01  0.13787100360E+01  0.12770716935E+02  0.00000000000E+00 0. -1.
</event>
<event>
 7    1  0.6198176E-013  0.5930194E+02  0.7816164E-02  0.1266605E+00
        -11   -1    0    0    0    0  0.00000000000E+00  0.00000000000E+00  0.45593999997E+02  0.45594000000E+02  0.51100000000E-03 0.  1.
         11   -1    0    0    0    0 -0.00000000000E+00 -0.00000000000E+00 -0.45593999997E+02  0.45594000000E+02  0.51100000000E-03 0. -1.
    9900012    2    1    2    0    0 -0.11009095736E+02  0.21772080498E+02 -0.20530389116E+02  0.59301944186E+02  0.50000000288E+02 0.  0.
        -12    1    1    2    0    0  0.11009095736E+02 -0.21772080498E+02  0.20530389116E+02  0.31886055814E+02  0.00000000000E+00 0.  1.
         11    1    3    3    0    0  0.66426510483E+00 -0.13812730274E+02 -0.90129454469E+00  0.13858033694E+02  0.51100000000E-03 0.  1.
        -11    1    3    3    0    0 -0.68590215632E+01  0.23199505091E+01 -0.21162359383E+01  0.75436597203E+01  0.51100000000E-03 0. -1.
        -12    1    3    3    0    0 -0.48143392778E+01  0.33264860263E+02 -0.17512858633E+02  0.37900250771E+02  0.00000000000E+00 0.  1.
</event>
<event>
 7    1  0.6198176E-013  0.5930194E+02  0.7816164E-02  0.1266605E+00
        -11   -1    0    0    0    0  0.00000000000E+00  0.00000000000E+00  0.45593999997E+02  0.45594000000E+02  0.51100000000E-03 0. -1.
         11   -1    0    0    0    0 -0.00000000000E+00 -0.00000000000E+00 -0.45593999997E+02  0.45594000000E+02  0.51100000000E-03 0.  1.
    9900012    2    1    2    0    0 -0.18802617062E+02 -0.22147606015E+02  0.13140235868E+02  0.59301942557E+02  0.49999997318E+02 0.  0.
        -12    1    1    2    0    0  0.18802617062E+02  0.22147606015E+02 -0.13140235868E+02  0.31886057443E+02  0.00000000000E+00 0.  1.
         11    1    3    3    0    0  0.11548258374E+02 -0.71563012701E+01  0.71963129534E+01  0.15374063865E+02  0.51100000000E-03 0. -1.
        -11    1    3    3    0    0 -0.12101209092E+02  0.46292349986E+01  0.10588185026E+02  0.16732565271E+02  0.51100000000E-03 0.  1.
         12    1    3    3    0    0 -0.18249666344E+02 -0.19620539744E+02 -0.46442621122E+01  0.27195313421E+02  0.00000000000E+00 0. -1.
</event>
<event>
 7    1  0.6198176E-013  0.5930189E+02  0.7816164E-02  0.1266605E+00
        -11   -1    0    0    0    0  0.00000000000E+00  0.00000000000E+00  0.45593999997E+02  0.45594000000E+02  0.51100000000E-03 0.  1.
         11   -1    0    0    0    0 -0.00000000000E+00 -0.00000000000E+00 -0.45593999997E+02  0.45594000000E+02  0.51100000000E-03 0. -1.
    9900012    2    1    2    0    0 -0.18566629414E+02 -0.92336687058E+00 -0.25906589180E+02  0.59301894921E+02  0.49999910441E+02 0.  0.
        -12    1    1    2    0    0  0.18566629414E+02  0.92336687058E+00  0.25906589180E+02  0.31886105079E+02  0.00000000000E+00 0.  1.
         11    1    3    3    0    0 -0.48109528102E+01  0.55712159954E+01 -0.23361333287E+02  0.24493582992E+02  0.51100000000E-03 0. -1.
        -11    1    3    3    0    0 -0.83325077482E+01 -0.15237884708E+02 -0.11778025083E+02  0.20984415428E+02  0.51100000000E-03 0.  1.
        -12    1    3    3    0    0 -0.54231688555E+01  0.87433018424E+01  0.92327691898E+01  0.13823896500E+02  0.00000000000E+00 0.  1.
</event>
<event>
 7    1  0.6198176E-013  0.5930191E+02  0.7816164E-02  0.1266605E+00
        -11   -1    0    0    0    0  0.00000000000E+00  0.00000000000E+00  0.45593999997E+02  0.45594000000E+02  0.51100000000E-03 0. -1.
         11   -1    0    0    0    0 -0.00000000000E+00 -0.00000000000E+00 -0.45593999997E+02  0.45594000000E+02  0.51100000000E-03 0.  1.
    9900012    2    1    2    0    0 -0.59075916676E+01  0.28378571956E+02  0.13284571636E+02  0.59301908532E+02  0.49999935263E+02 0.  0.
        -12    1    1    2    0    0  0.59075916676E+01 -0.28378571956E+02 -0.13284571636E+02  0.31886091468E+02  0.00000000000E+00 0.  1.
         11    1    3    3    0    0 -0.13457025628E+01  0.66411327117E+01  0.33784127825E+01  0.75716069808E+01  0.51100000000E-03 0. -1.
        -11    1    3    3    0    0 -0.16039123593E+02  0.71660744091E+00  0.20079636471E+02  0.25709119256E+02  0.51100000000E-03 0.  1.
        -12    1    3    3    0    0  0.11477234488E+02  0.21020831803E+02 -0.10173477617E+02  0.26021182295E+02  0.00000000000E+00 0.  1.
</event>
<event>
 7    1  0.6198176E-013  0.5930195E+02  0.7816164E-02  0.1266605E+00
        -11   -1    0    0    0    0  0.00000000000E+00  0.00000000000E+00  0.45593999997E+02  0.45594000000E+02  0.51100000000E-03 0. -1.
         11   -1    0    0    0    0 -0.00000000000E+00 -0.00000000000E+00 -0.45593999997E+02  0.45594000000E+02  0.51100000000E-03 0.  1.
    9900012    2    1    2    0    0 -0.17061245933E+02 -0.17740024356E+02  0.20271303780E+02  0.59301947659E+02  0.50000006623E+02 0.  0.
        -12    1    1    2    0    0  0.17061245933E+02  0.17740024356E+02 -0.20271303780E+02  0.31886052341E+02  0.00000000000E+00 0.  1.
         11    1    3    3    0    0  0.21206076495E+01  0.62965144433E+01 -0.46689008816E+00  0.66604097136E+01  0.51100000000E-03 0. -1.
        -11    1    3    3    0    0  0.10041842416E+02  0.61743733536E+00  0.56444458915E+01  0.11536013074E+02  0.51100000000E-03 0.  1.
        -12    1    3    3    0    0 -0.29223695998E+02 -0.24653976134E+02  0.15093747977E+02  0.41105524872E+02  0.00000000000E+00 0.  1.
</event>
<event>
 7    1  0.6198176E-013  0.5930195E+02  0.7816164E-02  0.1266605E+00
        -11   -1    0    0    0    0  0.00000000000E+00  0.00000000000E+00  0.45593999997E+02  0.45594000000E+02  0.51100000000E-03 0.  1.
         11   -1    0    0    0    0 -0.00000000000E+00 -0.00000000000E+00 -0.45593999997E+02  0.45594000000E+02  0.51100000000E-03 0. -1.
    9900012    2    1    2    0    0  0.27226617648E+02  0.84541286748E+00 -0.16574585331E+02  0.59301948028E+02  0.50000007296E+02 0.  0.
        -12    1    1    2    0    0 -0.27226617648E+02 -0.84541286748E+00  0.16574585331E+02  0.31886051972E+02  0.00000000000E+00 0.  1.
         11    1    3    3    0    0 -0.34501451259E+00 -0.71710027691E+01 -0.11559750808E+02  0.13607724083E+02  0.51100000000E-03 0. -1.
        -11    1    3    3    0    0  0.62991030338E+01  0.19781325828E+02 -0.51313659928E+01  0.21384818628E+02  0.51100000000E-03 0.  1.
         12    1    3    3    0    0  0.21272529127E+02 -0.11764910191E+02  0.11653147006E+00  0.24309405317E+02  0.00000000000E+00 0. -1.
</event>
<event>
 7    1  0.6198176E-013  0.5930194E+02  0.7816164E-02  0.1266605E+00
        -11   -1    0    0    0    0  0.00000000000E+00  0.00000000000E+00  0.45593999997E+02  0.45594000000E+02  0.51100000000E-03 0.  1.
         11   -1    0    0    0    0 -0.00000000000E+00 -0.00000000000E+00 -0.45593999997E+02  0.45594000000E+02  0.51100000000E-03 0. -1.
    9900012    2    1    2    0    0 -0.19643885279E+02 -0.23517820955E+02  0.88176343758E+01  0.59301940236E+02  0.49999993084E+02 0.  0.
        -12    1    1    2    0    0  0.19643885279E+02  0.23517820955E+02 -0.88176343758E+01  0.31886059764E+02  0.00000000000E+00 0.  1.
         11    1    3    3    0    0 -0.10862987404E+02 -0.31328106338E+00 -0.20893042030E+01  0.11066518543E+02  0.51100000000E-03 0. -1.
        -11    1    3    3    0    0 -0.10667595246E+02  0.34849321016E+01  0.17397800427E+02  0.20703279935E+02  0.51100000000E-03 0.  1.
         12    1    3    3    0    0  0.18866973707E+01 -0.26689471993E+02 -0.64908618483E+01  0.27532141758E+02  0.00000000000E+00 0. -1.
</event>
<event>
 7    1  0.6198176E-013  0.5930193E+02  0.7816164E-02  0.1266605E+00
        -11   -1    0    0    0    0  0.00000000000E+00  0.00000000000E+00  0.45593999997E+02  0.45594000000E+02  0.51100000000E-03 0.  1.
         11   -1    0    0    0    0 -0.00000000000E+00 -0.00000000000E+00 -0.45593999997E+02  0.45594000000E+02  0.51100000000E-03 0. -1.
    9900012    2    1    2    0    0 -0.39799483161E+01 -0.78891931962E+01 -0.30637265257E+02  0.59301931250E+02  0.49999976697E+02 0.  0.
        -12    1    1    2    0    0  0.39799483161E+01  0.78891931962E+01  0.30637265257E+02  0.31886068750E+02  0.00000000000E+00 0.  1.
         11    1    3    3    0    0  0.12284981308E+02  0.48756225942E+01 -0.42984266654E+01  0.13898522709E+02  0.51100000000E-03 0. -1.
        -11    1    3    3    0    0 -0.14652689567E+02  0.75268143204E+01 -0.97311645411E+01  0.19132428203E+02  0.51100000000E-03 0.  1.
         12    1    3    3    0    0 -0.16122400577E+01 -0.20291630111E+02 -0.16607674051E+02  0.26270980338E+02  0.00000000000E+00 0. -1.
</event>
<event>
 7    1  0.6198176E-013  0.5930202E+02  0.7816164E-02  0.1266605E+00
        -11   -1    0    0    0    0  0.00000000000E+00  0.00000000000E+00  0.45593999997E+02  0.45594000000E+02  0.51100000000E-03 0.  1.
         11   -1    0    0    0    0 -0.00000000000E+00 -0.00000000000E+00 -0.45593999997E+02  0.45594000000E+02  0.51100000000E-03 0. -1.
    9900012    2    1    2    0    0  0.61454399927E+01 -0.27557025635E+02 -0.14817553690E+02  0.59302015745E+02  0.50000130795E+02 0.  0.
        -12    1    1    2    0    0 -0.61454399927E+01  0.27557025635E+02  0.14817553690E+02  0.31885984255E+02  0.00000000000E+00 0.  1.
         11    1    3    3    0    0  0.10384819790E+02 -0.43616019488E+01 -0.20304609281E+01  0.11445122344E+02  0.51100000000E-03 0. -1.
        -11    1    3    3    0    0  0.75324664187E+01  0.42345903747E+01 -0.15643249653E+02  0.17871235714E+02  0.51100000000E-03 0.  1.
         12    1    3    3    0    0 -0.11771846216E+02 -0.27430014061E+02  0.28561568912E+01  0.29985657687E+02  0.00000000000E+00 0. -1.
</event>
<event>
 7    1  0.6198176E-013  0.5930195E+02  0.7816164E-02  0.1266605E+00
        -11   -1    0    0    0    0  0.00000000000E+00  0.00000000000E+00  0.45593999997E+02  0.45594000000E+02  0.51100000000E-03 0.  1.
         11   -1    0    0    0    0 -0.00000000000E+00 -0.00000000000E+00 -0.45593999997E+02  0.45594000000E+02  0.51100000000E-03 0. -1.
    9900012    2    1    2    0    0 -0.16386712063E+02  0.20828507700E+02 -0.17730452380E+02  0.59301952787E+02  0.50000015974E+02 0.  0.
        -12    1    1    2    0    0  0.16386712063E+02 -0.20828507700E+02  0.17730452380E+02  0.31886047213E+02  0.00000000000E+00 0.  1.
         11    1    3    3    0    0 -0.14188092613E+02  0.11414445066E+02 -0.14630336816E+01  0.18268333147E+02  0.51100000000E-03 0. -1.
        -11    1    3    3    0    0  0.10655824799E+02  0.13427292194E+02 -0.20681824899E+02  0.26862178974E+02  0.51100000000E-03 0.  1.
         12    1    3    3    0    0 -0.12854444249E+02 -0.40132295589E+01  0.44144062004E+01  0.14171440666E+02  0.00000000000E+00 0. -1.
</event>
<event>
 7    1  0.6198176E-013  0.5930194E+02  0.7816164E-02  0.1266605E+00
        -11   -1    0    0    0    0  0.00000000000E+00  0.00000000000E+00  0.45593999997E+02  0.45594000000E+02  0.51100000000E-03 0.  1.
         11   -1    0    0    0    0 -0.00000000000E+00 -0.00000000000E+00 -0.45593999997E+02  0.45594000000E+02  0.51100000000E-03 0. -1.
    9900012    2    1    2    0    0 -0.39442239448E+01 -0.14452164775E+02 -0.28147805432E+02  0.59301938470E+02  0.49999989865E+02 0.  0.
        -12    1    1    2    0    0  0.39442239448E+01  0.14452164775E+02  0.28147805432E+02  0.31886061530E+02  0.00000000000E+00 0.  1.
         11    1    3    3    0    0  0.39046998320E+01 -0.25446753262E+01 -0.21611855375E+02  0.22108693908E+02  0.51100000000E-03 0.  1.
        -11    1    3    3    0    0  0.10491203439E+02 -0.58455643641E+01 -0.12144032745E+02  0.17079622475E+02  0.51100000000E-03 0. -1.
        -12    1    3    3    0    0 -0.18340127216E+02 -0.60619250844E+01  0.56080826877E+01  0.20113622087E+02  0.00000000000E+00 0.  1.
</event>
<event>
 7    1  0.6198176E-013  0.5930195E+02  0.7816164E-02  0.1266605E+00
        -11   -1    0    0    0    0  0.00000000000E+00  0.00000000000E+00  0.45593999997E+02  0.45594000000E+02  0.51100000000E-03 0.  1.
         11   -1    0    0    0    0 -0.00000000000E+00 -0.00000000000E+00 -0.45593999997E+02  0.45594000000E+02  0.51100000000E-03 0. -1.
    9900012    2    1    2    0    0  0.76246151480E+01  0.18055907307E+02 -0.25150942878E+02  0.59301945486E+02  0.50000002659E+02 0.  0.
        -12    1    1    2    0    0 -0.76246151480E+01 -0.18055907307E+02  0.25150942878E+02  0.31886054514E+02  0.00000000000E+00 0.  1.
         11    1    3    3    0    0 -0.67347977097E+01  0.17450164100E+02  0.30454430722E+01  0.18951001321E+02  0.51100000000E-03 0. -1.
        -11    1    3    3    0    0 -0.27927518517E+01 -0.81075189334E+00  0.33371760400E+01  0.44264574685E+01  0.51100000000E-03 0.  1.
         12    1    3    3    0    0  0.17152164709E+02  0.14164951009E+01 -0.31533561990E+02  0.35924486696E+02  0.00000000000E+00 0. -1.
</event>
<event>
 7    1  0.6198176E-013  0.5930192E+02  0.7816164E-02  0.1266605E+00
        -11   -1    0    0    0    0  0.00000000000E+00  0.00000000000E+00  0.45593999997E+02  0.45594000000E+02  0.51100000000E-03 0. -1.
         11   -1    0    0    0    0 -0.00000000000E+00 -0.00000000000E+00 -0.45593999997E+02  0.45594000000E+02  0.51100000000E-03 0.  1.
    9900012    2    1    2    0    0 -0.14895140492E+02 -0.28193125800E+02  0.67755050315E-01  0.59301919284E+02  0.49999954874E+02 0.  0.
        -12    1    1    2    0    0  0.14895140492E+02  0.28193125800E+02 -0.67755050315E-01  0.31886080716E+02  0.00000000000E+00 0.  1.
         11    1    3    3    0    0  0.19898165840E+01 -0.18343791613E+01  0.29150619770E+01  0.39776756450E+01  0.51100000000E-03 0. -1.
        -11    1    3    3    0    0  0.68758242437E+01  0.91759401699E+01 -0.50316461755E+01  0.12521673232E+02  0.51100000000E-03 0.  1.
         12    1    3    3    0    0 -0.23760781320E+02 -0.35534686809E+02  0.21843392488E+01  0.42802570407E+02  0.00000000000E+00 0. -1.
</event>
<event>
 7    1  0.6198176E-013  0.5930208E+02  0.7816164E-02  0.1266604E+00
        -11   -1    0    0    0    0  0.00000000000E+00  0.00000000000E+00  0.45593999997E+02  0.45594000000E+02  0.51100000000E-03 0.  1.
         11   -1    0    0    0    0 -0.00000000000E+00 -0.00000000000E+00 -0.45593999997E+02  0.45594000000E+02  0.51100000000E-03 0. -1.
    9900012    2    1    2    0    0  0.17905912313E+02  0.62740167422E+01 -0.25626686834E+02  0.59302077402E+02  0.50000243241E+02 0.  0.
        -12    1    1    2    0    0 -0.17905912313E+02 -0.62740167422E+01  0.25626686834E+02  0.31885922598E+02  0.00000000000E+00 0.  1.
         11    1    3    3    0    0 -0.24323810319E+01 -0.63087137900E+01  0.40637365882E+01  0.78886185412E+01  0.51100000000E-03 0. -1.
        -11    1    3    3    0    0  0.37064392269E+01  0.18712125447E+02 -0.29070594131E+01  0.19295914728E+02  0.51100000000E-03 0.  1.
         12    1    3    3    0    0  0.16631854119E+02 -0.61293949153E+01 -0.26783364009E+02  0.32117544132E+02  0.00000000000E+00 0. -1.
</event>
<event>
 7    1  0.6198176E-013  0.5930192E+02  0.7816164E-02  0.1266605E+00
        -11   -1    0    0    0    0  0.00000000000E+00  0.00000000000E+00  0.45593999997E+02  0.45594000000E+02  0.51100000000E-03 0.  1.
         11   -1    0    0    0    0 -0.00000000000E+00 -0.00000000000E+00 -0.45593999997E+02  0.45594000000E+02  0.51100000000E-03 0. -1.
    9900012    2    1    2    0    0 -0.15251987096E+02 -0.24276792794E+01 -0.27896329680E+02  0.59301922369E+02  0.49999960499E+02 0.  0.
        -12    1    1    2    0    0  0.15251987096E+02  0.24276792794E+01  0.27896329680E+02  0.31886077631E+02  0.00000000000E+00 0.  1.
         11    1    3    3    0    0  0.78286796120E+01 -0.28830607016E+01  0.43142074122E+01  0.93921589282E+01  0.51100000000E-03 0. -1.
        -11    1    3    3    0    0 -0.12429513195E+02 -0.80826141583E+01  0.10775649278E+00  0.14826768415E+02  0.51100000000E-03 0.  1.
         12    1    3    3    0    0 -0.10651153513E+02  0.85379955805E+01 -0.32318293585E+02  0.35082995026E+02  0.00000000000E+00 0. -1.
</event>
<event>
 7    1  0.6198176E-013  0.5930191E+02  0.7816164E-02  0.1266605E+00
        -11   -1    0    0    0    0  0.00000000000E+00  0.00000000000E+00  0.45593999997E+02  0.45594000000E+02  0.51100000000E-03 0.  1.
         11   -1    0    0    0    0 -0.00000000000E+00 -0.00000000000E+00 -0.45593999997E+02  0.45594000000E+02  0.51100000000E-03 0. -1.
    9900012    2    1    2    0    0  0.16157201093E+02  0.18521889219E+02 -0.20312739579E+02  0.59301907160E+02  0.49999932762E+02 0.  0.
        -12    1    1    2    0    0 -0.16157201093E+02 -0.18521889219E+02  0.20312739579E+02  0.31886092840E+02  0.00000000000E+00 0.  1.
         11    1    3    3    0    0  0.25508866872E+02  0.18236848611E+02 -0.21356031133E+01  0.31430013320E+02  0.51100000000E-03 0. -1.
        -11    1    3    3    0    0  0.25645877180E+01  0.83326881830E+00 -0.15386443323E+02  0.15620950211E+02  0.51100000000E-03 0.  1.
        -12    1    3    3    0    0 -0.11916253498E+02 -0.54822820956E+00 -0.27906931426E+01  0.12250943629E+02  0.00000000000E+00 0.  1.
</event>
<event>
 7    1  0.6198176E-013  0.5930194E+02  0.7816164E-02  0.1266605E+00
        -11   -1    0    0    0    0  0.00000000000E+00  0.00000000000E+00  0.45593999997E+02  0.45594000000E+02  0.51100000000E-03 0.  1.
         11   -1    0    0    0    0 -0.00000000000E+00 -0.00000000000E+00 -0.45593999997E+02  0.45594000000E+02  0.51100000000E-03 0. -1.
    9900012    2    1    2    0    0  0.18026569670E+02 -0.26286601434E+02 -0.88204182004E+00  0.59301943066E+02  0.49999998245E+02 0.  0.
        -12    1    1    2    0    0 -0.18026569670E+02  0.26286601434E+02  0.88204182004E+00  0.31886056934E+02  0.00000000000E+00 0.  1.
         11    1    3    3    0    0  0.39295966520E+01 -0.27499918320E+01 -0.18186746471E+02  0.18808560083E+02  0.51100000000E-03 0. -1.
        -11    1    3    3    0    0 -0.57524116535E+01 -0.78094540992E+01 -0.21068098381E+00  0.97016596465E+01  0.51100000000E-03 0.  1.
        -12    1    3    3    0    0  0.19849384672E+02 -0.15727155503E+02  0.17515385635E+02  0.30791723336E+02  0.00000000000E+00 0.  1.
</event>
<event>
 7    1  0.6198176E-013  0.5930196E+02  0.7816164E-02  0.1266605E+00
        -11   -1    0    0    0    0  0.00000000000E+00  0.00000000000E+00  0.45593999997E+02  0.45594000000E+02  0.51100000000E-03 0.  1.
         11   -1    0    0    0    0 -0.00000000000E+00 -0.00000000000E+00 -0.45593999997E+02  0.45594000000E+02  0.51100000000E-03 0. -1.
    9900012    2    1    2    0    0 -0.49952547437E+01 -0.22449702998E+02 -0.22085699660E+02  0.59301955025E+02  0.50000020057E+02 0.  0.
        -12    1    1    2    0    0  0.49952547437E+01  0.22449702998E+02  0.22085699660E+02  0.31886044975E+02  0.00000000000E+00 0.  1.
         11    1    3    3    0    0 -0.19810125064E+01  0.52670823645E+01 -0.15758650979E+02  0.16733249778E+02  0.51100000000E-03 0. -1.
        -11    1    3    3    0    0 -0.15941050220E+02 -0.23445061048E+02 -0.26995236185E+01  0.28479385487E+02  0.51100000000E-03 0.  1.
         12    1    3    3    0    0  0.12926807983E+02 -0.42717243144E+01 -0.36275250619E+01  0.14089319761E+02  0.00000000000E+00 0. -1.
</event>
<event>
 7    1  0.6198176E-013  0.5930193E+02  0.7816164E-02  0.1266605E+00
        -11   -1    0    0    0    0  0.00000000000E+00  0.00000000000E+00  0.45593999997E+02  0.45594000000E+02  0.51100000000E-03 0.  1.
         11   -1    0    0    0    0 -0.00000000000E+00 -0.00000000000E+00 -0.45593999997E+02  0.45594000000E+02  0.51100000000E-03 0. -1.
    9900012    2    1    2    0    0 -0.23982907701E+02 -0.19521021545E+02 -0.77763243967E+01  0.59301931489E+02  0.49999977133E+02 0.  0.
        -12    1    1    2    0    0  0.23982907701E+02  0.19521021545E+02  0.77763243967E+01  0.31886068511E+02  0.00000000000E+00 0.  1.
         11    1    3    3    0    0 -0.26497906984E+01 -0.17192771029E+02 -0.55635143063E+01  0.18263774476E+02  0.51100000000E-03 0. -1.
        -11    1    3    3    0    0 -0.40528513627E+01  0.11976144881E+02 -0.11182186465E+02  0.16878831262E+02  0.51100000000E-03 0.  1.
         12    1    3    3    0    0 -0.17280265640E+02 -0.14304395397E+02  0.89693763741E+01  0.24159325752E+02  0.00000000000E+00 0. -1.
</event>
<event>
 7    1  0.6198176E-013  0.5930197E+02  0.7816164E-02  0.1266605E+00
        -11   -1    0    0    0    0  0.00000000000E+00  0.00000000000E+00  0.45593999997E+02  0.45594000000E+02  0.51100000000E-03 0.  1.
         11   -1    0    0    0    0 -0.00000000000E+00 -0.00000000000E+00 -0.45593999997E+02  0.45594000000E+02  0.51100000000E-03 0. -1.
    9900012    2    1    2    0    0  0.11755845316E+02  0.68501224993E+01 -0.28837383821E+02  0.59301971978E+02  0.50000050975E+02 0.  0.
        -12    1    1    2    0    0 -0.11755845316E+02 -0.68501224993E+01  0.28837383821E+02  0.31886028022E+02  0.00000000000E+00 0.  1.
         11    1    3    3    0    0  0.14998104806E+02 -0.67835536536E+00 -0.10488879487E+02  0.18314472609E+02  0.51100000000E-03 0. -1.
        -11    1    3    3    0    0  0.11818285712E+02 -0.27697803969E+01  0.33941350300E+01  0.12604114942E+02  0.51100000000E-03 0.  1.
        -12    1    3    3    0    0 -0.15060545202E+02  0.10298258262E+02 -0.21742639364E+02  0.28383384427E+02  0.00000000000E+00 0.  1.
</event>
<event>
 7    1  0.6198176E-013  0.5930194E+02  0.7816164E-02  0.1266605E+00
        -11   -1    0    0    0    0  0.00000000000E+00  0.00000000000E+00  0.45593999997E+02  0.45594000000E+02  0.51100000000E-03 0.  1.
         11   -1    0    0    0    0 -0.00000000000E+00 -0.00000000000E+00 -0.45593999997E+02  0.45594000000E+02  0.51100000000E-03 0. -1.
    9900012    2    1    2    0    0  0.14159130368E+02 -0.26598750673E+02 -0.10428150387E+02  0.59301939870E+02  0.49999992417E+02 0.  0.
        -12    1    1    2    0    0 -0.14159130368E+02  0.26598750673E+02  0.10428150387E+02  0.31886060130E+02  0.00000000000E+00 0.  1.
         11    1    3    3    0    0  0.19420607449E+02 -0.21242580847E+02 -0.14842298240E+01  0.28820308346E+02  0.51100000000E-03 0. -1.
        -11    1    3    3    0    0  0.54231780242E+01 -0.13062832029E+02 -0.99133112047E+01  0.17272005669E+02  0.51100000000E-03 0.  1.
        -12    1    3    3    0    0 -0.10684655105E+02  0.77066622036E+01  0.96939064157E+00  0.13209625856E+02  0.00000000000E+00 0.  1.
</event>
<event>
 7    1  0.6198176E-013  0.5930194E+02  0.7816164E-02  0.1266605E+00
        -11   -1    0    0    0    0  0.00000000000E+00  0.00000000000E+00  0.45593999997E+02  0.45594000000E+02  0.51100000000E-03 0.  1.
         11   -1    0    0    0    0 -0.00000000000E+00 -0.00000000000E+00 -0.45593999997E+02  0.45594000000E+02  0.51100000000E-03 0. -1.
    9900012    2    1    2    0    0  0.28196648984E+02  0.17244313285E+01 -0.14788377323E+02  0.59301940645E+02  0.49999993831E+02 0.  0.
        -12    1    1    2    0    0 -0.28196648984E+02 -0.17244313285E+01  0.14788377323E+02  0.31886059355E+02  0.00000000000E+00 0.  1.
         11    1    3    3    0    0  0.79835778131E+01 -0.12820670880E+02 -0.20883932183E+02  0.25772965297E+02  0.51100000000E-03 0. -1.
        -11    1    3    3    0    0  0.14692705053E+02  0.14033430561E+02 -0.51768985517E+01  0.20966950993E+02  0.51100000000E-03 0.  1.
        -12    1    3    3    0    0  0.55203661181E+01  0.51167164774E+00  0.11272453412E+02  0.12562024354E+02  0.00000000000E+00 0.  1.
</event>
<event>
 7    1  0.6198176E-013  0.5930192E+02  0.7816164E-02  0.1266605E+00
        -11   -1    0    0    0    0  0.00000000000E+00  0.00000000000E+00  0.45593999997E+02  0.45594000000E+02  0.51100000000E-03 0.  1.
         11   -1    0    0    0    0 -0.00000000000E+00 -0.00000000000E+00 -0.45593999997E+02  0.45594000000E+02  0.51100000000E-03 0. -1.
    9900012    2    1    2    0    0 -0.27648172091E+02 -0.13375407309E+02 -0.85673438076E+01  0.59301916506E+02  0.49999949807E+02 0.  0.
        -12    1    1    2    0    0  0.27648172091E+02  0.13375407309E+02  0.85673438076E+01  0.31886083494E+02  0.00000000000E+00 0.  1.
         11    1    3    3    0    0 -0.76885856640E+01 -0.25957082747E+01  0.12942485032E+02  0.15276124182E+02  0.51100000000E-03 0. -1.
        -11    1    3    3    0    0 -0.11718063429E+02  0.10280654449E+02 -0.11054803487E+02  0.19110561133E+02  0.51100000000E-03 0.  1.
         12    1    3    3    0    0 -0.82415229980E+01 -0.21060353484E+02 -0.10455025352E+02  0.24915231191E+02  0.00000000000E+00 0. -1.
</event>
<event>
 7    1  0.6198176E-013  0.5930193E+02  0.7816164E-02  0.1266605E+00
        -11   -1    0    0    0    0  0.00000000000E+00  0.00000000000E+00  0.45593999997E+02  0.45594000000E+02  0.51100000000E-03 0. -1.
         11   -1    0    0    0    0 -0.00000000000E+00 -0.00000000000E+00 -0.45593999997E+02  0.45594000000E+02  0.51100000000E-03 0.  1.
    9900012    2    1    2    0    0 -0.27694655179E+02  0.13238502117E+02 -0.86295593511E+01  0.59301934730E+02  0.49999983044E+02 0.  0.
        -12    1    1    2    0    0  0.27694655179E+02 -0.13238502117E+02  0.86295593511E+01  0.31886065270E+02  0.00000000000E+00 0.  1.
         11    1    3    3    0    0 -0.28117948142E+02  0.44340922393E+00  0.11257992169E+02  0.30291219972E+02  0.51100000000E-03 0. -1.
        -11    1    3    3    0    0  0.86295982107E+00  0.38327395451E+01  0.26591765619E+01  0.47440291232E+01  0.51100000000E-03 0.  1.
        -12    1    3    3    0    0 -0.43966685835E+00  0.89623533482E+01 -0.22546728082E+02  0.24266685635E+02  0.00000000000E+00 0.  1.
</event>
<event>
 7    1  0.6198176E-013  0.5930196E+02  0.7816164E-02  0.1266605E+00
        -11   -1    0    0    0    0  0.00000000000E+00  0.00000000000E+00  0.45593999997E+02  0.45594000000E+02  0.51100000000E-03 0.  1.
         11   -1    0    0    0    0 -0.00000000000E+00 -0.00000000000E+00 -0.45593999997E+02  0.45594000000E+02  0.51100000000E-03 0. -1.
    9900012    2    1    2    0    0 -0.84899638827E+00  0.24991975487E+02 -0.19783828802E+02  0.59301960490E+02  0.50000030023E+02 0.  0.
        -12    1    1    2    0    0  0.84899638827E+00 -0.24991975487E+02  0.19783828802E+02  0.31886039510E+02  0.00000000000E+00 0.  1.
         11    1    3    3    0    0 -0.11165772847E+01 -0.10071125300E+00 -0.12697294394E+02  0.12746692621E+02  0.51100000000E-03 0. -1.
        -11    1    3    3    0    0 -0.14355626873E+02 -0.25701571037E+01 -0.39438172058E+01  0.15107727323E+02  0.51100000000E-03 0.  1.
        -12    1    3    3    0    0  0.14623207769E+02  0.27662843844E+02 -0.31427172015E+01  0.31447540546E+02  0.00000000000E+00 0.  1.
</event>
<event>
 7    1  0.6198176E-013  0.5930191E+02  0.7816164E-02  0.1266605E+00
        -11   -1    0    0    0    0  0.00000000000E+00  0.00000000000E+00  0.45593999997E+02  0.45594000000E+02  0.51100000000E-03 0.  1.
         11   -1    0    0    0    0 -0.00000000000E+00 -0.00000000000E+00 -0.45593999997E+02  0.45594000000E+02  0.51100000000E-03 0. -1.
    9900012    2    1    2    0    0  0.20627156936E+02  0.36889134311E+01 -0.24034034138E+02  0.59301913967E+02  0.49999945177E+02 0.  0.
        -12    1    1    2    0    0 -0.20627156936E+02 -0.36889134311E+01  0.24034034138E+02  0.31886086033E+02  0.00000000000E+00 0.  1.
         11    1    3    3    0    0  0.36131200144E+02  0.49473016815E+00 -0.18709920243E+02  0.40691147656E+02  0.51100000000E-03 0. -1.
        -11    1    3    3    0    0 -0.20797587866E+01 -0.25812235018E+00 -0.42126925317E+01  0.47051888789E+01  0.51100000000E-03 0.  1.
        -12    1    3    3    0    0 -0.13424284422E+02  0.34523056131E+01 -0.11114213632E+01  0.13905577433E+02  0.00000000000E+00 0.  1.
</event>
<event>
 7    1  0.6198176E-013  0.5930194E+02  0.7816164E-02  0.1266605E+00
        -11   -1    0    0    0    0  0.00000000000E+00  0.00000000000E+00  0.45593999997E+02  0.45594000000E+02  0.51100000000E-03 0.  1.
         11   -1    0    0    0    0 -0.00000000000E+00 -0.00000000000E+00 -0.45593999997E+02  0.45594000000E+02  0.51100000000E-03 0. -1.
    9900012    2    1    2    0    0  0.17628908242E+01  0.11990345027E+02 -0.29493133630E+02  0.59301935815E+02  0.49999985022E+02 0.  0.
        -12    1    1    2    0    0 -0.17628908242E+01 -0.11990345027E+02  0.29493133630E+02  0.31886064185E+02  0.00000000000E+00 0.  1.
         11    1    3    3    0    0  0.16088162493E+02  0.23607959294E+02 -0.24002661984E+02  0.37313435878E+02  0.51100000000E-03 0. -1.
        -11    1    3    3    0    0 -0.34028998557E+01  0.19112128243E+01 -0.11093388265E+01  0.40574739409E+01  0.51100000000E-03 0.  1.
        -12    1    3    3    0    0 -0.10922371813E+02 -0.13528827092E+02 -0.43811328191E+01  0.17931025996E+02  0.00000000000E+00 0.  1.
</event>
<event>
 7    1  0.6198176E-013  0.5930193E+02  0.7816164E-02  0.1266605E+00
        -11   -1    0    0    0    0  0.00000000000E+00  0.00000000000E+00  0.45593999997E+02  0.45594000000E+02  0.51100000000E-03 0. -1.
         11   -1    0    0    0    0 -0.00000000000E+00 -0.00000000000E+00 -0.45593999997E+02  0.45594000000E+02  0.51100000000E-03 0.  1.
    9900012    2    1    2    0    0 -0.48099309444E+01  0.30452092524E+02 -0.81397677302E+01  0.59301934180E+02  0.49999982039E+02 0.  0.
        -12    1    1    2    0    0  0.48099309444E+01 -0.30452092524E+02  0.81397677302E+01  0.31886065820E+02  0.00000000000E+00 0.  1.
         11    1    3    3    0    0  0.69344988985E+01 -0.47859602220E+01  0.96974383990E+01  0.12846517115E+02  0.51100000000E-03 0. -1.
        -11    1    3    3    0    0 -0.36270211398E+01  0.60432608905E+01  0.48890613971E+01  0.85778322521E+01  0.51100000000E-03 0.  1.
        -12    1    3    3    0    0 -0.81174087030E+01  0.29194791856E+02 -0.22726267526E+02  0.37877584813E+02  0.00000000000E+00 0.  1.
</event>
<event>
 7    1  0.6198176E-013  0.5930192E+02  0.7816164E-02  0.1266605E+00
        -11   -1    0    0    0    0  0.00000000000E+00  0.00000000000E+00  0.45593999997E+02  0.45594000000E+02  0.51100000000E-03 0.  1.
         11   -1    0    0    0    0 -0.00000000000E+00 -0.00000000000E+00 -0.45593999997E+02  0.45594000000E+02  0.51100000000E-03 0. -1.
    9900012    2    1    2    0    0  0.12721642045E+02  0.32847864302E+01 -0.29053260604E+02  0.59301922318E+02  0.49999960407E+02 0.  0.
        -12    1    1    2    0    0 -0.12721642045E+02 -0.32847864302E+01  0.29053260604E+02  0.31886077682E+02  0.00000000000E+00 0.  1.
         11    1    3    3    0    0  0.11170254128E+02 -0.15935271495E+02 -0.77405475765E+01  0.20943340992E+02  0.51100000000E-03 0. -1.
        -11    1    3    3    0    0 -0.73913402553E+01 -0.25259699017E+01 -0.23648950345E+01  0.81611986558E+01  0.51100000000E-03 0.  1.
        -12    1    3    3    0    0  0.89427281726E+01  0.21746027827E+02 -0.18947817993E+02  0.30197382670E+02  0.00000000000E+00 0.  1.
</event>
<event>
 7    1  0.6198176E-013  0.5930197E+02  0.7816164E-02  0.1266605E+00
        -11   -1    0    0    0    0  0.00000000000E+00  0.00000000000E+00  0.45593999997E+02  0.45594000000E+02  0.51100000000E-03 0. -1.
         11   -1    0    0    0    0 -0.00000000000E+00 -0.00000000000E+00 -0.45593999997E+02  0.45594000000E+02  0.51100000000E-03 0.  1.
    9900012    2    1    2    0    0 -0.27630136829E+02  0.90372742538E+01  0.13100450690E+02  0.59301974920E+02  0.50000056340E+02 0.  0.
        -12    1    1    2    0    0  0.27630136829E+02 -0.90372742538E+01 -0.13100450690E+02  0.31886025080E+02  0.00000000000E+00 0.  1.
         11    1    3    3    0    0 -0.14308693673E+02  0.22657823517E+02  0.14581389735E+02  0.30507910581E+02  0.51100000000E-03 0. -1.
        -11    1    3    3    0    0 -0.10885348810E+02  0.32165511841E+01 -0.29220153443E+01  0.11720716452E+02  0.51100000000E-03 0.  1.
        -12    1    3    3    0    0 -0.24360943467E+01 -0.16837100448E+02  0.14410762990E+01  0.17073347886E+02  0.00000000000E+00 0.  1.
</event>
<event>
 7    1  0.6198176E-013  0.5930196E+02  0.7816164E-02  0.1266605E+00
        -11   -1    0    0    0    0  0.00000000000E+00  0.00000000000E+00  0.45593999997E+02  0.45594000000E+02  0.51100000000E-03 0.  1.
         11   -1    0    0    0    0 -0.00000000000E+00 -0.00000000000E+00 -0.45593999997E+02  0.45594000000E+02  0.51100000000E-03 0. -1.
    9900012    2    1    2    0    0  0.38829453711E+01  0.55297311725E+01 -0.31161901381E+02  0.59301964040E+02  0.50000036497E+02 0.  0.
        -12    1    1    2    0    0 -0.38829453711E+01 -0.55297311725E+01  0.31161901381E+02  0.31886035960E+02  0.00000000000E+00 0.  1.
         11    1    3    3    0    0  0.18984931306E+01 -0.31035603383E+01 -0.17788804517E+02  0.18157035257E+02  0.51100000000E-03 0. -1.
        -11    1    3    3    0    0  0.12316204270E+02 -0.95826280081E+01  0.11695967667E+01  0.15648757267E+02  0.51100000000E-03 0.  1.
        -12    1    3    3    0    0 -0.10331752029E+02  0.18215919519E+02 -0.14542693631E+02  0.25496171516E+02  0.00000000000E+00 0.  1.
</event>
<event>
 7    1  0.6198176E-013  0.5930195E+02  0.7816164E-02  0.1266605E+00
        -11   -1    0    0    0    0  0.00000000000E+00  0.00000000000E+00  0.45593999997E+02  0.45594000000E+02  0.51100000000E-03 0. -1.
         11   -1    0    0    0    0 -0.00000000000E+00 -0.00000000000E+00 -0.45593999997E+02  0.45594000000E+02  0.51100000000E-03 0.  1.
    9900012    2    1    2    0    0 -0.15878588393E+02  0.19485082411E+02  0.19619430829E+02  0.59301951766E+02  0.50000014113E+02 0.  0.
        -12    1    1    2    0    0  0.15878588393E+02 -0.19485082411E+02 -0.19619430829E+02  0.31886048234E+02  0.00000000000E+00 0.  1.
         11    1    3    3    0    0  0.62171913879E+00  0.13630541989E+02  0.13872375743E+02  0.19458186416E+02  0.51100000000E-03 0. -1.
        -11    1    3    3    0    0 -0.15366573705E+01 -0.99766499993E+01  0.13380597168E+02  0.16761122931E+02  0.51100000000E-03 0.  1.
        -12    1    3    3    0    0 -0.14963650161E+02  0.15831190421E+02 -0.76335420821E+01  0.23082642419E+02  0.00000000000E+00 0.  1.
</event>
<event>
 7    1  0.6198176E-013  0.5930193E+02  0.7816164E-02  0.1266605E+00
        -11   -1    0    0    0    0  0.00000000000E+00  0.00000000000E+00  0.45593999997E+02  0.45594000000E+02  0.51100000000E-03 0. -1.
         11   -1    0    0    0    0 -0.00000000000E+00 -0.00000000000E+00 -0.45593999997E+02  0.45594000000E+02  0.51100000000E-03 0.  1.
    9900012    2    1    2    0    0 -0.21907450627E+02  0.52494470774E+01 -0.22566088304E+02  0.59301930487E+02  0.49999975306E+02 0.  0.
        -12    1    1    2    0    0  0.21907450627E+02 -0.52494470774E+01  0.22566088304E+02  0.31886069513E+02  0.00000000000E+00 0.  1.
         11    1    3    3    0    0 -0.15934557435E+02  0.28071759606E+01 -0.12951788319E+02  0.20725326980E+02  0.51100000000E-03 0.  1.
        -11    1    3    3    0    0 -0.64962802391E+01  0.12508918880E+02  0.94787790885E+01  0.16985934233E+02  0.51100000000E-03 0. -1.
         12    1    3    3    0    0  0.52338704656E+00 -0.10066647763E+02 -0.19093079074E+02  0.21590669274E+02  0.00000000000E+00 0. -1.
</event>
<event>
 7    1  0.6198176E-013  0.5930193E+02  0.7816164E-02  0.1266605E+00
        -11   -1    0    0    0    0  0.00000000000E+00  0.00000000000E+00  0.45593999997E+02  0.45594000000E+02  0.51100000000E-03 0. -1.
         11   -1    0    0    0    0 -0.00000000000E+00 -0.00000000000E+00 -0.45593999997E+02  0.45594000000E+02  0.51100000000E-03 0.  1.
    9900012    2    1    2    0    0 -0.28328308544E+02  0.57313672969E+01  0.13467722609E+02  0.59301934261E+02  0.49999982187E+02 0.  0.
        -12    1    1    2    0    0  0.28328308544E+02 -0.57313672969E+01 -0.13467722609E+02  0.31886065739E+02  0.00000000000E+00 0.  1.
         11    1    3    3    0    0  0.89982807460E+01  0.10372990473E+01 -0.24190957201E+01  0.93753437304E+01  0.51100000000E-03 0. -1.
        -11    1    3    3    0    0 -0.28959633601E+01 -0.93486515670E+01  0.58876788714E+01  0.11421412026E+02  0.51100000000E-03 0.  1.
         12    1    3    3    0    0 -0.34430625930E+02  0.14042719817E+02  0.99991394575E+01  0.38505178505E+02  0.00000000000E+00 0. -1.
</event>
<event>
 7    1  0.6198176E-013  0.5930193E+02  0.7816164E-02  0.1266605E+00
        -11   -1    0    0    0    0  0.00000000000E+00  0.00000000000E+00  0.45593999997E+02  0.45594000000E+02  0.51100000000E-03 0.  1.
         11   -1    0    0    0    0 -0.00000000000E+00 -0.00000000000E+00 -0.45593999997E+02  0.45594000000E+02  0.51100000000E-03 0. -1.
    9900012    2    1    2    0    0  0.74785841405E+01  0.30064933312E+02 -0.75426624639E+01  0.59301934190E+02  0.49999982058E+02 0.  0.
        -12    1    1    2    0    0 -0.74785841405E+01 -0.30064933312E+02  0.75426624639E+01  0.31886065810E+02  0.00000000000E+00 0.  1.
         11    1    3    3    0    0 -0.58263466504E+00  0.25997704557E+02  0.56807496590E+01  0.26617494666E+02  0.51100000000E-03 0. -1.
        -11    1    3    3    0    0 -0.15700479817E+01  0.43570495457E+01  0.80744090402E+01  0.93083303024E+01  0.51100000000E-03 0.  1.
         12    1    3    3    0    0  0.96312667873E+01 -0.28982079047E+00 -0.21297821163E+02  0.23376109221E+02  0.00000000000E+00 0. -1.
</event>
<event>
 7    1  0.6198176E-013  0.5930195E+02  0.7816164E-02  0.1266605E+00
        -11   -1    0    0    0    0  0.00000000000E+00  0.00000000000E+00  0.45593999997E+02  0.45594000000E+02  0.51100000000E-03 0.  1.
         11   -1    0    0    0    0 -0.00000000000E+00 -0.00000000000E+00 -0.45593999997E+02  0.45594000000E+02  0.51100000000E-03 0. -1.
    9900012    2    1    2    0    0 -0.49576845004E+00  0.12671673476E+02 -0.29255817215E+02  0.59301953899E+02  0.50000018003E+02 0.  0.
        -12    1    1    2    0    0  0.49576845004E+00 -0.12671673476E+02  0.29255817215E+02  0.31886046101E+02  0.00000000000E+00 0.  1.
         11    1    3    3    0    0  0.41927147595E+01  0.34846771247E+01  0.16527250352E+01  0.56967826026E+01  0.51100000000E-03 0. -1.
        -11    1    3    3    0    0 -0.17554354592E+02  0.24269606128E+01  0.18005114155E+01  0.17812561426E+02  0.51100000000E-03 0.  1.
        -12    1    3    3    0    0  0.12865871382E+02  0.67600357384E+01 -0.32709053666E+02  0.35792609870E+02  0.00000000000E+00 0.  1.
</event>
<event>
 7    1  0.6198176E-013  0.5930186E+02  0.7816164E-02  0.1266605E+00
        -11   -1    0    0    0    0  0.00000000000E+00  0.00000000000E+00  0.45593999997E+02  0.45594000000E+02  0.51100000000E-03 0. -1.
         11   -1    0    0    0    0 -0.00000000000E+00 -0.00000000000E+00 -0.45593999997E+02  0.45594000000E+02  0.51100000000E-03 0.  1.
    9900012    2    1    2    0    0 -0.27295826458E+02 -0.23084376380E+01  0.16319775835E+02  0.59301857091E+02  0.49999841447E+02 0.  0.
        -12    1    1    2    0    0  0.27295826458E+02  0.23084376380E+01 -0.16319775835E+02  0.31886142909E+02  0.00000000000E+00 0.  1.
         11    1    3    3    0    0 -0.10777079501E+02  0.15461224017E+02  0.85071733029E+01  0.20677690600E+02  0.51100000000E-03 0. -1.
        -11    1    3    3    0    0 -0.66023126629E+01  0.13347143149E+01 -0.90494295364E+01  0.11281142229E+02  0.51100000000E-03 0.  1.
         12    1    3    3    0    0 -0.99164342934E+01 -0.19104375970E+02  0.16862032069E+02  0.27343024262E+02  0.00000000000E+00 0. -1.
</event>
<event>
 7    1  0.6198176E-013  0.5930195E+02  0.7816164E-02  0.1266605E+00
        -11   -1    0    0    0    0  0.00000000000E+00  0.00000000000E+00  0.45593999997E+02  0.45594000000E+02  0.51100000000E-03 0. -1.
         11   -1    0    0    0    0 -0.00000000000E+00 -0.00000000000E+00 -0.45593999997E+02  0.45594000000E+02  0.51100000000E-03 0.  1.
    9900012    2    1    2    0    0  0.16251614570E+02  0.26576392091E+02  0.68044550388E+01  0.59301949741E+02  0.50000010420E+02 0.  0.
        -12    1    1    2    0    0 -0.16251614570E+02 -0.26576392091E+02 -0.68044550388E+01  0.31886050259E+02  0.00000000000E+00 0.  1.
         11    1    3    3    0    0  0.13706618798E+02  0.11370369062E+02  0.73114910985E+01  0.19251353039E+02  0.51100000000E-03 0. -1.
        -11    1    3    3    0    0  0.18457580213E+02  0.21986965529E+01  0.39911175133E+01  0.19011721466E+02  0.51100000000E-03 0.  1.
        -12    1    3    3    0    0 -0.15912584441E+02  0.13007326476E+02 -0.44981535731E+01  0.21038875236E+02  0.00000000000E+00 0.  1.
</event>
<event>
 7    1  0.6198176E-013  0.5930194E+02  0.7816164E-02  0.1266605E+00
        -11   -1    0    0    0    0  0.00000000000E+00  0.00000000000E+00  0.45593999997E+02  0.45594000000E+02  0.51100000000E-03 0. -1.
         11   -1    0    0    0    0 -0.00000000000E+00 -0.00000000000E+00 -0.45593999997E+02  0.45594000000E+02  0.51100000000E-03 0.  1.
    9900012    2    1    2    0    0  0.26072271617E+02 -0.13571213908E+02  0.12360400896E+02  0.59301941848E+02  0.49999996024E+02 0.  0.
        -12    1    1    2    0    0 -0.26072271617E+02  0.13571213908E+02 -0.12360400896E+02  0.31886058152E+02  0.00000000000E+00 0.  1.
         11    1    3    3    0    0  0.17999802434E+02 -0.14813526546E+02  0.37988576236E+01  0.23619161203E+02  0.51100000000E-03 0. -1.
        -11    1    3    3    0    0  0.16632288239E+02 -0.65503019049E+01 -0.42934498101E+01  0.18384046851E+02  0.51100000000E-03 0.  1.
         12    1    3    3    0    0 -0.85598190562E+01  0.77926145438E+01  0.12854993083E+02  0.17298733793E+02  0.00000000000E+00 0. -1.
</event>
<event>
 7    1  0.6198176E-013  0.5930194E+02  0.7816164E-02  0.1266605E+00
        -11   -1    0    0    0    0  0.00000000000E+00  0.00000000000E+00  0.45593999997E+02  0.45594000000E+02  0.51100000000E-03 0. -1.
         11   -1    0    0    0    0 -0.00000000000E+00 -0.00000000000E+00 -0.45593999997E+02  0.45594000000E+02  0.51100000000E-03 0.  1.
    9900012    2    1    2    0    0 -0.14225362343E+02  0.10869791380E+02  0.26385745427E+02  0.59301939406E+02  0.49999991572E+02 0.  0.
        -12    1    1    2    0    0  0.14225362343E+02 -0.10869791380E+02 -0.26385745427E+02  0.31886060594E+02  0.00000000000E+00 0.  1.
         11    1    3    3    0    0 -0.15659229114E+02 -0.71033418211E+01  0.32566201626E+02  0.36826979378E+02  0.51100000000E-03 0. -1.
        -11    1    3    3    0    0  0.15004883779E+01  0.34566462907E+01  0.34053214813E+01  0.50789845051E+01  0.51100000000E-03 0.  1.
        -12    1    3    3    0    0 -0.66621607053E-01  0.14516486911E+02 -0.95857776806E+01  0.17395975523E+02  0.00000000000E+00 0.  1.
</event>
<event>
 7    1  0.6198176E-013  0.5930189E+02  0.7816164E-02  0.1266605E+00
        -11   -1    0    0    0    0  0.00000000000E+00  0.00000000000E+00  0.45593999997E+02  0.45594000000E+02  0.51100000000E-03 0.  1.
         11   -1    0    0    0    0 -0.00000000000E+00 -0.00000000000E+00 -0.45593999997E+02  0.45594000000E+02  0.51100000000E-03 0. -1.
    9900012    2    1    2    0    0  0.30279350328E+02  0.71451994426E+01 -0.69879044084E+01  0.59301894258E+02  0.49999909232E+02 0.  0.
        -12    1    1    2    0    0 -0.30279350328E+02 -0.71451994426E+01  0.69879044084E+01  0.31886105742E+02  0.00000000000E+00 0.  1.
         11    1    3    3    0    0  0.87186755225E+01  0.22317764921E+02 -0.13779126719E+02  0.27639867354E+02  0.51100000000E-03 0. -1.
        -11    1    3    3    0    0 -0.10339094087E+01 -0.85583950639E-01 -0.26927457872E+01  0.28856842193E+01  0.51100000000E-03 0.  1.
        -12    1    3    3    0    0  0.22594584214E+02 -0.15086981527E+02  0.94839680979E+01  0.28776342685E+02  0.00000000000E+00 0.  1.
</event>
<event>
 7    1  0.6198176E-013  0.5930191E+02  0.7816164E-02  0.1266605E+00
        -11   -1    0    0    0    0  0.00000000000E+00  0.00000000000E+00  0.45593999997E+02  0.45594000000E+02  0.51100000000E-03 0.  1.
         11   -1    0    0    0    0 -0.00000000000E+00 -0.00000000000E+00 -0.45593999997E+02  0.45594000000E+02  0.51100000000E-03 0. -1.
    9900012    2    1    2    0    0 -0.20993843068E+02 -0.23480488273E+02 -0.49646703240E+01  0.59301910122E+02  0.49999938163E+02 0.  0.
        -12    1    1    2    0    0  0.20993843068E+02  0.23480488273E+02  0.49646703240E+01  0.31886089878E+02  0.00000000000E+00 0.  1.
         11    1    3    3    0    0 -0.10588546864E+02  0.43818646449E+01 -0.62718788945E+01  0.13063480684E+02  0.51100000000E-03 0. -1.
        -11    1    3    3    0    0  0.13320409813E+01  0.79168252839E+01 -0.24566752368E+01  0.83955767659E+01  0.51100000000E-03 0.  1.
         12    1    3    3    0    0 -0.11737337185E+02 -0.35779178202E+02  0.37638838073E+01  0.37842852671E+02  0.00000000000E+00 0. -1.
</event>
<event>
 7    1  0.6198176E-013  0.5930198E+02  0.7816164E-02  0.1266605E+00
        -11   -1    0    0    0    0  0.00000000000E+00  0.00000000000E+00  0.45593999997E+02  0.45594000000E+02  0.51100000000E-03 0.  1.
         11   -1    0    0    0    0 -0.00000000000E+00 -0.00000000000E+00 -0.45593999997E+02  0.45594000000E+02  0.51100000000E-03 0. -1.
    9900012    2    1    2    0    0 -0.54715415958E+01 -0.74201242364E+01 -0.30524129522E+02  0.59301976507E+02  0.50000059235E+02 0.  0.
        -12    1    1    2    0    0  0.54715415958E+01  0.74201242364E+01  0.30524129522E+02  0.31886023493E+02  0.00000000000E+00 0.  1.
         11    1    3    3    0    0  0.71625297907E+00  0.13738607642E+02 -0.23207602549E+02  0.26978791200E+02  0.51100000000E-03 0. -1.
        -11    1    3    3    0    0  0.10656800864E+01  0.35110802756E+01  0.28766993680E+01  0.46624841300E+01  0.51100000000E-03 0.  1.
         12    1    3    3    0    0 -0.72534746612E+01 -0.24669812154E+02 -0.10193226341E+02  0.27660701177E+02  0.00000000000E+00 0. -1.
</event>
<event>
 7    1  0.6198176E-013  0.5930193E+02  0.7816164E-02  0.1266605E+00
        -11   -1    0    0    0    0  0.00000000000E+00  0.00000000000E+00  0.45593999997E+02  0.45594000000E+02  0.51100000000E-03 0.  1.
         11   -1    0    0    0    0 -0.00000000000E+00 -0.00000000000E+00 -0.45593999997E+02  0.45594000000E+02  0.51100000000E-03 0. -1.
    9900012    2    1    2    0    0  0.30154303646E+02  0.78290181812E+01 -0.67930937886E+01  0.59301926593E+02  0.49999968204E+02 0.  0.
        -12    1    1    2    0    0 -0.30154303646E+02 -0.78290181812E+01  0.67930937886E+01  0.31886073407E+02  0.00000000000E+00 0.  1.
         11    1    3    3    0    0  0.26374700771E+02  0.10923795968E+02 -0.13461078922E+02  0.31561920175E+02  0.51100000000E-03 0. -1.
        -11    1    3    3    0    0  0.76618749436E+01  0.53355272915E+01  0.13359017129E+02  0.16298328688E+02  0.51100000000E-03 0.  1.
        -12    1    3    3    0    0 -0.38822720680E+01 -0.84303050785E+01 -0.66910319948E+01  0.11441677730E+02  0.00000000000E+00 0.  1.
</event>
<event>
 7    1  0.6198176E-013  0.5930195E+02  0.7816164E-02  0.1266605E+00
        -11   -1    0    0    0    0  0.00000000000E+00  0.00000000000E+00  0.45593999997E+02  0.45594000000E+02  0.51100000000E-03 0. -1.
         11   -1    0    0    0    0 -0.00000000000E+00 -0.00000000000E+00 -0.45593999997E+02  0.45594000000E+02  0.51100000000E-03 0.  1.
    9900012    2    1    2    0    0 -0.12121265774E+02 -0.58771149971E+01  0.28900774180E+02  0.59301947988E+02  0.50000007223E+02 0.  0.
        -12    1    1    2    0    0  0.12121265774E+02  0.58771149971E+01 -0.28900774180E+02  0.31886052012E+02  0.00000000000E+00 0.  1.
         11    1    3    3    0    0 -0.51271820718E+01  0.63111394508E+01  0.18476443230E+02  0.20186565628E+02  0.51100000000E-03 0. -1.
        -11    1    3    3    0    0 -0.12327752498E+02  0.84833218516E+01  0.95432373224E+01  0.17748622767E+02  0.51100000000E-03 0.  1.
         12    1    3    3    0    0  0.53336687956E+01 -0.20671576299E+02  0.88109362791E+00  0.21366759593E+02  0.00000000000E+00 0. -1.
</event>
<event>
 7    1  0.6198176E-013  0.5930194E+02  0.7816164E-02  0.1266605E+00
        -11   -1    0    0    0    0  0.00000000000E+00  0.00000000000E+00  0.45593999997E+02  0.45594000000E+02  0.51100000000E-03 0.  1.
         11   -1    0    0    0    0 -0.00000000000E+00 -0.00000000000E+00 -0.45593999997E+02  0.45594000000E+02  0.51100000000E-03 0. -1.
    9900012    2    1    2    0    0 -0.15317903797E+02  0.24234360717E+02 -0.13956297866E+02  0.59301942448E+02  0.49999997118E+02 0.  0.
        -12    1    1    2    0    0  0.15317903797E+02 -0.24234360717E+02  0.13956297866E+02  0.31886057552E+02  0.00000000000E+00 0.  1.
         11    1    3    3    0    0 -0.30164673756E+00  0.10811501010E+02  0.26947637149E+01  0.11146357996E+02  0.51100000000E-03 0.  1.
        -11    1    3    3    0    0 -0.21767679233E+02  0.20449295259E+02 -0.12026046555E+01  0.29890663994E+02  0.51100000000E-03 0. -1.
        -12    1    3    3    0    0  0.67514221738E+01 -0.70264355515E+01 -0.15448456926E+02  0.18264920457E+02  0.00000000000E+00 0.  1.
</event>
<event>
 7    1  0.6198176E-013  0.5930192E+02  0.7816164E-02  0.1266605E+00
        -11   -1    0    0    0    0  0.00000000000E+00  0.00000000000E+00  0.45593999997E+02  0.45594000000E+02  0.51100000000E-03 0. -1.
         11   -1    0    0    0    0 -0.00000000000E+00 -0.00000000000E+00 -0.45593999997E+02  0.45594000000E+02  0.51100000000E-03 0.  1.
    9900012    2    1    2    0    0  0.27711094895E+02 -0.15724629998E+02 -0.12462947033E+01  0.59301921230E+02  0.49999958422E+02 0.  0.
        -12    1    1    2    0    0 -0.27711094895E+02  0.15724629998E+02  0.12462947033E+01  0.31886078770E+02  0.00000000000E+00 0.  1.
         11    1    3    3    0    0  0.95127350735E+01 -0.65013707666E+01  0.35271312174E+01  0.12049921382E+02  0.51100000000E-03 0.  1.
        -11    1    3    3    0    0  0.23845917277E+01 -0.84471040376E+01  0.17702709531E+02  0.19759194552E+02  0.51100000000E-03 0. -1.
        -12    1    3    3    0    0  0.15813768094E+02 -0.77615519403E+00 -0.22476135452E+02  0.27492805296E+02  0.00000000000E+00 0.  1.
</event>
<event>
 7    1  0.6198176E-013  0.5930186E+02  0.7816164E-02  0.1266605E+00
        -11   -1    0    0    0    0  0.00000000000E+00  0.00000000000E+00  0.45593999997E+02  0.45594000000E+02  0.51100000000E-03 0.  1.
         11   -1    0    0    0    0 -0.00000000000E+00 -0.00000000000E+00 -0.45593999997E+02  0.45594000000E+02  0.51100000000E-03 0. -1.
    9900012    2    1    2    0    0  0.91661864604E+01 -0.30364118589E+02 -0.32752185461E+01  0.59301863068E+02  0.49999852348E+02 0.  0.
        -12    1    1    2    0    0 -0.91661864604E+01  0.30364118589E+02  0.32752185461E+01  0.31886136932E+02  0.00000000000E+00 0.  1.
         11    1    3    3    0    0  0.10089868570E+02  0.50351748676E+01 -0.77118111700E+01  0.13661276130E+02  0.51100000000E-03 0. -1.
        -11    1    3    3    0    0  0.13321087725E+02 -0.18092987133E+02  0.57347889184E+01  0.23188259223E+02  0.51100000000E-03 0.  1.
        -12    1    3    3    0    0 -0.14244769835E+02 -0.17306306324E+02 -0.12981962944E+01  0.22452327716E+02  0.00000000000E+00 0.  1.
</event>
<event>
 7    1  0.6198176E-013  0.5930194E+02  0.7816164E-02  0.1266605E+00
        -11   -1    0    0    0    0  0.00000000000E+00  0.00000000000E+00  0.45593999997E+02  0.45594000000E+02  0.51100000000E-03 0. -1.
         11   -1    0    0    0    0 -0.00000000000E+00 -0.00000000000E+00 -0.45593999997E+02  0.45594000000E+02  0.51100000000E-03 0.  1.
    9900012    2    1    2    0    0  0.27223793709E+02  0.16482835146E+02  0.19752840067E+01  0.59301944344E+02  0.50000000578E+02 0.  0.
        -12    1    1    2    0    0 -0.27223793709E+02 -0.16482835146E+02 -0.19752840067E+01  0.31886055656E+02  0.00000000000E+00 0.  1.
         11    1    3    3    0    0  0.10759998307E+02 -0.36214753784E+01 -0.15547565385E+02  0.19251478830E+02  0.51100000000E-03 0.  1.
        -11    1    3    3    0    0  0.12933176378E+02  0.71271182661E+00 -0.10145616546E+01  0.12992472628E+02  0.51100000000E-03 0. -1.
        -12    1    3    3    0    0  0.35306190245E+01  0.19391598697E+02  0.18537411047E+02  0.27057992887E+02  0.00000000000E+00 0.  1.
</event>
<event>
 7    1  0.6198176E-013  0.5930196E+02  0.7816164E-02  0.1266605E+00
        -11   -1    0    0    0    0  0.00000000000E+00  0.00000000000E+00  0.45593999997E+02  0.45594000000E+02  0.51100000000E-03 0.  1.
         11   -1    0    0    0    0 -0.00000000000E+00 -0.00000000000E+00 -0.45593999997E+02  0.45594000000E+02  0.51100000000E-03 0. -1.
    9900012    2    1    2    0    0  0.16527052431E+02 -0.27238376391E+02  0.12833085734E+01  0.59301960870E+02  0.50000030717E+02 0.  0.
        -12    1    1    2    0    0 -0.16527052431E+02  0.27238376391E+02 -0.12833085734E+01  0.31886039130E+02  0.00000000000E+00 0.  1.
         11    1    3    3    0    0  0.20058508625E+02 -0.74376391895E+00  0.66975846143E+01  0.21160212498E+02  0.51100000000E-03 0. -1.
        -11    1    3    3    0    0 -0.29969378621E+00  0.44382801830E+01 -0.54571024765E+01  0.70404627013E+01  0.51100000000E-03 0.  1.
         12    1    3    3    0    0 -0.32317624078E+01 -0.30932892656E+02  0.42826435642E-01  0.31101285671E+02  0.00000000000E+00 0. -1.
</event>
<event>
 7    1  0.6198176E-013  0.5930192E+02  0.7816164E-02  0.1266605E+00
        -11   -1    0    0    0    0  0.00000000000E+00  0.00000000000E+00  0.45593999997E+02  0.45594000000E+02  0.51100000000E-03 0.  1.
         11   -1    0    0    0    0 -0.00000000000E+00 -0.00000000000E+00 -0.45593999997E+02  0.45594000000E+02  0.51100000000E-03 0. -1.
    9900012    2    1    2    0    0 -0.17315362182E+02  0.74948916514E+01 -0.25704603849E+02  0.59301924240E+02  0.49999963912E+02 0.  0.
        -12    1    1    2    0    0  0.17315362182E+02 -0.74948916514E+01  0.25704603849E+02  0.31886075760E+02  0.00000000000E+00 0.  1.
         11    1    3    3    0    0 -0.77015844835E+00  0.53115071063E+01 -0.18448619497E+02  0.19213453968E+02  0.51100000000E-03 0. -1.
        -11    1    3    3    0    0 -0.20959783803E+02 -0.10001215038E+02  0.31917164793E+01  0.23441925980E+02  0.51100000000E-03 0.  1.
         12    1    3    3    0    0  0.44145800702E+01  0.12184599583E+02 -0.10447700831E+02  0.16646544292E+02  0.00000000000E+00 0. -1.
</event>
<event>
 7    1  0.6198176E-013  0.5930196E+02  0.7816164E-02  0.1266605E+00
        -11   -1    0    0    0    0  0.00000000000E+00  0.00000000000E+00  0.45593999997E+02  0.45594000000E+02  0.51100000000E-03 0. -1.
         11   -1    0    0    0    0 -0.00000000000E+00 -0.00000000000E+00 -0.45593999997E+02  0.45594000000E+02  0.51100000000E-03 0.  1.
    9900012    2    1    2    0    0  0.56703022117E+01 -0.28286837237E+02  0.13580203573E+02  0.59301962035E+02  0.50000032841E+02 0.  0.
        -12    1    1    2    0    0 -0.56703022117E+01  0.28286837237E+02 -0.13580203573E+02  0.31886037965E+02  0.00000000000E+00 0.  1.
         11    1    3    3    0    0  0.91648154392E+00 -0.21301982691E+02 -0.34626634961E+01  0.21601028766E+02  0.51100000000E-03 0. -1.
        -11    1    3    3    0    0 -0.11040981663E+02  0.38844555095E+01  0.14064529672E+02  0.18297630061E+02  0.51100000000E-03 0.  1.
         12    1    3    3    0    0  0.15794802331E+02 -0.10869310055E+02  0.29783373970E+01  0.19403303208E+02  0.00000000000E+00 0. -1.
</event>
<event>
 7    1  0.6198176E-013  0.5930195E+02  0.7816164E-02  0.1266605E+00
        -11   -1    0    0    0    0  0.00000000000E+00  0.00000000000E+00  0.45593999997E+02  0.45594000000E+02  0.51100000000E-03 0.  1.
         11   -1    0    0    0    0 -0.00000000000E+00 -0.00000000000E+00 -0.45593999997E+02  0.45594000000E+02  0.51100000000E-03 0. -1.
    9900012    2    1    2    0    0 -0.17322540981E+02 -0.15227397111E+02 -0.22017625202E+02  0.59301954959E+02  0.50000019936E+02 0.  0.
        -12    1    1    2    0    0  0.17322540981E+02  0.15227397111E+02  0.22017625202E+02  0.31886045041E+02  0.00000000000E+00 0.  1.
         11    1    3    3    0    0 -0.84224567432E+01 -0.19297158892E+02 -0.74346196922E+01  0.22329166781E+02  0.51100000000E-03 0. -1.
        -11    1    3    3    0    0 -0.95645121356E+01  0.40337590208E+01 -0.24721553414E+02  0.26812428232E+02  0.51100000000E-03 0.  1.
        -12    1    3    3    0    0  0.66442789767E+00  0.36002760354E-01  0.10138547904E+02  0.10160359946E+02  0.00000000000E+00 0.  1.
</event>
<event>
 7    1  0.6198176E-013  0.5930194E+02  0.7816164E-02  0.1266605E+00
        -11   -1    0    0    0    0  0.00000000000E+00  0.00000000000E+00  0.45593999997E+02  0.45594000000E+02  0.51100000000E-03 0.  1.
         11   -1    0    0    0    0 -0.00000000000E+00 -0.00000000000E+00 -0.45593999997E+02  0.45594000000E+02  0.51100000000E-03 0. -1.
    9900012    2    1    2    0    0  0.29799689439E+02 -0.97435525186E+01 -0.58105387789E+01  0.59301942432E+02  0.49999997090E+02 0.  0.
        -12    1    1    2    0    0 -0.29799689439E+02  0.97435525186E+01  0.58105387789E+01  0.31886057568E+02  0.00000000000E+00 0.  1.
         11    1    3    3    0    0  0.17390065038E+02 -0.17999019399E+02 -0.10650877845E+02  0.27199637138E+02  0.51100000000E-03 0. -1.
        -11    1    3    3    0    0  0.19774961924E+02 -0.52132232972E+00  0.31808061106E+00  0.19784389594E+02  0.51100000000E-03 0.  1.
         12    1    3    3    0    0 -0.73653375229E+01  0.87767892096E+01  0.45222584554E+01  0.12317915700E+02  0.00000000000E+00 0. -1.
</event>
<event>
 7    1  0.6198176E-013  0.5930193E+02  0.7816164E-02  0.1266605E+00
        -11   -1    0    0    0    0  0.00000000000E+00  0.00000000000E+00  0.45593999997E+02  0.45594000000E+02  0.51100000000E-03 0. -1.
         11   -1    0    0    0    0 -0.00000000000E+00 -0.00000000000E+00 -0.45593999997E+02  0.45594000000E+02  0.51100000000E-03 0.  1.
    9900012    2    1    2    0    0 -0.23978666422E+02  0.20889971685E+02  0.23139536470E+01  0.59301925581E+02  0.49999966357E+02 0.  0.
        -12    1    1    2    0    0  0.23978666422E+02 -0.20889971685E+02 -0.23139536470E+01  0.31886074419E+02  0.00000000000E+00 0.  1.
         11    1    3    3    0    0 -0.11758110463E+02  0.19521485524E+00 -0.25696593672E+01  0.12037209810E+02  0.51100000000E-03 0. -1.
        -11    1    3    3    0    0 -0.27789866506E+00  0.56248351388E+00 -0.15929507156E+02  0.15941857291E+02  0.51100000000E-03 0.  1.
         12    1    3    3    0    0 -0.11942657294E+02  0.20132273316E+02  0.20813120170E+02  0.31322858480E+02  0.00000000000E+00 0. -1.
</event>
<event>
 7    1  0.6198176E-013  0.5930203E+02  0.7816164E-02  0.1266604E+00
        -11   -1    0    0    0    0  0.00000000000E+00  0.00000000000E+00  0.45593999997E+02  0.45594000000E+02  0.51100000000E-03 0.  1.
         11   -1    0    0    0    0 -0.00000000000E+00 -0.00000000000E+00 -0.45593999997E+02  0.45594000000E+02  0.51100000000E-03 0. -1.
    9900012    2    1    2    0    0  0.32330111202E+01  0.15265404949E+02 -0.27807019862E+02  0.59302026552E+02  0.50000150503E+02 0.  0.
        -12    1    1    2    0    0 -0.32330111202E+01 -0.15265404949E+02  0.27807019862E+02  0.31885973448E+02  0.00000000000E+00 0.  1.
         11    1    3    3    0    0 -0.14659363561E+01  0.35462084191E+01 -0.38129091299E+02  0.38321693166E+02  0.51100000000E-03 0. -1.
        -11    1    3    3    0    0  0.25478046124E+01 -0.19718682323E+01 -0.67089337725E+00  0.32908465253E+01  0.51100000000E-03 0.  1.
        -12    1    3    3    0    0  0.21511428640E+01  0.13691064762E+02  0.10992964815E+02  0.17689486860E+02  0.00000000000E+00 0.  1.
</event>
<event>
 7    1  0.6198176E-013  0.5930202E+02  0.7816164E-02  0.1266604E+00
        -11   -1    0    0    0    0  0.00000000000E+00  0.00000000000E+00  0.45593999997E+02  0.45594000000E+02  0.51100000000E-03 0.  1.
         11   -1    0    0    0    0 -0.00000000000E+00 -0.00000000000E+00 -0.45593999997E+02  0.45594000000E+02  0.51100000000E-03 0. -1.
    9900012    2    1    2    0    0 -0.23520676798E+02  0.47725172843E+01 -0.20993247745E+02  0.59302021748E+02  0.50000141742E+02 0.  0.
        -12    1    1    2    0    0  0.23520676798E+02 -0.47725172843E+01  0.20993247745E+02  0.31885978252E+02  0.00000000000E+00 0.  1.
         11    1    3    3    0    0  0.34128886665E+01  0.16862589669E+02 -0.20413804477E+01  0.17325183225E+02  0.51100000000E-03 0. -1.
        -11    1    3    3    0    0  0.38205674859E+01 -0.28595730632E+01 -0.51664647230E+01  0.70332248659E+01  0.51100000000E-03 0.  1.
         12    1    3    3    0    0 -0.30754132950E+02 -0.92304993217E+01 -0.13785402574E+02  0.34943613656E+02  0.00000000000E+00 0. -1.
</event>
<event>
 7    1  0.6198176E-013  0.5930195E+02  0.7816164E-02  0.1266605E+00
        -11   -1    0    0    0    0  0.00000000000E+00  0.00000000000E+00  0.45593999997E+02  0.45594000000E+02  0.51100000000E-03 0.  1.
         11   -1    0    0    0    0 -0.00000000000E+00 -0.00000000000E+00 -0.45593999997E+02  0.45594000000E+02  0.51100000000E-03 0. -1.
    9900012    2    1    2    0    0  0.10349140823E+02 -0.10202018971E+02 -0.28381930474E+02  0.59301954709E+02  0.50000019480E+02 0.  0.
        -12    1    1    2    0    0 -0.10349140823E+02  0.10202018971E+02  0.28381930474E+02  0.31886045291E+02  0.00000000000E+00 0.  1.
         11    1    3    3    0    0  0.42391143549E+01  0.43431453661E+01 -0.96552751471E+00  0.61453434264E+01  0.51100000000E-03 0. -1.
        -11    1    3    3    0    0 -0.78171173195E+01  0.55635966262E+01  0.63173065779E+01  0.11487788876E+02  0.51100000000E-03 0.  1.
         12    1    3    3    0    0  0.13927143788E+02 -0.20108760963E+02 -0.33733709538E+02  0.41668822406E+02  0.00000000000E+00 0. -1.
</event>
<event>
 7    1  0.6198176E-013  0.5930190E+02  0.7816164E-02  0.1266605E+00
        -11   -1    0    0    0    0  0.00000000000E+00  0.00000000000E+00  0.45593999997E+02  0.45594000000E+02  0.51100000000E-03 0.  1.
         11   -1    0    0    0    0 -0.00000000000E+00 -0.00000000000E+00 -0.45593999997E+02  0.45594000000E+02  0.51100000000E-03 0. -1.
    9900012    2    1    2    0    0 -0.51686345485E+01  0.11383424666E+02 -0.29333027872E+02  0.59301895435E+02  0.49999911379E+02 0.  0.
        -12    1    1    2    0    0  0.51686345485E+01 -0.11383424666E+02  0.29333027872E+02  0.31886104565E+02  0.00000000000E+00 0.  1.
         11    1    3    3    0    0 -0.83124740049E+01 -0.23592018021E+01 -0.14868488461E+02  0.17196947595E+02  0.51100000000E-03 0. -1.
        -11    1    3    3    0    0  0.17889712569E+01 -0.10553861425E+02 -0.14182944805E+02  0.17769083621E+02  0.51100000000E-03 0.  1.
         12    1    3    3    0    0  0.13548681995E+01  0.24296487892E+02 -0.28159460537E+00  0.24335864218E+02  0.00000000000E+00 0. -1.
</event>
<event>
 7    1  0.6198176E-013  0.5930194E+02  0.7816164E-02  0.1266605E+00
        -11   -1    0    0    0    0  0.00000000000E+00  0.00000000000E+00  0.45593999997E+02  0.45594000000E+02  0.51100000000E-03 0.  1.
         11   -1    0    0    0    0 -0.00000000000E+00 -0.00000000000E+00 -0.45593999997E+02  0.45594000000E+02  0.51100000000E-03 0. -1.
    9900012    2    1    2    0    0  0.42608830244E+01  0.52660927024E+01 -0.31158212730E+02  0.59301936006E+02  0.49999985371E+02 0.  0.
        -12    1    1    2    0    0 -0.42608830244E+01 -0.52660927024E+01  0.31158212730E+02  0.31886063994E+02  0.00000000000E+00 0.  1.
         11    1    3    3    0    0 -0.43897127463E+00  0.75023844945E+01 -0.93088608279E+01  0.11963835466E+02  0.51100000000E-03 0. -1.
        -11    1    3    3    0    0  0.12781323891E+01  0.56969628831E+01  0.11494913391E+02  0.12892712772E+02  0.51100000000E-03 0.  1.
         12    1    3    3    0    0  0.34217219099E+01 -0.79332546753E+01 -0.33344265293E+02  0.34445387768E+02  0.00000000000E+00 0. -1.
</event>
<event>
 7    1  0.6198176E-013  0.5930195E+02  0.7816164E-02  0.1266605E+00
        -11   -1    0    0    0    0  0.00000000000E+00  0.00000000000E+00  0.45593999997E+02  0.45594000000E+02  0.51100000000E-03 0.  1.
         11   -1    0    0    0    0 -0.00000000000E+00 -0.00000000000E+00 -0.45593999997E+02  0.45594000000E+02  0.51100000000E-03 0. -1.
    9900012    2    1    2    0    0 -0.22284454454E+02 -0.44637372105E+01 -0.22365112905E+02  0.59301950771E+02  0.50000012298E+02 0.  0.
        -12    1    1    2    0    0  0.22284454454E+02  0.44637372105E+01  0.22365112905E+02  0.31886049229E+02  0.00000000000E+00 0.  1.
         11    1    3    3    0    0 -0.14821165855E+02 -0.71006998288E+01 -0.16442483624E+02  0.23247411971E+02  0.51100000000E-03 0. -1.
        -11    1    3    3    0    0  0.12862568251E+02 -0.15534814505E+01 -0.79527761595E+01  0.15202158252E+02  0.51100000000E-03 0.  1.
         12    1    3    3    0    0 -0.20325856849E+02  0.41904440688E+01  0.20301468780E+01  0.20852380548E+02  0.00000000000E+00 0. -1.
</event>
<event>
 7    1  0.6198176E-013  0.5930200E+02  0.7816164E-02  0.1266605E+00
        -11   -1    0    0    0    0  0.00000000000E+00  0.00000000000E+00  0.45593999997E+02  0.45594000000E+02  0.51100000000E-03 0.  1.
         11   -1    0    0    0    0 -0.00000000000E+00 -0.00000000000E+00 -0.45593999997E+02  0.45594000000E+02  0.51100000000E-03 0. -1.
    9900012    2    1    2    0    0 -0.29621470575E+02  0.79173178478E+01  0.87522191935E+01  0.59302003360E+02  0.50000108207E+02 0.  0.
        -12    1    1    2    0    0  0.29621470575E+02 -0.79173178478E+01 -0.87522191935E+01  0.31885996640E+02  0.00000000000E+00 0.  1.
         11    1    3    3    0    0 -0.26667284329E+02  0.70943766014E+01 -0.37829112334E+00  0.27597415409E+02  0.51100000000E-03 0. -1.
        -11    1    3    3    0    0 -0.61726926114E+01  0.13926175189E+02 -0.31187496154E+00  0.15236067594E+02  0.51100000000E-03 0.  1.
        -12    1    3    3    0    0  0.32185063649E+01 -0.13103233943E+02  0.94423852784E+01  0.16468520356E+02  0.00000000000E+00 0.  1.
</event>
<event>
 7    1  0.6198176E-013  0.5930194E+02  0.7816164E-02  0.1266605E+00
        -11   -1    0    0    0    0  0.00000000000E+00  0.00000000000E+00  0.45593999997E+02  0.45594000000E+02  0.51100000000E-03 0.  1.
         11   -1    0    0    0    0 -0.00000000000E+00 -0.00000000000E+00 -0.45593999997E+02  0.45594000000E+02  0.51100000000E-03 0. -1.
    9900012    2    1    2    0    0 -0.22957023089E+02  0.20740041814E+01 -0.22031672825E+02  0.59301937058E+02  0.49999987289E+02 0.  0.
        -12    1    1    2    0    0  0.22957023089E+02 -0.20740041814E+01  0.22031672825E+02  0.31886062942E+02  0.00000000000E+00 0.  1.
         11    1    3    3    0    0  0.10941404242E+01 -0.12838412178E+02 -0.25222200133E+01  0.13129492167E+02  0.51100000000E-03 0. -1.
        -11    1    3    3    0    0 -0.20981330216E+02  0.76089131680E+01 -0.27163664632E+02  0.35156456786E+02  0.51100000000E-03 0.  1.
        -12    1    3    3    0    0 -0.30698332974E+01  0.73035031912E+01  0.76542118206E+01  0.11015988105E+02  0.00000000000E+00 0.  1.
</event>
<event>
 7    1  0.6198176E-013  0.5930198E+02  0.7816164E-02  0.1266605E+00
        -11   -1    0    0    0    0  0.00000000000E+00  0.00000000000E+00  0.45593999997E+02  0.45594000000E+02  0.51100000000E-03 0.  1.
         11   -1    0    0    0    0 -0.00000000000E+00 -0.00000000000E+00 -0.45593999997E+02  0.45594000000E+02  0.51100000000E-03 0. -1.
    9900012    2    1    2    0    0 -0.98723735560E+01  0.15168652680E+02 -0.26251981129E+02  0.59301979600E+02  0.50000064876E+02 0.  0.
        -12    1    1    2    0    0  0.98723735560E+01 -0.15168652680E+02  0.26251981129E+02  0.31886020400E+02  0.00000000000E+00 0.  1.
         11    1    3    3    0    0  0.67832389718E+01 -0.89622394469E+00 -0.77101552371E+01  0.10308348187E+02  0.51100000000E-03 0. -1.
        -11    1    3    3    0    0  0.10896597392E+02  0.51124833842E+01  0.29277847567E+01  0.12387301761E+02  0.51100000000E-03 0.  1.
         12    1    3    3    0    0 -0.27552209920E+02  0.10952393240E+02 -0.21469610648E+02  0.36606329652E+02  0.00000000000E+00 0. -1.
</event>
<event>
 7    1  0.6198176E-013  0.5930215E+02  0.7816164E-02  0.1266604E+00
        -11   -1    0    0    0    0  0.00000000000E+00  0.00000000000E+00  0.45593999997E+02  0.45594000000E+02  0.51100000000E-03 0.  1.
         11   -1    0    0    0    0 -0.00000000000E+00 -0.00000000000E+00 -0.45593999997E+02  0.45594000000E+02  0.51100000000E-03 0. -1.
    9900012    2    1    2    0    0  0.38485202883E+00 -0.31872313362E+02  0.84536990694E+00  0.59302154858E+02  0.50000384503E+02 0.  0.
        -12    1    1    2    0    0 -0.38485202883E+00  0.31872313362E+02 -0.84536990694E+00  0.31885845142E+02  0.00000000000E+00 0.  1.
         11    1    3    3    0    0 -0.95734933057E+01 -0.34598046747E+01 -0.39825189333E+01  0.10930804169E+02  0.51100000000E-03 0. -1.
        -11    1    3    3    0    0 -0.35659814810E+01 -0.19064979968E+01 -0.13046432886E+02  0.13658710402E+02  0.51100000000E-03 0.  1.
        -12    1    3    3    0    0  0.13524326816E+02 -0.26506010690E+02  0.17874321727E+02  0.34712640287E+02  0.00000000000E+00 0.  1.
</event>
<event>
 7    1  0.6198176E-013  0.5930196E+02  0.7816164E-02  0.1266605E+00
        -11   -1    0    0    0    0  0.00000000000E+00  0.00000000000E+00  0.45593999997E+02  0.45594000000E+02  0.51100000000E-03 0. -1.
         11   -1    0    0    0    0 -0.00000000000E+00 -0.00000000000E+00 -0.45593999997E+02  0.45594000000E+02  0.51100000000E-03 0.  1.
    9900012    2    1    2    0    0  0.19700722604E+01 -0.21473208712E+02  0.23489143489E+02  0.59301956989E+02  0.50000023638E+02 0.  0.
        -12    1    1    2    0    0 -0.19700722604E+01  0.21473208712E+02 -0.23489143489E+02  0.31886043011E+02  0.00000000000E+00 0.  1.
         11    1    3    3    0    0 -0.73004970347E+01 -0.11517450615E+02  0.30862926546E+02  0.33741208645E+02  0.51100000000E-03 0. -1.
        -11    1    3    3    0    0 -0.14539343315E+01 -0.27573269024E+01  0.61282826179E+01  0.68755090570E+01  0.51100000000E-03 0.  1.
        -12    1    3    3    0    0  0.10724503627E+02 -0.71984311949E+01 -0.13502065675E+02  0.18685239287E+02  0.00000000000E+00 0.  1.
</event>
<event>
 7    1  0.6198176E-013  0.5930198E+02  0.7816164E-02  0.1266605E+00
        -11   -1    0    0    0    0  0.00000000000E+00  0.00000000000E+00  0.45593999997E+02  0.45594000000E+02  0.51100000000E-03 0.  1.
         11   -1    0    0    0    0 -0.00000000000E+00 -0.00000000000E+00 -0.45593999997E+02  0.45594000000E+02  0.51100000000E-03 0. -1.
    9900012    2    1    2    0    0 -0.25377842283E+02 -0.19066960012E+02 -0.30223443905E+01  0.59301977848E+02  0.50000061680E+02 0.  0.
        -12    1    1    2    0    0  0.25377842283E+02  0.19066960012E+02  0.30223443905E+01  0.31886022152E+02  0.00000000000E+00 0.  1.
         11    1    3    3    0    0 -0.14541082777E+02  0.51763991231E+01 -0.65188496893E+01  0.16755106617E+02  0.51100000000E-03 0. -1.
        -11    1    3    3    0    0  0.58733057867E+01 -0.20884155253E+02 -0.66752362427E+01  0.22698071298E+02  0.51100000000E-03 0.  1.
         12    1    3    3    0    0 -0.16710065292E+02 -0.33592038825E+01  0.10171741542E+02  0.19848799933E+02  0.00000000000E+00 0. -1.
</event>
<event>
 7    1  0.7385917E-013  0.5930194E+02  0.7816164E-02  0.1266605E+00
        -11   -1    0    0    0    0  0.00000000000E+00  0.00000000000E+00  0.45593999997E+02  0.45594000000E+02  0.51100000000E-03 0. -1.
         11   -1    0    0    0    0 -0.00000000000E+00 -0.00000000000E+00 -0.45593999997E+02  0.45594000000E+02  0.51100000000E-03 0.  1.
    9900012    2    1    2    0    0  0.24622699409E+02 -0.18262025995E+02  0.87716694825E+01  0.59301935565E+02  0.49999984566E+02 0.  0.
        -12    1    1    2    0    0 -0.24622699409E+02  0.18262025995E+02 -0.87716694825E+01  0.31886064435E+02  0.00000000000E+00 0.  1.
         11    1    3    3    0    0  0.14074069527E+02 -0.22029593080E+02  0.14507980855E+02  0.29897556975E+02  0.51100000000E-03 0. -1.
        -11    1    3    3    0    0 -0.74446706531E+01  0.10207608065E+01  0.42604478467E+01  0.86380836922E+01  0.51100000000E-03 0.  1.
        -12    1    3    3    0    0  0.17993300535E+02  0.27468062788E+01 -0.99967592192E+01  0.20766294898E+02  0.00000000000E+00 0.  1.
</event>
<event>
 7    1  0.6198176E-013  0.5930198E+02  0.7816164E-02  0.1266605E+00
        -11   -1    0    0    0    0  0.00000000000E+00  0.00000000000E+00  0.45593999997E+02  0.45594000000E+02  0.51100000000E-03 0.  1.
         11   -1    0    0    0    0 -0.00000000000E+00 -0.00000000000E+00 -0.45593999997E+02  0.45594000000E+02  0.51100000000E-03 0. -1.
    9900012    2    1    2    0    0 -0.15010209772E+02 -0.26269798012E+02 -0.10065276314E+02  0.59301976851E+02  0.50000059861E+02 0.  0.
        -12    1    1    2    0    0  0.15010209772E+02  0.26269798012E+02  0.10065276314E+02  0.31886023149E+02  0.00000000000E+00 0.  1.
         11    1    3    3    0    0 -0.15863108760E+00 -0.20658684175E+01  0.69081388367E+01  0.72121673988E+01  0.51100000000E-03 0. -1.
        -11    1    3    3    0    0 -0.11900877920E+02 -0.19086433254E+02  0.98998211798E+01  0.24574972823E+02  0.51100000000E-03 0.  1.
         12    1    3    3    0    0 -0.29507007642E+01 -0.51174963406E+01 -0.26873236331E+02  0.27514836629E+02  0.00000000000E+00 0. -1.
</event>
<event>
 7    1  0.6198176E-013  0.5930195E+02  0.7816164E-02  0.1266605E+00
        -11   -1    0    0    0    0  0.00000000000E+00  0.00000000000E+00  0.45593999997E+02  0.45594000000E+02  0.51100000000E-03 0. -1.
         11   -1    0    0    0    0 -0.00000000000E+00 -0.00000000000E+00 -0.45593999997E+02  0.45594000000E+02  0.51100000000E-03 0.  1.
    9900012    2    1    2    0    0 -0.21316089300E+02  0.23375013791E+02 -0.39941273110E+01  0.59301953118E+02  0.50000016579E+02 0.  0.
        -12    1    1    2    0    0  0.21316089300E+02 -0.23375013791E+02  0.39941273110E+01  0.31886046882E+02  0.00000000000E+00 0.  1.
         11    1    3    3    0    0  0.19324035281E+01  0.13869946432E+02  0.10512132416E+02  0.17510411920E+02  0.51100000000E-03 0. -1.
        -11    1    3    3    0    0 -0.15646736336E+02  0.19842657695E+02 -0.48461044021E+01  0.25730063165E+02  0.51100000000E-03 0.  1.
         12    1    3    3    0    0 -0.76017564923E+01 -0.10337590336E+02 -0.96601553244E+01  0.16061478033E+02  0.00000000000E+00 0. -1.
</event>
<event>
 7    1  0.6198176E-013  0.5930195E+02  0.7816164E-02  0.1266605E+00
        -11   -1    0    0    0    0  0.00000000000E+00  0.00000000000E+00  0.45593999997E+02  0.45594000000E+02  0.51100000000E-03 0.  1.
         11   -1    0    0    0    0 -0.00000000000E+00 -0.00000000000E+00 -0.45593999997E+02  0.45594000000E+02  0.51100000000E-03 0. -1.
    9900012    2    1    2    0    0  0.29097387707E+02  0.91247796948E+01 -0.93166930786E+01  0.59301947473E+02  0.50000006283E+02 0.  0.
        -12    1    1    2    0    0 -0.29097387707E+02 -0.91247796948E+01  0.93166930786E+01  0.31886052527E+02  0.00000000000E+00 0.  1.
         11    1    3    3    0    0  0.19714094948E+02  0.93145090260E+01 -0.14810724024E+02  0.26358360426E+02  0.51100000000E-03 0. -1.
        -11    1    3    3    0    0  0.63079339078E+01 -0.11233955730E+02 -0.80554086083E+01  0.15194781987E+02  0.51100000000E-03 0.  1.
         12    1    3    3    0    0  0.30753588517E+01  0.11044226399E+02  0.13549439553E+02  0.17748805059E+02  0.00000000000E+00 0. -1.
</event>
<event>
 7    1  0.6198176E-013  0.5930193E+02  0.7816164E-02  0.1266605E+00
        -11   -1    0    0    0    0  0.00000000000E+00  0.00000000000E+00  0.45593999997E+02  0.45594000000E+02  0.51100000000E-03 0.  1.
         11   -1    0    0    0    0 -0.00000000000E+00 -0.00000000000E+00 -0.45593999997E+02  0.45594000000E+02  0.51100000000E-03 0. -1.
    9900012    2    1    2    0    0 -0.25208378624E+02  0.19152231609E+02 -0.38014279706E+01  0.59301934343E+02  0.49999982338E+02 0.  0.
        -12    1    1    2    0    0  0.25208378624E+02 -0.19152231609E+02  0.38014279706E+01  0.31886065657E+02  0.00000000000E+00 0.  1.
         11    1    3    3    0    0  0.85126385199E-01  0.21881760723E+01 -0.13980716083E+02  0.14151176046E+02  0.51100000000E-03 0. -1.
        -11    1    3    3    0    0 -0.82341936480E+01  0.98067353491E+01 -0.11105338807E+02  0.16950001579E+02  0.51100000000E-03 0.  1.
        -12    1    3    3    0    0 -0.17059311361E+02  0.71573201873E+01  0.21284626920E+02  0.28200756718E+02  0.00000000000E+00 0.  1.
</event>
<event>
 7    1  0.6198176E-013  0.5930194E+02  0.7816164E-02  0.1266605E+00
        -11   -1    0    0    0    0  0.00000000000E+00  0.00000000000E+00  0.45593999997E+02  0.45594000000E+02  0.51100000000E-03 0.  1.
         11   -1    0    0    0    0 -0.00000000000E+00 -0.00000000000E+00 -0.45593999997E+02  0.45594000000E+02  0.51100000000E-03 0. -1.
    9900012    2    1    2    0    0 -0.26119392466E+02 -0.13658868213E+02 -0.12162790497E+02  0.59301940094E+02  0.49999992826E+02 0.  0.
        -12    1    1    2    0    0  0.26119392466E+02  0.13658868213E+02  0.12162790497E+02  0.31886059906E+02  0.00000000000E+00 0.  1.
         11    1    3    3    0    0  0.33757579171E+01 -0.34806672558E+00  0.40785915165E+01  0.53058270778E+01  0.51100000000E-03 0. -1.
        -11    1    3    3    0    0 -0.20640822396E+01  0.13185658396E+02 -0.47037754998E+01  0.14150884320E+02  0.51100000000E-03 0.  1.
         12    1    3    3    0    0 -0.27431068143E+02 -0.26496459883E+02 -0.11537606514E+02  0.39845228697E+02  0.00000000000E+00 0. -1.
</event>
<event>
 7    1  0.6198176E-013  0.5930193E+02  0.7816164E-02  0.1266605E+00
        -11   -1    0    0    0    0  0.00000000000E+00  0.00000000000E+00  0.45593999997E+02  0.45594000000E+02  0.51100000000E-03 0. -1.
         11   -1    0    0    0    0 -0.00000000000E+00 -0.00000000000E+00 -0.45593999997E+02  0.45594000000E+02  0.51100000000E-03 0.  1.
    9900012    2    1    2    0    0  0.20533459086E+02  0.23230648004E+02  0.74455180865E+01  0.59301926421E+02  0.49999967890E+02 0.  0.
        -12    1    1    2    0    0 -0.20533459086E+02 -0.23230648004E+02 -0.74455180865E+01  0.31886073579E+02  0.00000000000E+00 0.  1.
         11    1    3    3    0    0  0.18610163188E+02  0.12931839171E+02 -0.45961603186E+01  0.23123480019E+02  0.51100000000E-03 0. -1.
        -11    1    3    3    0    0  0.35361697478E+01  0.72203537089E+01 -0.10581811523E+02  0.13289572587E+02  0.51100000000E-03 0.  1.
         12    1    3    3    0    0 -0.16128738502E+01  0.30784551233E+01  0.22623489928E+02  0.22888873816E+02  0.00000000000E+00 0. -1.
</event>
<event>
 7    1  0.6198176E-013  0.5930195E+02  0.7816164E-02  0.1266605E+00
        -11   -1    0    0    0    0  0.00000000000E+00  0.00000000000E+00  0.45593999997E+02  0.45594000000E+02  0.51100000000E-03 0.  1.
         11   -1    0    0    0    0 -0.00000000000E+00 -0.00000000000E+00 -0.45593999997E+02  0.45594000000E+02  0.51100000000E-03 0. -1.
    9900012    2    1    2    0    0 -0.71318455207E+01 -0.95038239093E+01 -0.29589433489E+02  0.59301945625E+02  0.50000002913E+02 0.  0.
        -12    1    1    2    0    0  0.71318455207E+01  0.95038239093E+01  0.29589433489E+02  0.31886054375E+02  0.00000000000E+00 0.  1.
         11    1    3    3    0    0  0.47199122311E+01 -0.24897970077E+02 -0.79823423491E+01  0.26568859122E+02  0.51100000000E-03 0. -1.
        -11    1    3    3    0    0 -0.14766659897E+01  0.24805774605E+01 -0.14368228742E+02  0.14655367769E+02  0.51100000000E-03 0.  1.
        -12    1    3    3    0    0 -0.10375091762E+02  0.12913568707E+02 -0.72388623973E+01  0.18077718734E+02  0.00000000000E+00 0.  1.
</event>
<event>
 7    1  0.6198176E-013  0.5930219E+02  0.7816164E-02  0.1266604E+00
        -11   -1    0    0    0    0  0.00000000000E+00  0.00000000000E+00  0.45593999997E+02  0.45594000000E+02  0.51100000000E-03 0. -1.
         11   -1    0    0    0    0 -0.00000000000E+00 -0.00000000000E+00 -0.45593999997E+02  0.45594000000E+02  0.51100000000E-03 0.  1.
    9900012    2    1    2    0    0  0.12612006990E+02  0.13937624651E+02  0.25756262246E+02  0.59302185817E+02  0.50000440964E+02 0.  0.
        -12    1    1    2    0    0 -0.12612006990E+02 -0.13937624651E+02 -0.25756262246E+02  0.31885814183E+02  0.00000000000E+00 0.  1.
         11    1    3    3    0    0  0.27779498308E+02  0.33122496523E+01  0.89984050701E+01  0.29387800497E+02  0.51100000000E-03 0. -1.
        -11    1    3    3    0    0 -0.36584346933E+01  0.77701457717E+00 -0.31563431753E+01  0.48939144414E+01  0.51100000000E-03 0.  1.
         12    1    3    3    0    0 -0.11509056624E+02  0.98483604220E+01  0.19914200351E+02  0.25020470879E+02  0.00000000000E+00 0. -1.
</event>
<event>
 7    1  0.6198176E-013  0.5930172E+02  0.7816164E-02  0.1266606E+00
        -11   -1    0    0    0    0  0.00000000000E+00  0.00000000000E+00  0.45593999997E+02  0.45594000000E+02  0.51100000000E-03 0.  1.
         11   -1    0    0    0    0 -0.00000000000E+00 -0.00000000000E+00 -0.45593999997E+02  0.45594000000E+02  0.51100000000E-03 0. -1.
    9900012    2    1    2    0    0 -0.18924291840E+02 -0.25233342645E+02 -0.46781009722E+01  0.59301717190E+02  0.49999586302E+02 0.  0.
        -12    1    1    2    0    0  0.18924291840E+02  0.25233342645E+02  0.46781009722E+01  0.31886282810E+02  0.00000000000E+00 0.  1.
         11    1    3    3    0    0 -0.84991507921E+01 -0.19691209652E+01  0.13913575860E+02  0.16422563595E+02  0.51100000000E-03 0. -1.
        -11    1    3    3    0    0 -0.56124168618E+01  0.63344138144E+01 -0.58994992308E+01  0.10316400188E+02  0.51100000000E-03 0.  1.
         12    1    3    3    0    0 -0.48127241860E+01 -0.29598635495E+02 -0.12692177601E+02  0.32562753408E+02  0.00000000000E+00 0. -1.
</event>
<event>
 7    1  0.6198176E-013  0.5930195E+02  0.7816164E-02  0.1266605E+00
        -11   -1    0    0    0    0  0.00000000000E+00  0.00000000000E+00  0.45593999997E+02  0.45594000000E+02  0.51100000000E-03 0.  1.
         11   -1    0    0    0    0 -0.00000000000E+00 -0.00000000000E+00 -0.45593999997E+02  0.45594000000E+02  0.51100000000E-03 0. -1.
    9900012    2    1    2    0    0 -0.29270867449E+02  0.94708651716E+01  0.83809019552E+01  0.59301945275E+02  0.50000002276E+02 0.  0.
        -12    1    1    2    0    0  0.29270867449E+02 -0.94708651716E+01 -0.83809019552E+01  0.31886054725E+02  0.00000000000E+00 0.  1.
         11    1    3    3    0    0  0.61743673428E+01  0.32483160208E+01 -0.19436466114E+01  0.72423843772E+01  0.51100000000E-03 0. -1.
        -11    1    3    3    0    0 -0.11425046372E+02 -0.13697622316E+02 -0.30728379788E+01  0.18099692682E+02  0.51100000000E-03 0.  1.
         12    1    3    3    0    0 -0.24020188420E+02  0.19920171466E+02  0.13397386545E+02  0.33959868216E+02  0.00000000000E+00 0. -1.
</event>
<event>
 7    1  0.6198176E-013  0.5930196E+02  0.7816164E-02  0.1266605E+00
        -11   -1    0    0    0    0  0.00000000000E+00  0.00000000000E+00  0.45593999997E+02  0.45594000000E+02  0.51100000000E-03 0.  1.
         11   -1    0    0    0    0 -0.00000000000E+00 -0.00000000000E+00 -0.45593999997E+02  0.45594000000E+02  0.51100000000E-03 0. -1.
    9900012    2    1    2    0    0 -0.10580872412E+02  0.28101669270E+00 -0.30077991465E+02  0.59301962272E+02  0.50000033274E+02 0.  0.
        -12    1    1    2    0    0  0.10580872412E+02 -0.28101669270E+00  0.30077991465E+02  0.31886037728E+02  0.00000000000E+00 0.  1.
         11    1    3    3    0    0  0.38962795775E+01 -0.10281881871E+02 -0.35587681114E+02  0.37247565513E+02  0.51100000000E-03 0. -1.
        -11    1    3    3    0    0 -0.13408712902E+01 -0.70988944671E+00 -0.25443616286E+01  0.29623732381E+01  0.51100000000E-03 0.  1.
        -12    1    3    3    0    0 -0.13136280699E+02  0.11272788011E+02  0.80540512769E+01  0.19092023521E+02  0.00000000000E+00 0.  1.
</event>
<event>
 7    1  0.6198176E-013  0.5930209E+02  0.7816164E-02  0.1266604E+00
        -11   -1    0    0    0    0  0.00000000000E+00  0.00000000000E+00  0.45593999997E+02  0.45594000000E+02  0.51100000000E-03 0.  1.
         11   -1    0    0    0    0 -0.00000000000E+00 -0.00000000000E+00 -0.45593999997E+02  0.45594000000E+02  0.51100000000E-03 0. -1.
    9900012    2    1    2    0    0  0.11343196274E+02 -0.63507582711E+01 -0.29115482445E+02  0.59302085393E+02  0.50000257816E+02 0.  0.
        -12    1    1    2    0    0 -0.11343196274E+02  0.63507582711E+01  0.29115482445E+02  0.31885914607E+02  0.00000000000E+00 0.  1.
         11    1    3    3    0    0 -0.76849880585E+01  0.25346143218E+01  0.23378262529E+01  0.84231076848E+01  0.51100000000E-03 0. -1.
        -11    1    3    3    0    0 -0.73555655584E+01  0.47681313846E+01 -0.13720648540E+02  0.16281757221E+02  0.51100000000E-03 0.  1.
         12    1    3    3    0    0  0.26383749891E+02 -0.13653503978E+02 -0.17732660158E+02  0.34597220487E+02  0.00000000000E+00 0. -1.
</event>
<event>
 7    1  0.6198176E-013  0.5930195E+02  0.7816164E-02  0.1266605E+00
        -11   -1    0    0    0    0  0.00000000000E+00  0.00000000000E+00  0.45593999997E+02  0.45594000000E+02  0.51100000000E-03 0.  1.
         11   -1    0    0    0    0 -0.00000000000E+00 -0.00000000000E+00 -0.45593999997E+02  0.45594000000E+02  0.51100000000E-03 0. -1.
    9900012    2    1    2    0    0 -0.20226249896E+02 -0.47082230792E+01 -0.24196102473E+02  0.59301954081E+02  0.50000018335E+02 0.  0.
        -12    1    1    2    0    0  0.20226249896E+02  0.47082230792E+01  0.24196102473E+02  0.31886045919E+02  0.00000000000E+00 0.  1.
         11    1    3    3    0    0  0.80641349290E+01 -0.39887556297E+01 -0.28358583922E+01  0.94330555340E+01  0.51100000000E-03 0. -1.
        -11    1    3    3    0    0 -0.29395070013E+01  0.54988794253E+01  0.82854373566E+01  0.10369515360E+02  0.51100000000E-03 0.  1.
        -12    1    3    3    0    0 -0.25350877824E+02 -0.62183468748E+01 -0.29645681438E+02  0.39499383188E+02  0.00000000000E+00 0.  1.
</event>
<event>
 7    1  0.6198176E-013  0.5930194E+02  0.7816164E-02  0.1266605E+00
        -11   -1    0    0    0    0  0.00000000000E+00  0.00000000000E+00  0.45593999997E+02  0.45594000000E+02  0.51100000000E-03 0. -1.
         11   -1    0    0    0    0 -0.00000000000E+00 -0.00000000000E+00 -0.45593999997E+02  0.45594000000E+02  0.51100000000E-03 0.  1.
    9900012    2    1    2    0    0 -0.11507258395E+01  0.27292799301E+02  0.16446882135E+02  0.59301937283E+02  0.49999987699E+02 0.  0.
        -12    1    1    2    0    0  0.11507258395E+01 -0.27292799301E+02 -0.16446882135E+02  0.31886062717E+02  0.00000000000E+00 0.  1.
         11    1    3    3    0    0  0.61681501359E+01  0.18178947953E+02  0.21521851985E+02  0.28839388654E+02  0.51100000000E-03 0. -1.
        -11    1    3    3    0    0  0.89369881868E+01  0.84941728689E+01  0.23977178984E+01  0.12560644170E+02  0.51100000000E-03 0.  1.
        -12    1    3    3    0    0 -0.16255864162E+02  0.61967847883E+00 -0.74726877490E+01  0.17901904459E+02  0.00000000000E+00 0.  1.
</event>
<event>
 7    1  0.6198176E-013  0.5930197E+02  0.7816164E-02  0.1266605E+00
        -11   -1    0    0    0    0  0.00000000000E+00  0.00000000000E+00  0.45593999997E+02  0.45594000000E+02  0.51100000000E-03 0. -1.
         11   -1    0    0    0    0 -0.00000000000E+00 -0.00000000000E+00 -0.45593999997E+02  0.45594000000E+02  0.51100000000E-03 0.  1.
    9900012    2    1    2    0    0  0.67567863642E+01 -0.26181382086E+02  0.16899700075E+02  0.59301971828E+02  0.50000050701E+02 0.  0.
        -12    1    1    2    0    0 -0.67567863642E+01  0.26181382086E+02 -0.16899700075E+02  0.31886028172E+02  0.00000000000E+00 0.  1.
         11    1    3    3    0    0  0.72544038962E+01 -0.22844415805E+02  0.60325597472E+00  0.23976188759E+02  0.51100000000E-03 0. -1.
        -11    1    3    3    0    0 -0.11139395715E+02 -0.12885855656E+02  0.83897686006E+01  0.18987354484E+02  0.51100000000E-03 0.  1.
         12    1    3    3    0    0  0.10641778183E+02  0.95488893744E+01  0.79066755001E+01  0.16338428585E+02  0.00000000000E+00 0. -1.
</event>
<event>
 7    1  0.6198176E-013  0.5930180E+02  0.7816164E-02  0.1266605E+00
        -11   -1    0    0    0    0  0.00000000000E+00  0.00000000000E+00  0.45593999997E+02  0.45594000000E+02  0.51100000000E-03 0.  1.
         11   -1    0    0    0    0 -0.00000000000E+00 -0.00000000000E+00 -0.45593999997E+02  0.45594000000E+02  0.51100000000E-03 0. -1.
    9900012    2    1    2    0    0 -0.18499650933E+02  0.85585367815E+01 -0.24520273794E+02  0.59301804501E+02  0.49999745535E+02 0.  0.
        -12    1    1    2    0    0  0.18499650933E+02 -0.85585367815E+01  0.24520273794E+02  0.31886195499E+02  0.00000000000E+00 0.  1.
         11    1    3    3    0    0  0.43522457406E+01 -0.64298715185E+01 -0.53506016314E+01  0.94294341724E+01  0.51100000000E-03 0. -1.
        -11    1    3    3    0    0 -0.23723794472E+02 -0.59753130340E+01 -0.14283292850E+02  0.28329053018E+02  0.51100000000E-03 0.  1.
        -12    1    3    3    0    0  0.87189779798E+00  0.20963721334E+02 -0.48863793127E+01  0.21543317310E+02  0.00000000000E+00 0.  1.
</event>
<event>
 7    1  0.6198176E-013  0.5930195E+02  0.7816164E-02  0.1266605E+00
        -11   -1    0    0    0    0  0.00000000000E+00  0.00000000000E+00  0.45593999997E+02  0.45594000000E+02  0.51100000000E-03 0.  1.
         11   -1    0    0    0    0 -0.00000000000E+00 -0.00000000000E+00 -0.45593999997E+02  0.45594000000E+02  0.51100000000E-03 0. -1.
    9900012    2    1    2    0    0 -0.27469101780E+02  0.75006742574E+01 -0.14349520058E+02  0.59301946735E+02  0.50000004938E+02 0.  0.
        -12    1    1    2    0    0  0.27469101780E+02 -0.75006742574E+01  0.14349520058E+02  0.31886053265E+02  0.00000000000E+00 0.  1.
         11    1    3    3    0    0  0.17555461147E+01 -0.50792825746E+00  0.99785760806E+01  0.10144550958E+02  0.51100000000E-03 0.  1.
        -11    1    3    3    0    0  0.43728208100E+01  0.20418696602E+01 -0.11900101789E+02  0.12841464730E+02  0.51100000000E-03 0. -1.
        -12    1    3    3    0    0 -0.33597468705E+02  0.59667328547E+01 -0.12427994349E+02  0.36315931048E+02  0.00000000000E+00 0.  1.
</event>
<event>
 7    1  0.6198176E-013  0.5930195E+02  0.7816164E-02  0.1266605E+00
        -11   -1    0    0    0    0  0.00000000000E+00  0.00000000000E+00  0.45593999997E+02  0.45594000000E+02  0.51100000000E-03 0. -1.
         11   -1    0    0    0    0 -0.00000000000E+00 -0.00000000000E+00 -0.45593999997E+02  0.45594000000E+02  0.51100000000E-03 0.  1.
    9900012    2    1    2    0    0  0.31031889556E+02  0.49305103764E+01 -0.54251399365E+01  0.59301949048E+02  0.50000009156E+02 0.  0.
        -12    1    1    2    0    0 -0.31031889556E+02 -0.49305103764E+01  0.54251399365E+01  0.31886050952E+02  0.00000000000E+00 0.  1.
         11    1    3    3    0    0  0.97545885067E+00 -0.37680743167E+01  0.12593978830E+02  0.13181737634E+02  0.51100000000E-03 0. -1.
        -11    1    3    3    0    0 -0.12161147195E+01  0.98349042610E+01  0.19597764870E+00  0.99117447674E+01  0.51100000000E-03 0.  1.
        -12    1    3    3    0    0  0.31272545425E+02 -0.11363195680E+01 -0.18215096415E+02  0.36208466647E+02  0.00000000000E+00 0.  1.
</event>
<event>
 7    1  0.6198176E-013  0.5930194E+02  0.7816164E-02  0.1266605E+00
        -11   -1    0    0    0    0  0.00000000000E+00  0.00000000000E+00  0.45593999997E+02  0.45594000000E+02  0.51100000000E-03 0.  1.
         11   -1    0    0    0    0 -0.00000000000E+00 -0.00000000000E+00 -0.45593999997E+02  0.45594000000E+02  0.51100000000E-03 0. -1.
    9900012    2    1    2    0    0 -0.26965908954E+02 -0.97901759769E+01 -0.13918085925E+02  0.59301938669E+02  0.49999990227E+02 0.  0.
        -12    1    1    2    0    0  0.26965908954E+02  0.97901759769E+01  0.13918085925E+02  0.31886061331E+02  0.00000000000E+00 0.  1.
         11    1    3    3    0    0 -0.12942800931E+02  0.78318308927E+01  0.77680871327E+00  0.15147841533E+02  0.51100000000E-03 0. -1.
        -11    1    3    3    0    0  0.32646841552E+01 -0.13385149266E+02  0.75134641139E+01  0.15693072572E+02  0.51100000000E-03 0.  1.
         12    1    3    3    0    0 -0.17287792179E+02 -0.42368576041E+01 -0.22208358753E+02  0.28461024564E+02  0.00000000000E+00 0. -1.
</event>
<event>
 7    1  0.6198176E-013  0.5930202E+02  0.7816164E-02  0.1266605E+00
        -11   -1    0    0    0    0  0.00000000000E+00  0.00000000000E+00  0.45593999997E+02  0.45594000000E+02  0.51100000000E-03 0.  1.
         11   -1    0    0    0    0 -0.00000000000E+00 -0.00000000000E+00 -0.45593999997E+02  0.45594000000E+02  0.51100000000E-03 0. -1.
    9900012    2    1    2    0    0 -0.22770825803E+02 -0.22318294633E+02 -0.31465137421E+00  0.59302018934E+02  0.50000136611E+02 0.  0.
        -12    1    1    2    0    0  0.22770825803E+02  0.22318294633E+02  0.31465137421E+00  0.31885981066E+02  0.00000000000E+00 0.  1.
         11    1    3    3    0    0  0.38754254200E+01  0.11719598213E+01  0.13834452482E+01  0.42785900744E+01  0.51100000000E-03 0. -1.
        -11    1    3    3    0    0  0.97797629422E+00 -0.23361811338E+02  0.94694294011E+01  0.25226984759E+02  0.51100000000E-03 0.  1.
         12    1    3    3    0    0 -0.27624227517E+02 -0.12844311664E+00 -0.11167526024E+02  0.29796444100E+02  0.00000000000E+00 0. -1.
</event>
<event>
 7    1  0.6198176E-013  0.5930169E+02  0.7816164E-02  0.1266606E+00
        -11   -1    0    0    0    0  0.00000000000E+00  0.00000000000E+00  0.45593999997E+02  0.45594000000E+02  0.51100000000E-03 0.  1.
         11   -1    0    0    0    0 -0.00000000000E+00 -0.00000000000E+00 -0.45593999997E+02  0.45594000000E+02  0.51100000000E-03 0. -1.
    9900012    2    1    2    0    0  0.99352978163E+01 -0.89884833043E+01 -0.28934992417E+02  0.59301690069E+02  0.49999536839E+02 0.  0.
        -12    1    1    2    0    0 -0.99352978163E+01  0.89884833043E+01  0.28934992417E+02  0.31886309931E+02  0.00000000000E+00 0.  1.
         11    1    3    3    0    0 -0.55081832055E+01  0.11815117014E+02 -0.23706812906E+02  0.27054575411E+02  0.51100000000E-03 0. -1.
        -11    1    3    3    0    0  0.45710808701E+01  0.30612886142E+01  0.23892045251E-01  0.55015306407E+01  0.51100000000E-03 0.  1.
        -12    1    3    3    0    0  0.10872400152E+02 -0.23864888932E+02 -0.52520715567E+01  0.26745584018E+02  0.00000000000E+00 0.  1.
</event>
<event>
 7    1  0.6198176E-013  0.5930194E+02  0.7816164E-02  0.1266605E+00
        -11   -1    0    0    0    0  0.00000000000E+00  0.00000000000E+00  0.45593999997E+02  0.45594000000E+02  0.51100000000E-03 0.  1.
         11   -1    0    0    0    0 -0.00000000000E+00 -0.00000000000E+00 -0.45593999997E+02  0.45594000000E+02  0.51100000000E-03 0. -1.
    9900012    2    1    2    0    0 -0.89330527054E+01  0.11547412853E+02 -0.28347460569E+02  0.59301941998E+02  0.49999996298E+02 0.  0.
        -12    1    1    2    0    0  0.89330527054E+01 -0.11547412853E+02  0.28347460569E+02  0.31886058002E+02  0.00000000000E+00 0.  1.
         11    1    3    3    0    0  0.11795942045E+02 -0.54003418633E+01 -0.44426953764E+01  0.13712967710E+02  0.51100000000E-03 0. -1.
        -11    1    3    3    0    0 -0.11326816919E+01  0.74929520550E+00  0.61066829738E+01  0.62558763034E+01  0.51100000000E-03 0.  1.
         12    1    3    3    0    0 -0.19596313058E+02  0.16198459511E+02 -0.30011448166E+02  0.39333097984E+02  0.00000000000E+00 0. -1.
</event>
<event>
 7    1  0.6259597E-013  0.5930186E+02  0.7816164E-02  0.1266605E+00
        -11   -1    0    0    0    0  0.00000000000E+00  0.00000000000E+00  0.45593999997E+02  0.45594000000E+02  0.51100000000E-03 0.  1.
         11   -1    0    0    0    0 -0.00000000000E+00 -0.00000000000E+00 -0.45593999997E+02  0.45594000000E+02  0.51100000000E-03 0. -1.
    9900012    2    1    2    0    0  0.13656691583E+02  0.28145495289E+02  0.61686015356E+01  0.59301862339E+02  0.49999851019E+02 0.  0.
        -12    1    1    2    0    0 -0.13656691583E+02 -0.28145495289E+02 -0.61686015356E+01  0.31886137661E+02  0.00000000000E+00 0.  1.
         11    1    3    3    0    0  0.18984855261E+02  0.18888171496E+02 -0.38751730430E+00  0.26783164893E+02  0.51100000000E-03 0. -1.
        -11    1    3    3    0    0  0.83308961517E+00  0.18438240836E+02 -0.19623788097E+01  0.18561080095E+02  0.51100000000E-03 0.  1.
        -12    1    3    3    0    0 -0.61612532936E+01 -0.91809170436E+01  0.85184976496E+01  0.13957617351E+02  0.00000000000E+00 0.  1.
</event>
<event>
 7    1  0.6198176E-013  0.5930195E+02  0.7816164E-02  0.1266605E+00
        -11   -1    0    0    0    0  0.00000000000E+00  0.00000000000E+00  0.45593999997E+02  0.45594000000E+02  0.51100000000E-03 0.  1.
         11   -1    0    0    0    0 -0.00000000000E+00 -0.00000000000E+00 -0.45593999997E+02  0.45594000000E+02  0.51100000000E-03 0. -1.
    9900012    2    1    2    0    0 -0.30822383974E+02 -0.61009323937E+01  0.54295142144E+01  0.59301947336E+02  0.50000006034E+02 0.  0.
        -12    1    1    2    0    0  0.30822383974E+02  0.61009323937E+01 -0.54295142144E+01  0.31886052664E+02  0.00000000000E+00 0.  1.
         11    1    3    3    0    0 -0.37474130822E+00 -0.18149190253E+02 -0.29571786831E+01  0.18392347428E+02  0.51100000000E-03 0. -1.
        -11    1    3    3    0    0 -0.10501368834E+02  0.54691282962E+01  0.14795900904E+02  0.18950166108E+02  0.51100000000E-03 0.  1.
         12    1    3    3    0    0 -0.19946273831E+02  0.65791295629E+01 -0.64092080063E+01  0.21959433800E+02  0.00000000000E+00 0. -1.
</event>
<event>
 7    1  0.6198176E-013  0.5930196E+02  0.7816164E-02  0.1266605E+00
        -11   -1    0    0    0    0  0.00000000000E+00  0.00000000000E+00  0.45593999997E+02  0.45594000000E+02  0.51100000000E-03 0. -1.
         11   -1    0    0    0    0 -0.00000000000E+00 -0.00000000000E+00 -0.45593999997E+02  0.45594000000E+02  0.51100000000E-03 0.  1.
    9900012    2    1    2    0    0  0.16218206301E+02  0.21315593516E+02  0.17301296937E+02  0.59301958881E+02  0.50000027088E+02 0.  0.
        -12    1    1    2    0    0 -0.16218206301E+02 -0.21315593516E+02 -0.17301296937E+02  0.31886041119E+02  0.00000000000E+00 0.  1.
         11    1    3    3    0    0  0.14992853439E+02  0.43921600602E+01  0.86572519943E+01  0.17861263578E+02  0.51100000000E-03 0. -1.
        -11    1    3    3    0    0  0.17791262976E+02  0.85451386329E+01 -0.23324398724E+01  0.19874322846E+02  0.51100000000E-03 0.  1.
         12    1    3    3    0    0 -0.16565910115E+02  0.83782948230E+01  0.10976484815E+02  0.21566372457E+02  0.00000000000E+00 0. -1.
</event>
<event>
 7    1  0.6198176E-013  0.5930195E+02  0.7816164E-02  0.1266605E+00
        -11   -1    0    0    0    0  0.00000000000E+00  0.00000000000E+00  0.45593999997E+02  0.45594000000E+02  0.51100000000E-03 0.  1.
         11   -1    0    0    0    0 -0.00000000000E+00 -0.00000000000E+00 -0.45593999997E+02  0.45594000000E+02  0.51100000000E-03 0. -1.
    9900012    2    1    2    0    0  0.17484221372E+02  0.26267857790E+02  0.45849832462E+01  0.59301946290E+02  0.50000004125E+02 0.  0.
        -12    1    1    2    0    0 -0.17484221372E+02 -0.26267857790E+02 -0.45849832462E+01  0.31886053710E+02  0.00000000000E+00 0.  1.
         11    1    3    3    0    0 -0.57457973969E+01 -0.49852464093E+01  0.43945568849E+01  0.87851579362E+01  0.51100000000E-03 0. -1.
        -11    1    3    3    0    0  0.22731333165E+01  0.26575584380E+02  0.77117314541E+01  0.27765079191E+02  0.51100000000E-03 0.  1.
         12    1    3    3    0    0  0.20956885452E+02  0.46775198197E+01 -0.75213050928E+01  0.22751709162E+02  0.00000000000E+00 0. -1.
</event>
<event>
 7    1  0.6198176E-013  0.5930195E+02  0.7816164E-02  0.1266605E+00
        -11   -1    0    0    0    0  0.00000000000E+00  0.00000000000E+00  0.45593999997E+02  0.45594000000E+02  0.51100000000E-03 0.  1.
         11   -1    0    0    0    0 -0.00000000000E+00 -0.00000000000E+00 -0.45593999997E+02  0.45594000000E+02  0.51100000000E-03 0. -1.
    9900012    2    1    2    0    0 -0.10606875414E+02 -0.12256070677E+02 -0.27459120727E+02  0.59301946848E+02  0.50000005143E+02 0.  0.
        -12    1    1    2    0    0  0.10606875414E+02  0.12256070677E+02  0.27459120727E+02  0.31886053152E+02  0.00000000000E+00 0.  1.
         11    1    3    3    0    0 -0.65522125540E+01 -0.10244096794E+02 -0.12195493200E+02  0.17222167783E+02  0.51100000000E-03 0. -1.
        -11    1    3    3    0    0  0.17179885473E+02 -0.31230834527E+01 -0.10197290279E+02  0.20220950631E+02  0.51100000000E-03 0.  1.
        -12    1    3    3    0    0 -0.21234548334E+02  0.11111095694E+01 -0.50663372486E+01  0.21858828434E+02  0.00000000000E+00 0.  1.
</event>
<event>
 7    1  0.6198176E-013  0.5930194E+02  0.7816164E-02  0.1266605E+00
        -11   -1    0    0    0    0  0.00000000000E+00  0.00000000000E+00  0.45593999997E+02  0.45594000000E+02  0.51100000000E-03 0. -1.
         11   -1    0    0    0    0 -0.00000000000E+00 -0.00000000000E+00 -0.45593999997E+02  0.45594000000E+02  0.51100000000E-03 0.  1.
    9900012    2    1    2    0    0  0.14192191269E+02 -0.24035241260E+02  0.15414595937E+02  0.59301939043E+02  0.49999990910E+02 0.  0.
        -12    1    1    2    0    0 -0.14192191269E+02  0.24035241260E+02 -0.15414595937E+02  0.31886060957E+02  0.00000000000E+00 0.  1.
         11    1    3    3    0    0 -0.52757220945E+01  0.78695988277E-01  0.13818012842E+02  0.14791109351E+02  0.51100000000E-03 0. -1.
        -11    1    3    3    0    0 -0.77354256309E+01 -0.12296372963E+02 -0.18806147720E+01  0.14648355195E+02  0.51100000000E-03 0.  1.
         12    1    3    3    0    0  0.27203338995E+02 -0.11817564285E+02  0.34771978666E+01  0.29862474497E+02  0.00000000000E+00 0. -1.
</event>
<event>
 7    1  0.6198176E-013  0.5930195E+02  0.7816164E-02  0.1266605E+00
        -11   -1    0    0    0    0  0.00000000000E+00  0.00000000000E+00  0.45593999997E+02  0.45594000000E+02  0.51100000000E-03 0.  1.
         11   -1    0    0    0    0 -0.00000000000E+00 -0.00000000000E+00 -0.45593999997E+02  0.45594000000E+02  0.51100000000E-03 0. -1.
    9900012    2    1    2    0    0  0.11675067371E+01 -0.22943995204E+01 -0.31781957066E+02  0.59301950761E+02  0.50000012280E+02 0.  0.
        -12    1    1    2    0    0 -0.11675067371E+01  0.22943995204E+01  0.31781957066E+02  0.31886049239E+02  0.00000000000E+00 0.  1.
         11    1    3    3    0    0 -0.16788671987E+02  0.83420482542E+01 -0.21207724497E+02  0.28305774230E+02  0.51100000000E-03 0. -1.
        -11    1    3    3    0    0  0.35019832083E+01  0.37756736006E+01  0.34788757202E+01  0.62146740918E+01  0.51100000000E-03 0.  1.
        -12    1    3    3    0    0  0.14454195516E+02 -0.14412121375E+02 -0.14053108289E+02  0.24781502439E+02  0.00000000000E+00 0.  1.
</event>
<event>
 7    1  0.6198176E-013  0.5930197E+02  0.7816164E-02  0.1266605E+00
        -11   -1    0    0    0    0  0.00000000000E+00  0.00000000000E+00  0.45593999997E+02  0.45594000000E+02  0.51100000000E-03 0.  1.
         11   -1    0    0    0    0 -0.00000000000E+00 -0.00000000000E+00 -0.45593999997E+02  0.45594000000E+02  0.51100000000E-03 0. -1.
    9900012    2    1    2    0    0 -0.88312199647E+01  0.27183534704E+02 -0.14134483939E+02  0.59301974201E+02  0.50000055028E+02 0.  0.
        -12    1    1    2    0    0  0.88312199647E+01 -0.27183534704E+02  0.14134483939E+02  0.31886025799E+02  0.00000000000E+00 0.  1.
         11    1    3    3    0    0 -0.17771083105E+00 -0.23737496960E+01 -0.48923908880E+01  0.54407497297E+01  0.51100000000E-03 0. -1.
        -11    1    3    3    0    0 -0.12663010720E+02 -0.66531606993E+01 -0.99465000294E+01  0.17422664861E+02  0.51100000000E-03 0.  1.
         12    1    3    3    0    0  0.40095015859E+01  0.36210445099E+02  0.70440697843E+00  0.36438559610E+02  0.00000000000E+00 0. -1.
</event>
<event>
 7    1  0.6198176E-013  0.5930195E+02  0.7816164E-02  0.1266605E+00
        -11   -1    0    0    0    0  0.00000000000E+00  0.00000000000E+00  0.45593999997E+02  0.45594000000E+02  0.51100000000E-03 0. -1.
         11   -1    0    0    0    0 -0.00000000000E+00 -0.00000000000E+00 -0.45593999997E+02  0.45594000000E+02  0.51100000000E-03 0.  1.
    9900012    2    1    2    0    0  0.24061365649E+02 -0.11856415463E+02  0.17239386181E+02  0.59301947556E+02  0.50000006436E+02 0.  0.
        -12    1    1    2    0    0 -0.24061365649E+02  0.11856415463E+02 -0.17239386181E+02  0.31886052444E+02  0.00000000000E+00 0.  1.
         11    1    3    3    0    0  0.44956371022E+01  0.27234671450E+01 -0.19198560856E+01  0.55958800823E+01  0.51100000000E-03 0.  1.
        -11    1    3    3    0    0 -0.43563209698E+01 -0.20187859359E+02  0.20499325467E+02  0.29098961197E+02  0.51100000000E-03 0. -1.
         12    1    3    3    0    0  0.23922049517E+02  0.56079767517E+01 -0.13400832001E+01  0.24607106277E+02  0.00000000000E+00 0. -1.
</event>
<event>
 7    1  0.6198176E-013  0.5930194E+02  0.7816164E-02  0.1266605E+00
        -11   -1    0    0    0    0  0.00000000000E+00  0.00000000000E+00  0.45593999997E+02  0.45594000000E+02  0.51100000000E-03 0. -1.
         11   -1    0    0    0    0 -0.00000000000E+00 -0.00000000000E+00 -0.45593999997E+02  0.45594000000E+02  0.51100000000E-03 0.  1.
    9900012    2    1    2    0    0 -0.25931443342E+02  0.16320798977E+02  0.88267949149E+01  0.59301944403E+02  0.50000000685E+02 0.  0.
        -12    1    1    2    0    0  0.25931443342E+02 -0.16320798977E+02 -0.88267949149E+01  0.31886055597E+02  0.00000000000E+00 0.  1.
         11    1    3    3    0    0 -0.82038736711E+01  0.29564743022E+01 -0.46549814846E+01  0.98849955182E+01  0.51100000000E-03 0. -1.
        -11    1    3    3    0    0 -0.25580141090E+02 -0.63111976748E+01  0.79895422750E+01  0.27531938186E+02  0.51100000000E-03 0.  1.
         12    1    3    3    0    0  0.78525714189E+01  0.19675522350E+02  0.54922341245E+01  0.21885010699E+02  0.00000000000E+00 0. -1.
</event>
<event>
 7    1  0.6198176E-013  0.5930194E+02  0.7816164E-02  0.1266605E+00
        -11   -1    0    0    0    0  0.00000000000E+00  0.00000000000E+00  0.45593999997E+02  0.45594000000E+02  0.51100000000E-03 0.  1.
         11   -1    0    0    0    0 -0.00000000000E+00 -0.00000000000E+00 -0.45593999997E+02  0.45594000000E+02  0.51100000000E-03 0. -1.
    9900012    2    1    2    0    0  0.76364324677E+01 -0.29403164529E+02 -0.96881024016E+01  0.59301944846E+02  0.50000001492E+02 0.  0.
        -12    1    1    2    0    0 -0.76364324677E+01  0.29403164529E+02  0.96881024016E+01  0.31886055154E+02  0.00000000000E+00 0.  1.
         11    1    3    3    0    0  0.18678200795E+02 -0.29268801707E+02 -0.11238712954E+02  0.36494473656E+02  0.51100000000E-03 0. -1.
        -11    1    3    3    0    0  0.48493872138E+01 -0.35728670947E+01  0.24982233369E+01  0.65209704590E+01  0.51100000000E-03 0.  1.
        -12    1    3    3    0    0 -0.15891155541E+02  0.34385042722E+01 -0.94761278403E+00  0.16286500731E+02  0.00000000000E+00 0.  1.
</event>
<event>
 7    1  0.6198176E-013  0.5930192E+02  0.7816164E-02  0.1266605E+00
        -11   -1    0    0    0    0  0.00000000000E+00  0.00000000000E+00  0.45593999997E+02  0.45594000000E+02  0.51100000000E-03 0.  1.
         11   -1    0    0    0    0 -0.00000000000E+00 -0.00000000000E+00 -0.45593999997E+02  0.45594000000E+02  0.51100000000E-03 0. -1.
    9900012    2    1    2    0    0 -0.10417134278E+02  0.56749671863E+01 -0.29597303698E+02  0.59301916432E+02  0.49999949672E+02 0.  0.
        -12    1    1    2    0    0  0.10417134278E+02 -0.56749671863E+01  0.29597303698E+02  0.31886083568E+02  0.00000000000E+00 0.  1.
         11    1    3    3    0    0  0.16588835418E+01 -0.27763810356E+01 -0.64795141807E+01  0.72418430347E+01  0.51100000000E-03 0. -1.
        -11    1    3    3    0    0  0.10234068386E+02  0.13869684992E+02 -0.23444715727E+02  0.29099123927E+02  0.51100000000E-03 0.  1.
        -12    1    3    3    0    0 -0.22310086205E+02 -0.54183367703E+01  0.32692621017E+00  0.22960949471E+02  0.00000000000E+00 0.  1.
</event>
<event>
 7    1  0.6198176E-013  0.5930193E+02  0.7816164E-02  0.1266605E+00
        -11   -1    0    0    0    0  0.00000000000E+00  0.00000000000E+00  0.45593999997E+02  0.45594000000E+02  0.51100000000E-03 0. -1.
         11   -1    0    0    0    0 -0.00000000000E+00 -0.00000000000E+00 -0.45593999997E+02  0.45594000000E+02  0.51100000000E-03 0.  1.
    9900012    2    1    2    0    0  0.16889345689E+02  0.23193372046E+02  0.13911838430E+02  0.59301925404E+02  0.49999966035E+02 0.  0.
        -12    1    1    2    0    0 -0.16889345689E+02 -0.23193372046E+02 -0.13911838430E+02  0.31886074596E+02  0.00000000000E+00 0.  1.
         11    1    3    3    0    0  0.92819305331E+01 -0.14576754977E+01  0.11761510864E+02  0.15053643757E+02  0.51100000000E-03 0. -1.
        -11    1    3    3    0    0 -0.54519958218E+01 -0.75922539875E+01  0.14101690689E+01  0.94527856273E+01  0.51100000000E-03 0.  1.
         12    1    3    3    0    0  0.13059410977E+02  0.32243301531E+02  0.74015849637E+00  0.34795496020E+02  0.00000000000E+00 0. -1.
</event>
<event>
 7    1  0.6198176E-013  0.5930189E+02  0.7816164E-02  0.1266605E+00
        -11   -1    0    0    0    0  0.00000000000E+00  0.00000000000E+00  0.45593999997E+02  0.45594000000E+02  0.51100000000E-03 0.  1.
         11   -1    0    0    0    0 -0.00000000000E+00 -0.00000000000E+00 -0.45593999997E+02  0.45594000000E+02  0.51100000000E-03 0. -1.
    9900012    2    1    2    0    0 -0.70482368408E-01 -0.24355779598E+02 -0.20579488312E+02  0.59301885361E+02  0.49999893007E+02 0.  0.
        -12    1    1    2    0    0  0.70482368408E-01  0.24355779598E+02  0.20579488312E+02  0.31886114639E+02  0.00000000000E+00 0.  1.
         11    1    3    3    0    0  0.41510609580E+01  0.13166774311E+01  0.32937112985E+01  0.54601722421E+01  0.51100000000E-03 0. -1.
        -11    1    3    3    0    0  0.16630463961E+02 -0.15012524326E+02 -0.20142649520E+02  0.30127637613E+02  0.51100000000E-03 0.  1.
         12    1    3    3    0    0 -0.20852007287E+02 -0.10659932703E+02 -0.37305500900E+01  0.23714075506E+02  0.00000000000E+00 0. -1.
</event>
<event>
 7    1  0.6198176E-013  0.5930193E+02  0.7816164E-02  0.1266605E+00
        -11   -1    0    0    0    0  0.00000000000E+00  0.00000000000E+00  0.45593999997E+02  0.45594000000E+02  0.51100000000E-03 0. -1.
         11   -1    0    0    0    0 -0.00000000000E+00 -0.00000000000E+00 -0.45593999997E+02  0.45594000000E+02  0.51100000000E-03 0.  1.
    9900012    2    1    2    0    0  0.27140179771E+02 -0.76510305984E+01  0.14886035394E+02  0.59301926598E+02  0.49999968213E+02 0.  0.
        -12    1    1    2    0    0 -0.27140179771E+02  0.76510305984E+01 -0.14886035394E+02  0.31886073402E+02  0.00000000000E+00 0.  1.
         11    1    3    3    0    0  0.24182509813E+02 -0.14446902180E+02  0.98805088715E+01  0.29851821037E+02  0.51100000000E-03 0. -1.
        -11    1    3    3    0    0 -0.83432278583E+01 -0.57881728683E+01 -0.32060808386E+01  0.10648537498E+02  0.51100000000E-03 0.  1.
        -12    1    3    3    0    0  0.11300897817E+02  0.12584044449E+02  0.82116073608E+01  0.18801568063E+02  0.00000000000E+00 0.  1.
</event>
<event>
 7    1  0.6198176E-013  0.5930187E+02  0.7816164E-02  0.1266605E+00
        -11   -1    0    0    0    0  0.00000000000E+00  0.00000000000E+00  0.45593999997E+02  0.45594000000E+02  0.51100000000E-03 0.  1.
         11   -1    0    0    0    0 -0.00000000000E+00 -0.00000000000E+00 -0.45593999997E+02  0.45594000000E+02  0.51100000000E-03 0. -1.
    9900012    2    1    2    0    0  0.22918699813E+02 -0.19892804908E+02 -0.97844112301E+01  0.59301871490E+02  0.49999867709E+02 0.  0.
        -12    1    1    2    0    0 -0.22918699813E+02  0.19892804908E+02  0.97844112301E+01  0.31886128510E+02  0.00000000000E+00 0.  1.
         11    1    3    3    0    0  0.76093066900E+01  0.46831957525E+00 -0.14575698149E+02  0.16449068312E+02  0.51100000000E-03 0. -1.
        -11    1    3    3    0    0  0.43481619454E+01  0.80523054618E+01 -0.55354173334E+01  0.10695184939E+02  0.51100000000E-03 0.  1.
         12    1    3    3    0    0  0.10961231178E+02 -0.28413429945E+02  0.10326704252E+02  0.32157618240E+02  0.00000000000E+00 0. -1.
</event>
<event>
 7    1  0.6198176E-013  0.5930194E+02  0.7816164E-02  0.1266605E+00
        -11   -1    0    0    0    0  0.00000000000E+00  0.00000000000E+00  0.45593999997E+02  0.45594000000E+02  0.51100000000E-03 0.  1.
         11   -1    0    0    0    0 -0.00000000000E+00 -0.00000000000E+00 -0.45593999997E+02  0.45594000000E+02  0.51100000000E-03 0. -1.
    9900012    2    1    2    0    0 -0.22507457403E+02  0.21751408628E+02  0.60836970313E+01  0.59301940575E+02  0.49999993704E+02 0.  0.
        -12    1    1    2    0    0  0.22507457403E+02 -0.21751408628E+02 -0.60836970313E+01  0.31886059425E+02  0.00000000000E+00 0.  1.
         11    1    3    3    0    0 -0.19951134565E+02 -0.11121141674E+02  0.45628615314E+01  0.23292644079E+02  0.51100000000E-03 0. -1.
        -11    1    3    3    0    0  0.30998128402E+01  0.15586676331E+02  0.64726900877E+01  0.17159517357E+02  0.51100000000E-03 0.  1.
        -12    1    3    3    0    0 -0.56561356786E+01  0.17285873971E+02 -0.49518545878E+01  0.18849779139E+02  0.00000000000E+00 0.  1.
</event>
<event>
 7    1  0.6198176E-013  0.5930191E+02  0.7816164E-02  0.1266605E+00
        -11   -1    0    0    0    0  0.00000000000E+00  0.00000000000E+00  0.45593999997E+02  0.45594000000E+02  0.51100000000E-03 0.  1.
         11   -1    0    0    0    0 -0.00000000000E+00 -0.00000000000E+00 -0.45593999997E+02  0.45594000000E+02  0.51100000000E-03 0. -1.
    9900012    2    1    2    0    0  0.11252420056E+02 -0.20842753899E+02 -0.21346790844E+02  0.59301908572E+02  0.49999935338E+02 0.  0.
        -12    1    1    2    0    0 -0.11252420056E+02  0.20842753899E+02  0.21346790844E+02  0.31886091428E+02  0.00000000000E+00 0.  1.
         11    1    3    3    0    0 -0.44221148024E-01 -0.14366500943E+02 -0.18730916815E+02  0.23606049010E+02  0.51100000000E-03 0. -1.
        -11    1    3    3    0    0 -0.41352303033E+01  0.15626536016E+01 -0.14147023094E+02  0.14821615250E+02  0.51100000000E-03 0.  1.
        -12    1    3    3    0    0  0.15431871508E+02 -0.80389065570E+01  0.11531149065E+02  0.20874244313E+02  0.00000000000E+00 0.  1.
</event>
<event>
 7    1  0.6198176E-013  0.5930194E+02  0.7816164E-02  0.1266605E+00
        -11   -1    0    0    0    0  0.00000000000E+00  0.00000000000E+00  0.45593999997E+02  0.45594000000E+02  0.51100000000E-03 0. -1.
         11   -1    0    0    0    0 -0.00000000000E+00 -0.00000000000E+00 -0.45593999997E+02  0.45594000000E+02  0.51100000000E-03 0.  1.
    9900012    2    1    2    0    0  0.11398133649E+02  0.24352271777E+02  0.17139735050E+02  0.59301935505E+02  0.49999984456E+02 0.  0.
        -12    1    1    2    0    0 -0.11398133649E+02 -0.24352271777E+02 -0.17139735050E+02  0.31886064495E+02  0.00000000000E+00 0.  1.
         11    1    3    3    0    0  0.89728835277E+01 -0.49488737434E+01  0.88377092903E+01  0.13531780958E+02  0.51100000000E-03 0. -1.
        -11    1    3    3    0    0 -0.41912965441E+01 -0.44638297107E+01 -0.59409229626E+01  0.85315478265E+01  0.51100000000E-03 0.  1.
         12    1    3    3    0    0  0.66165466654E+01  0.33764975232E+02  0.14242948723E+02  0.37238606720E+02  0.00000000000E+00 0. -1.
</event>
<event>
 7    1  0.6198176E-013  0.5930195E+02  0.7816164E-02  0.1266605E+00
        -11   -1    0    0    0    0  0.00000000000E+00  0.00000000000E+00  0.45593999997E+02  0.45594000000E+02  0.51100000000E-03 0. -1.
         11   -1    0    0    0    0 -0.00000000000E+00 -0.00000000000E+00 -0.45593999997E+02  0.45594000000E+02  0.51100000000E-03 0.  1.
    9900012    2    1    2    0    0  0.25291890393E+02  0.64662882882E+01  0.18309220728E+02  0.59301950267E+02  0.50000011379E+02 0.  0.
        -12    1    1    2    0    0 -0.25291890393E+02 -0.64662882882E+01 -0.18309220728E+02  0.31886049733E+02  0.00000000000E+00 0.  1.
         11    1    3    3    0    0  0.13856717514E+02 -0.98473208359E+01 -0.15264410153E+01  0.17067758210E+02  0.51100000000E-03 0. -1.
        -11    1    3    3    0    0 -0.98624476481E-01 -0.92292185442E+01  0.41849105674E+01  0.10134183659E+02  0.51100000000E-03 0.  1.
         12    1    3    3    0    0  0.11533797356E+02  0.25542827668E+02  0.15650751176E+02  0.32100008397E+02  0.00000000000E+00 0. -1.
</event>
<event>
 7    1  0.6198176E-013  0.5930190E+02  0.7816164E-02  0.1266605E+00
        -11   -1    0    0    0    0  0.00000000000E+00  0.00000000000E+00  0.45593999997E+02  0.45594000000E+02  0.51100000000E-03 0.  1.
         11   -1    0    0    0    0 -0.00000000000E+00 -0.00000000000E+00 -0.45593999997E+02  0.45594000000E+02  0.51100000000E-03 0. -1.
    9900012    2    1    2    0    0 -0.18891192941E+02 -0.38017246438E+01 -0.25404584548E+02  0.59301902762E+02  0.49999924742E+02 0.  0.
        -12    1    1    2    0    0  0.18891192941E+02  0.38017246438E+01  0.25404584548E+02  0.31886097238E+02  0.00000000000E+00 0.  1.
         11    1    3    3    0    0  0.10302015725E+00 -0.26579286656E+01 -0.75204588800E+01  0.79769981805E+01  0.51100000000E-03 0. -1.
        -11    1    3    3    0    0  0.13156948667E+02 -0.65641959786E+01 -0.13445633988E+01  0.14764884628E+02  0.51100000000E-03 0.  1.
         12    1    3    3    0    0 -0.32151161765E+02  0.54204000005E+01 -0.16539562269E+02  0.36560019954E+02  0.00000000000E+00 0. -1.
</event>
<event>
 7    1  0.6198176E-013  0.5930215E+02  0.7816164E-02  0.1266604E+00
        -11   -1    0    0    0    0  0.00000000000E+00  0.00000000000E+00  0.45593999997E+02  0.45594000000E+02  0.51100000000E-03 0. -1.
         11   -1    0    0    0    0 -0.00000000000E+00 -0.00000000000E+00 -0.45593999997E+02  0.45594000000E+02  0.51100000000E-03 0.  1.
    9900012    2    1    2    0    0 -0.20878271807E+02  0.21271266877E+01  0.24005842276E+02  0.59302151023E+02  0.50000377509E+02 0.  0.
        -12    1    1    2    0    0  0.20878271807E+02 -0.21271266877E+01 -0.24005842276E+02  0.31885848977E+02  0.00000000000E+00 0.  1.
         11    1    3    3    0    0 -0.27896338709E+02  0.40431737681E+01  0.24378256637E+02  0.37267309594E+02  0.51100000000E-03 0. -1.
        -11    1    3    3    0    0 -0.63818327080E+01 -0.85149713076E+00 -0.46348147840E+01  0.79331169423E+01  0.51100000000E-03 0.  1.
         12    1    3    3    0    0  0.13399899610E+02 -0.10645499496E+01  0.42624004228E+01  0.14101724487E+02  0.00000000000E+00 0. -1.
</event>
<event>
 7    1  0.6198176E-013  0.5930194E+02  0.7816164E-02  0.1266605E+00
        -11   -1    0    0    0    0  0.00000000000E+00  0.00000000000E+00  0.45593999997E+02  0.45594000000E+02  0.51100000000E-03 0.  1.
         11   -1    0    0    0    0 -0.00000000000E+00 -0.00000000000E+00 -0.45593999997E+02  0.45594000000E+02  0.51100000000E-03 0. -1.
    9900012    2    1    2    0    0  0.29839295019E+02 -0.39000088457E+01  0.10541682427E+02  0.59301942473E+02  0.49999997165E+02 0.  0.
        -12    1    1    2    0    0 -0.29839295019E+02  0.39000088457E+01 -0.10541682427E+02  0.31886057527E+02  0.00000000000E+00 0.  1.
         11    1    3    3    0    0  0.50644452150E+01 -0.84968276618E+01  0.59650044749E+01  0.11551015726E+02  0.51100000000E-03 0. -1.
        -11    1    3    3    0    0  0.32024847887E+01 -0.12652492824E+02  0.13448401238E+02  0.18740356976E+02  0.51100000000E-03 0.  1.
         12    1    3    3    0    0  0.21572365015E+02  0.17249311640E+02 -0.88717232852E+01  0.29010569771E+02  0.00000000000E+00 0. -1.
</event>
<event>
 7    1  0.6198176E-013  0.5930195E+02  0.7816164E-02  0.1266605E+00
        -11   -1    0    0    0    0  0.00000000000E+00  0.00000000000E+00  0.45593999997E+02  0.45594000000E+02  0.51100000000E-03 0. -1.
         11   -1    0    0    0    0 -0.00000000000E+00 -0.00000000000E+00 -0.45593999997E+02  0.45594000000E+02  0.51100000000E-03 0.  1.
    9900012    2    1    2    0    0  0.94887439922E+01  0.25485614509E+02  0.16648340666E+02  0.59301952011E+02  0.50000014559E+02 0.  0.
        -12    1    1    2    0    0 -0.94887439922E+01 -0.25485614509E+02 -0.16648340666E+02  0.31886047989E+02  0.00000000000E+00 0.  1.
         11    1    3    3    0    0  0.20902774988E+02  0.44648775387E+01  0.19441936577E+02  0.28893771505E+02  0.51100000000E-03 0. -1.
        -11    1    3    3    0    0 -0.26854964151E+01  0.15247524269E+02  0.61334179605E+01  0.16652858718E+02  0.51100000000E-03 0.  1.
        -12    1    3    3    0    0 -0.87285345812E+01  0.57732127009E+01 -0.89270138715E+01  0.13755321788E+02  0.00000000000E+00 0.  1.
</event>
<event>
 7    1  0.6198176E-013  0.5930193E+02  0.7816164E-02  0.1266605E+00
        -11   -1    0    0    0    0  0.00000000000E+00  0.00000000000E+00  0.45593999997E+02  0.45594000000E+02  0.51100000000E-03 0. -1.
         11   -1    0    0    0    0 -0.00000000000E+00 -0.00000000000E+00 -0.45593999997E+02  0.45594000000E+02  0.51100000000E-03 0.  1.
    9900012    2    1    2    0    0  0.88919469432E+01 -0.27057457910E+02 -0.14336966009E+02  0.59301931830E+02  0.49999977755E+02 0.  0.
        -12    1    1    2    0    0 -0.88919469432E+01  0.27057457910E+02  0.14336966009E+02  0.31886068170E+02  0.00000000000E+00 0.  1.
         11    1    3    3    0    0 -0.30214078694E+01  0.49218808578E+01 -0.15052772445E+02  0.16122647897E+02  0.51100000000E-03 0.  1.
        -11    1    3    3    0    0 -0.55884575929E+01 -0.64929238314E+01 -0.72830141589E+01  0.11244163537E+02  0.51100000000E-03 0. -1.
         12    1    3    3    0    0  0.17501812406E+02 -0.25486414936E+02  0.79988205949E+01  0.31935120396E+02  0.00000000000E+00 0. -1.
</event>
<event>
 7    1  0.6198176E-013  0.5930192E+02  0.7816164E-02  0.1266605E+00
        -11   -1    0    0    0    0  0.00000000000E+00  0.00000000000E+00  0.45593999997E+02  0.45594000000E+02  0.51100000000E-03 0.  1.
         11   -1    0    0    0    0 -0.00000000000E+00 -0.00000000000E+00 -0.45593999997E+02  0.45594000000E+02  0.51100000000E-03 0. -1.
    9900012    2    1    2    0    0 -0.55852751909E+01  0.25431215179E+02 -0.18405975021E+02  0.59301922773E+02  0.49999961237E+02 0.  0.
        -12    1    1    2    0    0  0.55852751909E+01 -0.25431215179E+02  0.18405975021E+02  0.31886077227E+02  0.00000000000E+00 0.  1.
         11    1    3    3    0    0  0.89582340515E+01  0.58817542492E+01  0.75532218394E+01  0.13110917237E+02  0.51100000000E-03 0. -1.
        -11    1    3    3    0    0 -0.22838589146E+02  0.11217075713E+02 -0.12595388767E+02  0.28391332484E+02  0.51100000000E-03 0.  1.
         12    1    3    3    0    0  0.82950799041E+01  0.83323852164E+01 -0.13363808094E+02  0.17799673053E+02  0.00000000000E+00 0. -1.
</event>
<event>
 7    1  0.6198176E-013  0.5930194E+02  0.7816164E-02  0.1266605E+00
        -11   -1    0    0    0    0  0.00000000000E+00  0.00000000000E+00  0.45593999997E+02  0.45594000000E+02  0.51100000000E-03 0.  1.
         11   -1    0    0    0    0 -0.00000000000E+00 -0.00000000000E+00 -0.45593999997E+02  0.45594000000E+02  0.51100000000E-03 0. -1.
    9900012    2    1    2    0    0  0.88273722119E+01  0.21964501681E+02 -0.21362565572E+02  0.59301936554E+02  0.49999986370E+02 0.  0.
        -12    1    1    2    0    0 -0.88273722119E+01 -0.21964501681E+02  0.21362565572E+02  0.31886063446E+02  0.00000000000E+00 0.  1.
         11    1    3    3    0    0  0.93205165406E+01  0.20635799593E+00  0.58012427570E+01  0.10980392980E+02  0.51100000000E-03 0. -1.
        -11    1    3    3    0    0  0.81156729990E+01 -0.57201701468E+01 -0.12632266714E+02  0.16067316432E+02  0.51100000000E-03 0.  1.
         12    1    3    3    0    0 -0.86088173277E+01  0.27478313832E+02 -0.14531541614E+02  0.32254227142E+02  0.00000000000E+00 0. -1.
</event>
<event>
 7    1  0.6198176E-013  0.5930194E+02  0.7816164E-02  0.1266605E+00
        -11   -1    0    0    0    0  0.00000000000E+00  0.00000000000E+00  0.45593999997E+02  0.45594000000E+02  0.51100000000E-03 0.  1.
         11   -1    0    0    0    0 -0.00000000000E+00 -0.00000000000E+00 -0.45593999997E+02  0.45594000000E+02  0.51100000000E-03 0. -1.
    9900012    2    1    2    0    0 -0.80525263787E+01  0.16855353754E+02 -0.25841340896E+02  0.59301936735E+02  0.49999986700E+02 0.  0.
        -12    1    1    2    0    0  0.80525263787E+01 -0.16855353754E+02  0.25841340896E+02  0.31886063265E+02  0.00000000000E+00 0.  1.
         11    1    3    3    0    0  0.31292040723E+00  0.76397371263E+01  0.59602527203E+01  0.96947467884E+01  0.51100000000E-03 0.  1.
        -11    1    3    3    0    0 -0.82230257502E+01  0.18000991950E+02 -0.36600535829E+01  0.20125850446E+02  0.51100000000E-03 0. -1.
         12    1    3    3    0    0 -0.14242103573E+00 -0.87853753225E+01 -0.28141540033E+02  0.29481339501E+02  0.00000000000E+00 0. -1.
</event>
<event>
 7    1  0.6198176E-013  0.5930195E+02  0.7816164E-02  0.1266605E+00
        -11   -1    0    0    0    0  0.00000000000E+00  0.00000000000E+00  0.45593999997E+02  0.45594000000E+02  0.51100000000E-03 0.  1.
         11   -1    0    0    0    0 -0.00000000000E+00 -0.00000000000E+00 -0.45593999997E+02  0.45594000000E+02  0.51100000000E-03 0. -1.
    9900012    2    1    2    0    0  0.30994224697E+02 -0.23974495560E-02 -0.74885566385E+01  0.59301945825E+02  0.50000003278E+02 0.  0.
        -12    1    1    2    0    0 -0.30994224697E+02  0.23974495560E-02  0.74885566385E+01  0.31886054175E+02  0.00000000000E+00 0.  1.
         11    1    3    3    0    0  0.37111910896E+02 -0.24420533044E+01 -0.17131383707E+02  0.40948038569E+02  0.51100000000E-03 0. -1.
        -11    1    3    3    0    0  0.38937292295E+01  0.45144485818E-01 -0.47174151953E+00  0.39224616836E+01  0.51100000000E-03 0.  1.
        -12    1    3    3    0    0 -0.10011415429E+02  0.23945113690E+01  0.10114568588E+02  0.14431445572E+02  0.00000000000E+00 0.  1.
</event>
<event>
 7    1  0.6198176E-013  0.5930194E+02  0.7816164E-02  0.1266605E+00
        -11   -1    0    0    0    0  0.00000000000E+00  0.00000000000E+00  0.45593999997E+02  0.45594000000E+02  0.51100000000E-03 0.  1.
         11   -1    0    0    0    0 -0.00000000000E+00 -0.00000000000E+00 -0.45593999997E+02  0.45594000000E+02  0.51100000000E-03 0. -1.
    9900012    2    1    2    0    0  0.24339697593E+02  0.13497062609E+02 -0.15560512475E+02  0.59301935231E+02  0.49999983956E+02 0.  0.
        -12    1    1    2    0    0 -0.24339697593E+02 -0.13497062609E+02  0.15560512475E+02  0.31886064769E+02  0.00000000000E+00 0.  1.
         11    1    3    3    0    0  0.12051521811E+02  0.19767776042E+02  0.29241462989E+01  0.23335697535E+02  0.51100000000E-03 0. -1.
        -11    1    3    3    0    0  0.60720889901E+01 -0.70100066068E+01  0.57661131557E+01  0.10920554863E+02  0.51100000000E-03 0.  1.
         12    1    3    3    0    0  0.62160867922E+01  0.73929317424E+00 -0.24250771929E+02  0.25045682833E+02  0.00000000000E+00 0. -1.
</event>
<event>
 7    1  0.6198176E-013  0.5930193E+02  0.7816164E-02  0.1266605E+00
        -11   -1    0    0    0    0  0.00000000000E+00  0.00000000000E+00  0.45593999997E+02  0.45594000000E+02  0.51100000000E-03 0.  1.
         11   -1    0    0    0    0 -0.00000000000E+00 -0.00000000000E+00 -0.45593999997E+02  0.45594000000E+02  0.51100000000E-03 0. -1.
    9900012    2    1    2    0    0  0.54840701388E+01 -0.27570953451E+02 -0.15049544551E+02  0.59301932656E+02  0.49999979261E+02 0.  0.
        -12    1    1    2    0    0 -0.54840701388E+01  0.27570953451E+02  0.15049544551E+02  0.31886067344E+02  0.00000000000E+00 0.  1.
         11    1    3    3    0    0 -0.95107065656E+01 -0.83115208118E+00 -0.13483095214E+01  0.96416954933E+01  0.51100000000E-03 0. -1.
        -11    1    3    3    0    0  0.14566854966E+01 -0.28716738429E+02  0.20136353659E+01  0.28824082402E+02  0.51100000000E-03 0.  1.
         12    1    3    3    0    0  0.13538091208E+02  0.19769370594E+01 -0.15714870395E+02  0.20836154761E+02  0.00000000000E+00 0. -1.
</event>
<event>
 7    1  0.6198176E-013  0.5930190E+02  0.7816164E-02  0.1266605E+00
        -11   -1    0    0    0    0  0.00000000000E+00  0.00000000000E+00  0.45593999997E+02  0.45594000000E+02  0.51100000000E-03 0. -1.
         11   -1    0    0    0    0 -0.00000000000E+00 -0.00000000000E+00 -0.45593999997E+02  0.45594000000E+02  0.51100000000E-03 0.  1.
    9900012    2    1    2    0    0 -0.23692753749E+02  0.50716698656E+01  0.20728126443E+02  0.59301895797E+02  0.49999912039E+02 0.  0.
        -12    1    1    2    0    0  0.23692753749E+02 -0.50716698656E+01 -0.20728126443E+02  0.31886104203E+02  0.00000000000E+00 0.  1.
         11    1    3    3    0    0 -0.23782848786E+02  0.82811405809E+01  0.79032908657E+01  0.26394378047E+02  0.51100000000E-03 0. -1.
        -11    1    3    3    0    0 -0.91531032084E+01  0.75264076901E+01 -0.24218363503E+01  0.12095098289E+02  0.51100000000E-03 0.  1.
        -12    1    3    3    0    0  0.92431982459E+01 -0.10735878405E+02  0.15246671928E+02  0.20812419461E+02  0.00000000000E+00 0.  1.
</event>
<event>
 7    1  0.6198176E-013  0.5930196E+02  0.7816164E-02  0.1266605E+00
        -11   -1    0    0    0    0  0.00000000000E+00  0.00000000000E+00  0.45593999997E+02  0.45594000000E+02  0.51100000000E-03 0. -1.
         11   -1    0    0    0    0 -0.00000000000E+00 -0.00000000000E+00 -0.45593999997E+02  0.45594000000E+02  0.51100000000E-03 0.  1.
    9900012    2    1    2    0    0  0.30845844527E+02 -0.62336049284E+00  0.80538557826E+01  0.59301963937E+02  0.50000036309E+02 0.  0.
        -12    1    1    2    0    0 -0.30845844527E+02  0.62336049284E+00 -0.80538557826E+01  0.31886036063E+02  0.00000000000E+00 0.  1.
         11    1    3    3    0    0 -0.14829727551E+01 -0.85108452010E+01 -0.54110209731E+01  0.10193764882E+02  0.51100000000E-03 0. -1.
        -11    1    3    3    0    0 -0.65357112516E+01  0.28204250025E+01  0.57777149835E+01  0.91680046603E+01  0.51100000000E-03 0.  1.
         12    1    3    3    0    0  0.38864528533E+02  0.50670597056E+01  0.76871617723E+01  0.39940194395E+02  0.00000000000E+00 0. -1.
</event>
<event>
 7    1  0.6198176E-013  0.5930199E+02  0.7816164E-02  0.1266605E+00
        -11   -1    0    0    0    0  0.00000000000E+00  0.00000000000E+00  0.45593999997E+02  0.45594000000E+02  0.51100000000E-03 0.  1.
         11   -1    0    0    0    0 -0.00000000000E+00 -0.00000000000E+00 -0.45593999997E+02  0.45594000000E+02  0.51100000000E-03 0. -1.
    9900012    2    1    2    0    0 -0.14624760922E+02 -0.27638468437E+02  0.62409127347E+01  0.59301991135E+02  0.50000085913E+02 0.  0.
        -12    1    1    2    0    0  0.14624760922E+02  0.27638468437E+02 -0.62409127347E+01  0.31886008865E+02  0.00000000000E+00 0.  1.
         11    1    3    3    0    0 -0.22065386853E+02 -0.80944385884E+01  0.29721948807E+01  0.23690402607E+02  0.51100000000E-03 0.  1.
        -11    1    3    3    0    0 -0.30102963023E+01 -0.13773375830E+02 -0.10358428915E+02  0.17494708212E+02  0.51100000000E-03 0. -1.
         12    1    3    3    0    0  0.10450922233E+02 -0.57706540186E+01  0.13627146769E+02  0.18116880316E+02  0.00000000000E+00 0. -1.
</event>
<event>
 7    1  0.6198176E-013  0.5930194E+02  0.7816164E-02  0.1266605E+00
        -11   -1    0    0    0    0  0.00000000000E+00  0.00000000000E+00  0.45593999997E+02  0.45594000000E+02  0.51100000000E-03 0.  1.
         11   -1    0    0    0    0 -0.00000000000E+00 -0.00000000000E+00 -0.45593999997E+02  0.45594000000E+02  0.51100000000E-03 0. -1.
    9900012    2    1    2    0    0  0.30681163109E+02  0.20548206038E+01 -0.84359157044E+01  0.59301941429E+02  0.49999995260E+02 0.  0.
        -12    1    1    2    0    0 -0.30681163109E+02 -0.20548206038E+01  0.84359157044E+01  0.31886058571E+02  0.00000000000E+00 0.  1.
         11    1    3    3    0    0 -0.15100797710E+01 -0.46595802672E+01 -0.10461488070E+02  0.11551396543E+02  0.51100000000E-03 0. -1.
        -11    1    3    3    0    0  0.90542879596E+01  0.18175782168E+02 -0.51554695912E+01  0.20950371234E+02  0.51100000000E-03 0.  1.
        -12    1    3    3    0    0  0.23136954920E+02 -0.11461381297E+02  0.71810419570E+01  0.26800173652E+02  0.00000000000E+00 0.  1.
</event>
<event>
 7    1  0.6198176E-013  0.5930200E+02  0.7816164E-02  0.1266605E+00
        -11   -1    0    0    0    0  0.00000000000E+00  0.00000000000E+00  0.45593999997E+02  0.45594000000E+02  0.51100000000E-03 0.  1.
         11   -1    0    0    0    0 -0.00000000000E+00 -0.00000000000E+00 -0.45593999997E+02  0.45594000000E+02  0.51100000000E-03 0. -1.
    9900012    2    1    2    0    0 -0.12442142843E+02  0.65201172535E+01 -0.28625134940E+02  0.59301996835E+02  0.50000096308E+02 0.  0.
        -12    1    1    2    0    0  0.12442142843E+02 -0.65201172535E+01  0.28625134940E+02  0.31886003165E+02  0.00000000000E+00 0.  1.
         11    1    3    3    0    0 -0.11226395154E+02  0.93776144493E+00 -0.16081650666E+02  0.19634939091E+02  0.51100000000E-03 0. -1.
        -11    1    3    3    0    0  0.30635042187E+01 -0.97385677263E+01  0.85023037270E+01  0.13285854447E+02  0.51100000000E-03 0.  1.
         12    1    3    3    0    0 -0.42792519078E+01  0.15320923535E+02 -0.21045788000E+02  0.26381203297E+02  0.00000000000E+00 0. -1.
</event>
<event>
 7    1  0.6198176E-013  0.5930199E+02  0.7816164E-02  0.1266605E+00
        -11   -1    0    0    0    0  0.00000000000E+00  0.00000000000E+00  0.45593999997E+02  0.45594000000E+02  0.51100000000E-03 0. -1.
         11   -1    0    0    0    0 -0.00000000000E+00 -0.00000000000E+00 -0.45593999997E+02  0.45594000000E+02  0.51100000000E-03 0.  1.
    9900012    2    1    2    0    0 -0.32149073360E+00  0.31831621895E+02  0.18335284858E+01  0.59301994677E+02  0.50000092372E+02 0.  0.
        -12    1    1    2    0    0  0.32149073360E+00 -0.31831621895E+02 -0.18335284858E+01  0.31886005323E+02  0.00000000000E+00 0.  1.
         11    1    3    3    0    0  0.22820676346E+01  0.79121733656E+01 -0.67594272295E+01  0.10653646173E+02  0.51100000000E-03 0. -1.
        -11    1    3    3    0    0 -0.20257172721E+02  0.21068899052E+02  0.10673982533E+01  0.29247066403E+02  0.51100000000E-03 0.  1.
         12    1    3    3    0    0  0.17653614353E+02  0.28505494772E+01  0.75255574620E+01  0.19401282101E+02  0.00000000000E+00 0. -1.
</event>
<event>
 7    1  0.6198176E-013  0.5930195E+02  0.7816164E-02  0.1266605E+00
        -11   -1    0    0    0    0  0.00000000000E+00  0.00000000000E+00  0.45593999997E+02  0.45594000000E+02  0.51100000000E-03 0. -1.
         11   -1    0    0    0    0 -0.00000000000E+00 -0.00000000000E+00 -0.45593999997E+02  0.45594000000E+02  0.51100000000E-03 0.  1.
    9900012    2    1    2    0    0  0.25791596780E+02 -0.10512784126E+02  0.15524023256E+02  0.59301946738E+02  0.50000004943E+02 0.  0.
        -12    1    1    2    0    0 -0.25791596780E+02  0.10512784126E+02 -0.15524023256E+02  0.31886053262E+02  0.00000000000E+00 0.  1.
         11    1    3    3    0    0  0.97729607370E+01  0.80961470821E+01 -0.94453601856E-01  0.12691228502E+02  0.51100000000E-03 0. -1.
        -11    1    3    3    0    0  0.19711341900E+02  0.37003777458E+01  0.18613184973E+01  0.20141854477E+02  0.51100000000E-03 0.  1.
        -12    1    3    3    0    0 -0.36927058565E+01 -0.22309308954E+02  0.13757158360E+02  0.26468863759E+02  0.00000000000E+00 0.  1.
</event>
<event>
 7    1  0.6198176E-013  0.5930195E+02  0.7816164E-02  0.1266605E+00
        -11   -1    0    0    0    0  0.00000000000E+00  0.00000000000E+00  0.45593999997E+02  0.45594000000E+02  0.51100000000E-03 0.  1.
         11   -1    0    0    0    0 -0.00000000000E+00 -0.00000000000E+00 -0.45593999997E+02  0.45594000000E+02  0.51100000000E-03 0. -1.
    9900012    2    1    2    0    0  0.55330800927E+01 -0.31024601659E+02 -0.48558348063E+01  0.59301952659E+02  0.50000015741E+02 0.  0.
        -12    1    1    2    0    0 -0.55330800927E+01  0.31024601659E+02  0.48558348063E+01  0.31886047341E+02  0.00000000000E+00 0.  1.
         11    1    3    3    0    0  0.65707614840E+01 -0.39274708506E+02  0.44556222163E+01  0.40069067924E+02  0.51100000000E-03 0. -1.
        -11    1    3    3    0    0 -0.42310166067E+01  0.13356945145E+01 -0.10615907589E+02  0.11505784439E+02  0.51100000000E-03 0.  1.
        -12    1    3    3    0    0  0.31933352154E+01  0.69144123325E+01  0.13044505661E+01  0.77271002957E+01  0.00000000000E+00 0.  1.
</event>
<event>
 7    1  0.6198176E-013  0.5930195E+02  0.7816164E-02  0.1266605E+00
        -11   -1    0    0    0    0  0.00000000000E+00  0.00000000000E+00  0.45593999997E+02  0.45594000000E+02  0.51100000000E-03 0.  1.
         11   -1    0    0    0    0 -0.00000000000E+00 -0.00000000000E+00 -0.45593999997E+02  0.45594000000E+02  0.51100000000E-03 0. -1.
    9900012    2    1    2    0    0 -0.22504241154E+01  0.31114136108E+02  0.66004646445E+01  0.59301952770E+02  0.50000015944E+02 0.  0.
        -12    1    1    2    0    0  0.22504241154E+01 -0.31114136108E+02 -0.66004646445E+01  0.31886047230E+02  0.00000000000E+00 0.  1.
         11    1    3    3    0    0 -0.11874584358E+02  0.25443656815E+02  0.59140293878E+01  0.28694270677E+02  0.51100000000E-03 0. -1.
        -11    1    3    3    0    0  0.11022447000E+02  0.15758778655E+02 -0.35869960281E+01  0.19562719222E+02  0.51100000000E-03 0.  1.
        -12    1    3    3    0    0 -0.13982867575E+01 -0.10088299362E+02  0.42734312848E+01  0.11044962871E+02  0.00000000000E+00 0.  1.
</event>
<event>
 7    1  0.6198176E-013  0.5930191E+02  0.7816164E-02  0.1266605E+00
        -11   -1    0    0    0    0  0.00000000000E+00  0.00000000000E+00  0.45593999997E+02  0.45594000000E+02  0.51100000000E-03 0. -1.
         11   -1    0    0    0    0 -0.00000000000E+00 -0.00000000000E+00 -0.45593999997E+02  0.45594000000E+02  0.51100000000E-03 0.  1.
    9900012    2    1    2    0    0 -0.65366547849E+01  0.28232027629E+02  0.13302151559E+02  0.59301914070E+02  0.49999945364E+02 0.  0.
        -12    1    1    2    0    0  0.65366547849E+01 -0.28232027629E+02 -0.13302151559E+02  0.31886085930E+02  0.00000000000E+00 0.  1.
         11    1    3    3    0    0 -0.14132901487E+02  0.10862959491E+02 -0.39783694613E+01  0.18263904763E+02  0.51100000000E-03 0. -1.
        -11    1    3    3    0    0 -0.91498543200E+01  0.18018604242E+02  0.11822867511E+02  0.23413033323E+02  0.51100000000E-03 0.  1.
        -12    1    3    3    0    0  0.16746101023E+02 -0.64953610412E+00  0.54576535091E+01  0.17624975984E+02  0.00000000000E+00 0.  1.
</event>
<event>
 7    1  0.6198176E-013  0.5930194E+02  0.7816164E-02  0.1266605E+00
        -11   -1    0    0    0    0  0.00000000000E+00  0.00000000000E+00  0.45593999997E+02  0.45594000000E+02  0.51100000000E-03 0.  1.
         11   -1    0    0    0    0 -0.00000000000E+00 -0.00000000000E+00 -0.45593999997E+02  0.45594000000E+02  0.51100000000E-03 0. -1.
    9900012    2    1    2    0    0  0.17987632825E+02 -0.18760472213E+02 -0.18471877918E+02  0.59301944645E+02  0.50000001126E+02 0.  0.
        -12    1    1    2    0    0 -0.17987632825E+02  0.18760472213E+02  0.18471877918E+02  0.31886055355E+02  0.00000000000E+00 0.  1.
         11    1    3    3    0    0  0.13715989084E+02  0.47560974036E+01  0.51870778620E+01  0.15416049951E+02  0.51100000000E-03 0. -1.
        -11    1    3    3    0    0 -0.12406183210E+01 -0.33071598527E+01  0.63633254490E+01  0.72779359121E+01  0.51100000000E-03 0.  1.
         12    1    3    3    0    0  0.55122620614E+01 -0.20209409764E+02 -0.30022281229E+02  0.36607958782E+02  0.00000000000E+00 0. -1.
</event>
<event>
 7    1  0.6198176E-013  0.5930200E+02  0.7816164E-02  0.1266605E+00
        -11   -1    0    0    0    0  0.00000000000E+00  0.00000000000E+00  0.45593999997E+02  0.45594000000E+02  0.51100000000E-03 0.  1.
         11   -1    0    0    0    0 -0.00000000000E+00 -0.00000000000E+00 -0.45593999997E+02  0.45594000000E+02  0.51100000000E-03 0. -1.
    9900012    2    1    2    0    0 -0.44188150641E+01 -0.31503282598E+02 -0.21757640054E+01  0.59302004798E+02  0.50000110830E+02 0.  0.
        -12    1    1    2    0    0  0.44188150641E+01  0.31503282598E+02  0.21757640054E+01  0.31885995202E+02  0.00000000000E+00 0.  1.
         11    1    3    3    0    0  0.18610033705E+02 -0.22327298816E+02 -0.74186975512E+01  0.29997978274E+02  0.51100000000E-03 0. -1.
        -11    1    3    3    0    0 -0.82985356779E+01 -0.15816363068E+01 -0.50045263897E+01  0.98189893803E+01  0.51100000000E-03 0.  1.
        -12    1    3    3    0    0 -0.14730313092E+02 -0.75943474753E+01  0.10247459936E+02  0.19485037144E+02  0.00000000000E+00 0.  1.
</event>
<event>
 7    1  0.6198176E-013  0.5930189E+02  0.7816164E-02  0.1266605E+00
        -11   -1    0    0    0    0  0.00000000000E+00  0.00000000000E+00  0.45593999997E+02  0.45594000000E+02  0.51100000000E-03 0.  1.
         11   -1    0    0    0    0 -0.00000000000E+00 -0.00000000000E+00 -0.45593999997E+02  0.45594000000E+02  0.51100000000E-03 0. -1.
    9900012    2    1    2    0    0 -0.11330825134E+02 -0.49437887180E+01 -0.29392097718E+02  0.59301889334E+02  0.49999900252E+02 0.  0.
        -12    1    1    2    0    0  0.11330825134E+02  0.49437887180E+01  0.29392097718E+02  0.31886110666E+02  0.00000000000E+00 0.  1.
         11    1    3    3    0    0 -0.13044500573E+02  0.78287358988E+01 -0.10266755862E+01  0.15248021642E+02  0.51100000000E-03 0. -1.
        -11    1    3    3    0    0 -0.77742628209E+00  0.47148115450E+01  0.46136223911E+01  0.66422399352E+01  0.51100000000E-03 0.  1.
         12    1    3    3    0    0  0.24911017204E+01 -0.17487336162E+02 -0.32979044523E+02  0.37411627757E+02  0.00000000000E+00 0. -1.
</event>
<event>
 7    1  0.6198176E-013  0.5930193E+02  0.7816164E-02  0.1266605E+00
        -11   -1    0    0    0    0  0.00000000000E+00  0.00000000000E+00  0.45593999997E+02  0.45594000000E+02  0.51100000000E-03 0. -1.
         11   -1    0    0    0    0 -0.00000000000E+00 -0.00000000000E+00 -0.45593999997E+02  0.45594000000E+02  0.51100000000E-03 0.  1.
    9900012    2    1    2    0    0  0.21214494346E+02 -0.22651452915E+02  0.73197122297E+01  0.59301932876E+02  0.49999979662E+02 0.  0.
        -12    1    1    2    0    0 -0.21214494346E+02  0.22651452915E+02 -0.73197122297E+01  0.31886067124E+02  0.00000000000E+00 0.  1.
         11    1    3    3    0    0 -0.61157428442E+01 -0.16197396024E+02 -0.64944812329E+01  0.18491517927E+02  0.51100000000E-03 0. -1.
        -11    1    3    3    0    0 -0.51111532446E+01  0.79319014497E-01  0.48707928009E+00  0.51349221495E+01  0.51100000000E-03 0.  1.
        -12    1    3    3    0    0  0.32441390435E+02 -0.65333759052E+01  0.13327114183E+02  0.35675492800E+02  0.00000000000E+00 0.  1.
</event>
<event>
 7    1  0.6198176E-013  0.5930194E+02  0.7816164E-02  0.1266605E+00
        -11   -1    0    0    0    0  0.00000000000E+00  0.00000000000E+00  0.45593999997E+02  0.45594000000E+02  0.51100000000E-03 0.  1.
         11   -1    0    0    0    0 -0.00000000000E+00 -0.00000000000E+00 -0.45593999997E+02  0.45594000000E+02  0.51100000000E-03 0. -1.
    9900012    2    1    2    0    0 -0.40839484118E+01 -0.16702369117E+02 -0.26852798406E+02  0.59301944255E+02  0.50000000414E+02 0.  0.
        -12    1    1    2    0    0  0.40839484118E+01  0.16702369117E+02  0.26852798406E+02  0.31886055745E+02  0.00000000000E+00 0.  1.
         11    1    3    3    0    0  0.58168486107E+01  0.25919021103E+01  0.12099034519E+01  0.64820946409E+01  0.51100000000E-03 0. -1.
        -11    1    3    3    0    0  0.99094845237E+01 -0.60217789801E+01  0.45184180025E+01  0.12444910892E+02  0.51100000000E-03 0.  1.
        -12    1    3    3    0    0 -0.19810281546E+02 -0.13272492247E+02 -0.32581119861E+02  0.40374938722E+02  0.00000000000E+00 0.  1.
</event>
<event>
 7    1  0.6198176E-013  0.5930194E+02  0.7816164E-02  0.1266605E+00
        -11   -1    0    0    0    0  0.00000000000E+00  0.00000000000E+00  0.45593999997E+02  0.45594000000E+02  0.51100000000E-03 0.  1.
         11   -1    0    0    0    0 -0.00000000000E+00 -0.00000000000E+00 -0.45593999997E+02  0.45594000000E+02  0.51100000000E-03 0. -1.
    9900012    2    1    2    0    0  0.24262875358E+02 -0.13642080389E+01 -0.20643945835E+02  0.59301942172E+02  0.49999996615E+02 0.  0.
        -12    1    1    2    0    0 -0.24262875358E+02  0.13642080389E+01  0.20643945835E+02  0.31886057828E+02  0.00000000000E+00 0.  1.
         11    1    3    3    0    0  0.44434967868E+01  0.52551301785E+01  0.77786867244E+01  0.10386001363E+02  0.51100000000E-03 0. -1.
        -11    1    3    3    0    0  0.92691344678E+01 -0.96027068251E+01  0.46029976784E+01  0.14117946736E+02  0.51100000000E-03 0.  1.
         12    1    3    3    0    0  0.10550244103E+02  0.29833686078E+01 -0.33025630238E+02  0.34797994073E+02  0.00000000000E+00 0. -1.
</event>
<event>
 7    1  0.6198176E-013  0.5930194E+02  0.7816164E-02  0.1266605E+00
        -11   -1    0    0    0    0  0.00000000000E+00  0.00000000000E+00  0.45593999997E+02  0.45594000000E+02  0.51100000000E-03 0. -1.
         11   -1    0    0    0    0 -0.00000000000E+00 -0.00000000000E+00 -0.45593999997E+02  0.45594000000E+02  0.51100000000E-03 0.  1.
    9900012    2    1    2    0    0 -0.25409467457E+02  0.56690964133E+01 -0.18410355939E+02  0.59301938839E+02  0.49999990537E+02 0.  0.
        -12    1    1    2    0    0  0.25409467457E+02 -0.56690964133E+01  0.18410355939E+02  0.31886061161E+02  0.00000000000E+00 0.  1.
         11    1    3    3    0    0 -0.49760475362E+01 -0.94501847931E+01  0.15368246513E+01  0.10790221127E+02  0.51100000000E-03 0. -1.
        -11    1    3    3    0    0  0.31683626826E+01 -0.68169786068E+01  0.38586154353E+01  0.84497711657E+01  0.51100000000E-03 0.  1.
         12    1    3    3    0    0 -0.23601782603E+02  0.21936259813E+02 -0.23805796025E+02  0.40061946546E+02  0.00000000000E+00 0. -1.
</event>
<event>
 7    1  0.6198176E-013  0.5930195E+02  0.7816164E-02  0.1266605E+00
        -11   -1    0    0    0    0  0.00000000000E+00  0.00000000000E+00  0.45593999997E+02  0.45594000000E+02  0.51100000000E-03 0.  1.
         11   -1    0    0    0    0 -0.00000000000E+00 -0.00000000000E+00 -0.45593999997E+02  0.45594000000E+02  0.51100000000E-03 0. -1.
    9900012    2    1    2    0    0 -0.17930772579E+02 -0.14464190576E+02 -0.22045295562E+02  0.59301945514E+02  0.50000002711E+02 0.  0.
        -12    1    1    2    0    0  0.17930772579E+02  0.14464190576E+02  0.22045295562E+02  0.31886054486E+02  0.00000000000E+00 0.  1.
         11    1    3    3    0    0  0.20840812573E+01 -0.12107286678E+02 -0.60029496253E+01  0.13673521487E+02  0.51100000000E-03 0. -1.
        -11    1    3    3    0    0  0.74692889913E+01 -0.42335061435E+01 -0.15911402988E+02  0.18079977810E+02  0.51100000000E-03 0.  1.
        -12    1    3    3    0    0 -0.27484142827E+02  0.18766022454E+01 -0.13094294845E+00  0.27548446217E+02  0.00000000000E+00 0.  1.
</event>
<event>
 7    1  0.6198176E-013  0.5930193E+02  0.7816164E-02  0.1266605E+00
        -11   -1    0    0    0    0  0.00000000000E+00  0.00000000000E+00  0.45593999997E+02  0.45594000000E+02  0.51100000000E-03 0. -1.
         11   -1    0    0    0    0 -0.00000000000E+00 -0.00000000000E+00 -0.45593999997E+02  0.45594000000E+02  0.51100000000E-03 0.  1.
    9900012    2    1    2    0    0 -0.15118976204E+02 -0.43035869480E+01  0.27741977862E+02  0.59301927213E+02  0.49999969334E+02 0.  0.
        -12    1    1    2    0    0  0.15118976204E+02  0.43035869480E+01 -0.27741977862E+02  0.31886072787E+02  0.00000000000E+00 0.  1.
         11    1    3    3    0    0 -0.83061508460E+01  0.63587476618E+01  0.11281163960E+02  0.15384748105E+02  0.51100000000E-03 0. -1.
        -11    1    3    3    0    0 -0.18665653508E+02  0.40470313410E+01  0.16168839403E+02  0.25024317203E+02  0.51100000000E-03 0.  1.
         12    1    3    3    0    0  0.11852828150E+02 -0.14709365951E+02  0.29197449880E+00  0.18892861904E+02  0.00000000000E+00 0. -1.
</event>
<event>
 7    1  0.6198176E-013  0.5930196E+02  0.7816164E-02  0.1266605E+00
        -11   -1    0    0    0    0  0.00000000000E+00  0.00000000000E+00  0.45593999997E+02  0.45594000000E+02  0.51100000000E-03 0. -1.
         11   -1    0    0    0    0 -0.00000000000E+00 -0.00000000000E+00 -0.45593999997E+02  0.45594000000E+02  0.51100000000E-03 0.  1.
    9900012    2    1    2    0    0  0.82858120599E+01  0.20952444202E+02 -0.22562361678E+02  0.59301956595E+02  0.50000022919E+02 0.  0.
        -12    1    1    2    0    0 -0.82858120599E+01 -0.20952444202E+02  0.22562361678E+02  0.31886043405E+02  0.00000000000E+00 0.  1.
         11    1    3    3    0    0 -0.13069567521E+02 -0.17115162859E+01 -0.13551085240E+02  0.18904359144E+02  0.51100000000E-03 0.  1.
        -11    1    3    3    0    0  0.29083800982E+01  0.14635243676E+02  0.51607605394E+01  0.15788682082E+02  0.51100000000E-03 0. -1.
        -12    1    3    3    0    0  0.18446999483E+02  0.80287168114E+01 -0.14172036977E+02  0.24608915369E+02  0.00000000000E+00 0.  1.
</event>
<event>
 7    1  0.6198176E-013  0.5930193E+02  0.7816164E-02  0.1266605E+00
        -11   -1    0    0    0    0  0.00000000000E+00  0.00000000000E+00  0.45593999997E+02  0.45594000000E+02  0.51100000000E-03 0. -1.
         11   -1    0    0    0    0 -0.00000000000E+00 -0.00000000000E+00 -0.45593999997E+02  0.45594000000E+02  0.51100000000E-03 0.  1.
    9900012    2    1    2    0    0 -0.22278145058E+02  0.19005081567E+02  0.12617947318E+02  0.59301929889E+02  0.49999974215E+02 0.  0.
        -12    1    1    2    0    0  0.22278145058E+02 -0.19005081567E+02 -0.12617947318E+02  0.31886070111E+02  0.00000000000E+00 0.  1.
         11    1    3    3    0    0 -0.20285243483E+02  0.67382360197E+01  0.12193503454E+02  0.24608463068E+02  0.51100000000E-03 0. -1.
        -11    1    3    3    0    0 -0.11944606783E+02 -0.53846845487E+01 -0.44761134948E+01  0.13845723209E+02  0.51100000000E-03 0.  1.
        -12    1    3    3    0    0  0.99517052092E+01  0.17651530096E+02  0.49005573593E+01  0.20847743612E+02  0.00000000000E+00 0.  1.
</event>
<event>
 7    1  0.6198176E-013  0.5930183E+02  0.7816164E-02  0.1266605E+00
        -11   -1    0    0    0    0  0.00000000000E+00  0.00000000000E+00  0.45593999997E+02  0.45594000000E+02  0.51100000000E-03 0.  1.
         11   -1    0    0    0    0 -0.00000000000E+00 -0.00000000000E+00 -0.45593999997E+02  0.45594000000E+02  0.51100000000E-03 0. -1.
    9900012    2    1    2    0    0  0.21270574541E+02  0.22416797256E+02 -0.78598597481E+01  0.59301834728E+02  0.49999800663E+02 0.  0.
        -12    1    1    2    0    0 -0.21270574541E+02 -0.22416797256E+02  0.78598597481E+01  0.31886165272E+02  0.00000000000E+00 0.  1.
         11    1    3    3    0    0 -0.96280632236E+01  0.88445475830E-01 -0.89617461510E+01  0.13153718804E+02  0.51100000000E-03 0. -1.
        -11    1    3    3    0    0  0.10840817624E+02  0.30115054444E+01 -0.11045526342E+02  0.15766931985E+02  0.51100000000E-03 0.  1.
         12    1    3    3    0    0  0.20057820140E+02  0.19316846335E+02  0.12147412744E+02  0.30381183939E+02  0.00000000000E+00 0. -1.
</event>
<event>
 7    1  0.6198176E-013  0.5930199E+02  0.7816164E-02  0.1266605E+00
        -11   -1    0    0    0    0  0.00000000000E+00  0.00000000000E+00  0.45593999997E+02  0.45594000000E+02  0.51100000000E-03 0.  1.
         11   -1    0    0    0    0 -0.00000000000E+00 -0.00000000000E+00 -0.45593999997E+02  0.45594000000E+02  0.51100000000E-03 0. -1.
    9900012    2    1    2    0    0 -0.24013783384E+02 -0.12136798752E+01 -0.20942375973E+02  0.59301985469E+02  0.50000075580E+02 0.  0.
        -12    1    1    2    0    0  0.24013783384E+02  0.12136798752E+01  0.20942375973E+02  0.31886014531E+02  0.00000000000E+00 0.  1.
         11    1    3    3    0    0  0.49552275956E+01 -0.10476453700E+02 -0.44039202282E+01  0.12397777070E+02  0.51100000000E-03 0. -1.
        -11    1    3    3    0    0 -0.41166003576E+01  0.52851412914E+01  0.88864205678E+01  0.11128683109E+02  0.51100000000E-03 0.  1.
        -12    1    3    3    0    0 -0.24852410622E+02  0.39776325329E+01 -0.25424876313E+02  0.35775525290E+02  0.00000000000E+00 0.  1.
</event>
<event>
 7    1  0.6198176E-013  0.5930196E+02  0.7816164E-02  0.1266605E+00
        -11   -1    0    0    0    0  0.00000000000E+00  0.00000000000E+00  0.45593999997E+02  0.45594000000E+02  0.51100000000E-03 0.  1.
         11   -1    0    0    0    0 -0.00000000000E+00 -0.00000000000E+00 -0.45593999997E+02  0.45594000000E+02  0.51100000000E-03 0. -1.
    9900012    2    1    2    0    0 -0.28996143325E+02 -0.62827000184E+01  0.11682084054E+02  0.59301957048E+02  0.50000023746E+02 0.  0.
        -12    1    1    2    0    0  0.28996143325E+02  0.62827000184E+01 -0.11682084054E+02  0.31886042952E+02  0.00000000000E+00 0.  1.
         11    1    3    3    0    0 -0.31669871688E+02 -0.81662847537E+01  0.23178518936E+01  0.32787824220E+02  0.51100000000E-03 0. -1.
        -11    1    3    3    0    0 -0.27747577400E+01  0.11115713532E+02  0.10743116844E+02  0.15705824640E+02  0.51100000000E-03 0.  1.
        -12    1    3    3    0    0  0.54484861025E+01 -0.92321287967E+01 -0.13788846829E+01  0.10808308188E+02  0.00000000000E+00 0.  1.
</event>
<event>
 7    1  0.6198176E-013  0.5930195E+02  0.7816164E-02  0.1266605E+00
        -11   -1    0    0    0    0  0.00000000000E+00  0.00000000000E+00  0.45593999997E+02  0.45594000000E+02  0.51100000000E-03 0. -1.
         11   -1    0    0    0    0 -0.00000000000E+00 -0.00000000000E+00 -0.45593999997E+02  0.45594000000E+02  0.51100000000E-03 0.  1.
    9900012    2    1    2    0    0 -0.22433451247E+02  0.97849766482E+01  0.20438073835E+02  0.59301947172E+02  0.50000005735E+02 0.  0.
        -12    1    1    2    0    0  0.22433451247E+02 -0.97849766482E+01 -0.20438073835E+02  0.31886052828E+02  0.00000000000E+00 0.  1.
         11    1    3    3    0    0 -0.66802557661E+01 -0.13054639233E+02  0.80347982755E+01  0.16721465432E+02  0.51100000000E-03 0. -1.
        -11    1    3    3    0    0  0.58016111191E+01  0.61419630040E+01 -0.53907394729E+01  0.10022099253E+02  0.51100000000E-03 0.  1.
        -12    1    3    3    0    0 -0.21554806600E+02  0.16697652878E+02  0.17794015032E+02  0.32558382487E+02  0.00000000000E+00 0.  1.
</event>
<event>
 7    1  0.6198176E-013  0.5930195E+02  0.7816164E-02  0.1266605E+00
        -11   -1    0    0    0    0  0.00000000000E+00  0.00000000000E+00  0.45593999997E+02  0.45594000000E+02  0.51100000000E-03 0.  1.
         11   -1    0    0    0    0 -0.00000000000E+00 -0.00000000000E+00 -0.45593999997E+02  0.45594000000E+02  0.51100000000E-03 0. -1.
    9900012    2    1    2    0    0  0.27998375143E+02 -0.10592754535E+01 -0.15221344802E+02  0.59301946423E+02  0.50000004369E+02 0.  0.
        -12    1    1    2    0    0 -0.27998375143E+02  0.10592754535E+01  0.15221344802E+02  0.31886053577E+02  0.00000000000E+00 0.  1.
         11    1    3    3    0    0  0.39426416235E+01  0.51123716729E+01 -0.77180942059E+01  0.10062293254E+02  0.51100000000E-03 0. -1.
        -11    1    3    3    0    0  0.16905438018E+02  0.11006350829E+02  0.11018598853E+02  0.22985715436E+02  0.51100000000E-03 0.  1.
        -12    1    3    3    0    0  0.71502955009E+01 -0.17177997955E+02 -0.18521849449E+02  0.26253937733E+02  0.00000000000E+00 0.  1.
</event>
<event>
 7    1  0.6198176E-013  0.5930194E+02  0.7816164E-02  0.1266605E+00
        -11   -1    0    0    0    0  0.00000000000E+00  0.00000000000E+00  0.45593999997E+02  0.45594000000E+02  0.51100000000E-03 0.  1.
         11   -1    0    0    0    0 -0.00000000000E+00 -0.00000000000E+00 -0.45593999997E+02  0.45594000000E+02  0.51100000000E-03 0. -1.
    9900012    2    1    2    0    0  0.10531498072E+02  0.29219996049E+02 -0.72111179186E+01  0.59301939686E+02  0.49999992081E+02 0.  0.
        -12    1    1    2    0    0 -0.10531498072E+02 -0.29219996049E+02  0.72111179186E+01  0.31886060314E+02  0.00000000000E+00 0.  1.
         11    1    3    3    0    0  0.18197714534E+01 -0.52877300522E+01 -0.12386073899E+02  0.13589940550E+02  0.51100000000E-03 0. -1.
        -11    1    3    3    0    0 -0.22212692612E+01 -0.42106483314E+01  0.25340568646E+01  0.53930548816E+01  0.51100000000E-03 0.  1.
         12    1    3    3    0    0  0.10932995880E+02  0.38718374433E+02  0.26408991163E+01  0.40318944254E+02  0.00000000000E+00 0. -1.
</event>
<event>
 7    1  0.6198176E-013  0.5930202E+02  0.7816164E-02  0.1266605E+00
        -11   -1    0    0    0    0  0.00000000000E+00  0.00000000000E+00  0.45593999997E+02  0.45594000000E+02  0.51100000000E-03 0.  1.
         11   -1    0    0    0    0 -0.00000000000E+00 -0.00000000000E+00 -0.45593999997E+02  0.45594000000E+02  0.51100000000E-03 0. -1.
    9900012    2    1    2    0    0 -0.27981039300E+02  0.15250033265E+02  0.11017131859E+01  0.59302018020E+02  0.50000134944E+02 0.  0.
        -12    1    1    2    0    0  0.27981039300E+02 -0.15250033265E+02 -0.11017131859E+01  0.31885981980E+02  0.00000000000E+00 0.  1.
         11    1    3    3    0    0 -0.43870856417E+01 -0.22951920612E+00  0.77295685113E+01  0.88907496380E+01  0.51100000000E-03 0. -1.
        -11    1    3    3    0    0  0.85796683754E+01 -0.32778923647E+01  0.61324529149E+01  0.11043652783E+02  0.51100000000E-03 0.  1.
         12    1    3    3    0    0 -0.32173622033E+02  0.18757444836E+02 -0.12760308240E+02  0.39367615599E+02  0.00000000000E+00 0. -1.
</event>
<event>
 7    1  0.6198176E-013  0.5930194E+02  0.7816164E-02  0.1266605E+00
        -11   -1    0    0    0    0  0.00000000000E+00  0.00000000000E+00  0.45593999997E+02  0.45594000000E+02  0.51100000000E-03 0. -1.
         11   -1    0    0    0    0 -0.00000000000E+00 -0.00000000000E+00 -0.45593999997E+02  0.45594000000E+02  0.51100000000E-03 0.  1.
    9900012    2    1    2    0    0  0.20584521489E+02 -0.22633368629E+02  0.89849140524E+01  0.59301943785E+02  0.49999999557E+02 0.  0.
        -12    1    1    2    0    0 -0.20584521489E+02  0.22633368629E+02 -0.89849140524E+01  0.31886056215E+02  0.00000000000E+00 0.  1.
         11    1    3    3    0    0 -0.48494898582E+01 -0.16533978090E+02  0.17142070619E+02  0.24305155188E+02  0.51100000000E-03 0.  1.
        -11    1    3    3    0    0  0.12420569510E+02 -0.12508546125E+01  0.71036742946E+01  0.14363055836E+02  0.51100000000E-03 0. -1.
        -12    1    3    3    0    0  0.13013441837E+02 -0.48485359275E+01 -0.15260830861E+02  0.20633732761E+02  0.00000000000E+00 0.  1.
</event>
<event>
 7    1  0.6198176E-013  0.5930218E+02  0.7816164E-02  0.1266604E+00
        -11   -1    0    0    0    0  0.00000000000E+00  0.00000000000E+00  0.45593999997E+02  0.45594000000E+02  0.51100000000E-03 0.  1.
         11   -1    0    0    0    0 -0.00000000000E+00 -0.00000000000E+00 -0.45593999997E+02  0.45594000000E+02  0.51100000000E-03 0. -1.
    9900012    2    1    2    0    0 -0.59882004787E+00 -0.31840264413E+02 -0.15950924393E+01  0.59302182726E+02  0.50000435326E+02 0.  0.
        -12    1    1    2    0    0  0.59882004787E+00  0.31840264413E+02  0.15950924393E+01  0.31885817274E+02  0.00000000000E+00 0.  1.
         11    1    3    3    0    0  0.27836064300E+01 -0.15270824103E+02 -0.61983233355E+01  0.16714237822E+02  0.51100000000E-03 0. -1.
        -11    1    3    3    0    0 -0.18900808716E+02 -0.16054626072E+02  0.91113028025E+01  0.26419830193E+02  0.51100000000E-03 0.  1.
         12    1    3    3    0    0  0.15518382238E+02 -0.51481423859E+00 -0.45080719063E+01  0.16168114710E+02  0.00000000000E+00 0. -1.
</event>
<event>
 7    1  0.6198176E-013  0.5930196E+02  0.7816164E-02  0.1266605E+00
        -11   -1    0    0    0    0  0.00000000000E+00  0.00000000000E+00  0.45593999997E+02  0.45594000000E+02  0.51100000000E-03 0.  1.
         11   -1    0    0    0    0 -0.00000000000E+00 -0.00000000000E+00 -0.45593999997E+02  0.45594000000E+02  0.51100000000E-03 0. -1.
    9900012    2    1    2    0    0  0.14090540893E+02  0.24135760691E+02 -0.15350600808E+02  0.59301964939E+02  0.50000038137E+02 0.  0.
        -12    1    1    2    0    0 -0.14090540893E+02 -0.24135760691E+02  0.15350600808E+02  0.31886035061E+02  0.00000000000E+00 0.  1.
         11    1    3    3    0    0  0.70187777212E+01  0.11675512677E+00  0.41770520005E+01  0.81685149284E+01  0.51100000000E-03 0. -1.
        -11    1    3    3    0    0 -0.14141458381E+02  0.21416205134E+02 -0.13109294590E+02  0.28818193774E+02  0.51100000000E-03 0.  1.
         12    1    3    3    0    0  0.21213221552E+02  0.26028004295E+01 -0.64183582179E+01  0.22315256237E+02  0.00000000000E+00 0. -1.
</event>
<event>
 7    1  0.1003202E-012  0.5930195E+02  0.7816164E-02  0.1266605E+00
        -11   -1    0    0    0    0  0.00000000000E+00  0.00000000000E+00  0.45593999997E+02  0.45594000000E+02  0.51100000000E-03 0. -1.
         11   -1    0    0    0    0 -0.00000000000E+00 -0.00000000000E+00 -0.45593999997E+02  0.45594000000E+02  0.51100000000E-03 0.  1.
    9900012    2    1    2    0    0  0.14170123197E+02  0.28393955870E+02 -0.31162973114E+01  0.59301946147E+02  0.50000003865E+02 0.  0.
        -12    1    1    2    0    0 -0.14170123197E+02 -0.28393955870E+02  0.31162973114E+01  0.31886053853E+02  0.00000000000E+00 0.  1.
         11    1    3    3    0    0  0.43456189177E+01  0.28267860007E+02 -0.70555730308E+01  0.29457383186E+02  0.51100000000E-03 0. -1.
        -11    1    3    3    0    0  0.19098667255E+02  0.28233138368E+01 -0.27157944336E+00  0.19308131644E+02  0.51100000000E-03 0.  1.
        -12    1    3    3    0    0 -0.92741629753E+01 -0.26972179733E+01  0.42108551627E+01  0.10536431317E+02  0.00000000000E+00 0.  1.
</event>
<event>
 7    1  0.6198176E-013  0.5930195E+02  0.7816164E-02  0.1266605E+00
        -11   -1    0    0    0    0  0.00000000000E+00  0.00000000000E+00  0.45593999997E+02  0.45594000000E+02  0.51100000000E-03 0. -1.
         11   -1    0    0    0    0 -0.00000000000E+00 -0.00000000000E+00 -0.45593999997E+02  0.45594000000E+02  0.51100000000E-03 0.  1.
    9900012    2    1    2    0    0  0.61398891044E+01  0.13514530757E+01  0.31260130671E+02  0.59301946102E+02  0.50000003783E+02 0.  0.
        -12    1    1    2    0    0 -0.61398891044E+01 -0.13514530757E+01 -0.31260130671E+02  0.31886053898E+02  0.00000000000E+00 0.  1.
         11    1    3    3    0    0  0.87386808478E+01  0.11849494554E+01  0.15048208985E+02  0.17441824505E+02  0.51100000000E-03 0. -1.
        -11    1    3    3    0    0 -0.64840313481E+01  0.11081175123E+02  0.24469348820E+02  0.27633026192E+02  0.51100000000E-03 0.  1.
        -12    1    3    3    0    0  0.38852396048E+01 -0.10914671502E+02 -0.82574271335E+01  0.14227095405E+02  0.00000000000E+00 0.  1.
</event>
<event>
 7    1  0.6198176E-013  0.5930194E+02  0.7816164E-02  0.1266605E+00
        -11   -1    0    0    0    0  0.00000000000E+00  0.00000000000E+00  0.45593999997E+02  0.45594000000E+02  0.51100000000E-03 0.  1.
         11   -1    0    0    0    0 -0.00000000000E+00 -0.00000000000E+00 -0.45593999997E+02  0.45594000000E+02  0.51100000000E-03 0. -1.
    9900012    2    1    2    0    0  0.30344244410E+02  0.35273297505E+01 -0.91381255281E+01  0.59301944080E+02  0.50000000095E+02 0.  0.
        -12    1    1    2    0    0 -0.30344244410E+02 -0.35273297505E+01  0.91381255281E+01  0.31886055920E+02  0.00000000000E+00 0.  1.
         11    1    3    3    0    0  0.13648690926E+02 -0.14630652996E+02  0.24781321566E+01  0.20161446137E+02  0.51100000000E-03 0. -1.
        -11    1    3    3    0    0 -0.45117192001E+01 -0.28218263757E+01  0.27948037841E+01  0.60107605748E+01  0.51100000000E-03 0.  1.
        -12    1    3    3    0    0  0.21207272683E+02  0.20979809122E+02 -0.14411061469E+02  0.33129737368E+02  0.00000000000E+00 0.  1.
</event>
<event>
 7    1  0.6198176E-013  0.5930198E+02  0.7816164E-02  0.1266605E+00
        -11   -1    0    0    0    0  0.00000000000E+00  0.00000000000E+00  0.45593999997E+02  0.45594000000E+02  0.51100000000E-03 0.  1.
         11   -1    0    0    0    0 -0.00000000000E+00 -0.00000000000E+00 -0.45593999997E+02  0.45594000000E+02  0.51100000000E-03 0. -1.
    9900012    2    1    2    0    0  0.23820416650E+02  0.21113566495E+02 -0.18771106772E+01  0.59301976667E+02  0.50000059527E+02 0.  0.
        -12    1    1    2    0    0 -0.23820416650E+02 -0.21113566495E+02  0.18771106772E+01  0.31886023333E+02  0.00000000000E+00 0.  1.
         11    1    3    3    0    0 -0.52282713850E+00  0.10725819587E+02  0.22994964238E+01  0.10981996089E+02  0.51100000000E-03 0. -1.
        -11    1    3    3    0    0  0.22605481906E+02 -0.68465455669E+01  0.10278567061E+02  0.25759113718E+02  0.51100000000E-03 0.  1.
         12    1    3    3    0    0  0.17377618817E+01  0.17234292475E+02 -0.14455174162E+02  0.22560866861E+02  0.00000000000E+00 0. -1.
</event>
<event>
 7    1  0.6198176E-013  0.5930193E+02  0.7816164E-02  0.1266605E+00
        -11   -1    0    0    0    0  0.00000000000E+00  0.00000000000E+00  0.45593999997E+02  0.45594000000E+02  0.51100000000E-03 0. -1.
         11   -1    0    0    0    0 -0.00000000000E+00 -0.00000000000E+00 -0.45593999997E+02  0.45594000000E+02  0.51100000000E-03 0.  1.
    9900012    2    1    2    0    0  0.82924937216E+01  0.13392861838E+02  0.27723409927E+02  0.59301926891E+02  0.49999968747E+02 0.  0.
        -12    1    1    2    0    0 -0.82924937216E+01 -0.13392861838E+02 -0.27723409927E+02  0.31886073109E+02  0.00000000000E+00 0.  1.
         11    1    3    3    0    0  0.16324048295E+01 -0.79744613114E+01  0.71055885615E+01  0.10804914058E+02  0.51100000000E-03 0. -1.
        -11    1    3    3    0    0  0.91293945398E+01 -0.10708974251E+01 -0.79040674187E+01  0.12122992534E+02  0.51100000000E-03 0.  1.
         12    1    3    3    0    0 -0.24693056476E+01  0.22438220574E+02  0.28521888784E+02  0.36374020299E+02  0.00000000000E+00 0. -1.
</event>
<event>
 7    1  0.6198176E-013  0.5930193E+02  0.7816164E-02  0.1266605E+00
        -11   -1    0    0    0    0  0.00000000000E+00  0.00000000000E+00  0.45593999997E+02  0.45594000000E+02  0.51100000000E-03 0. -1.
         11   -1    0    0    0    0 -0.00000000000E+00 -0.00000000000E+00 -0.45593999997E+02  0.45594000000E+02  0.51100000000E-03 0.  1.
    9900012    2    1    2    0    0 -0.10636586788E+02 -0.28058457831E+02 -0.10784594715E+02  0.59301929099E+02  0.49999972774E+02 0.  0.
        -12    1    1    2    0    0  0.10636586788E+02  0.28058457831E+02  0.10784594715E+02  0.31886070901E+02  0.00000000000E+00 0.  1.
         11    1    3    3    0    0 -0.46843995395E+01 -0.20113629312E+02 -0.98364639178E+01  0.22874826902E+02  0.51100000000E-03 0. -1.
        -11    1    3    3    0    0  0.14484860511E+02 -0.37216096166E+01 -0.36219706152E+01  0.15387664981E+02  0.51100000000E-03 0.  1.
        -12    1    3    3    0    0 -0.20437047759E+02 -0.42232189022E+01  0.26738398181E+01  0.21039437216E+02  0.00000000000E+00 0.  1.
</event>
<event>
 7    1  0.6198176E-013  0.5930194E+02  0.7816164E-02  0.1266605E+00
        -11   -1    0    0    0    0  0.00000000000E+00  0.00000000000E+00  0.45593999997E+02  0.45594000000E+02  0.51100000000E-03 0.  1.
         11   -1    0    0    0    0 -0.00000000000E+00 -0.00000000000E+00 -0.45593999997E+02  0.45594000000E+02  0.51100000000E-03 0. -1.
    9900012    2    1    2    0    0 -0.11266850098E+02 -0.81515738259E+01 -0.28693743914E+02  0.59301937108E+02  0.49999987379E+02 0.  0.
        -12    1    1    2    0    0  0.11266850098E+02  0.81515738259E+01  0.28693743914E+02  0.31886062892E+02  0.00000000000E+00 0.  1.
         11    1    3    3    0    0 -0.86224372705E+01 -0.16244279227E+02 -0.26554565035E+02  0.32301206736E+02  0.51100000000E-03 0. -1.
        -11    1    3    3    0    0  0.56199957580E+01  0.10270339340E+01 -0.11378526944E+02  0.12732243584E+02  0.51100000000E-03 0.  1.
         12    1    3    3    0    0 -0.82644085851E+01  0.70656714673E+01  0.92393480648E+01  0.14268486788E+02  0.00000000000E+00 0. -1.
</event>
<event>
 7    1  0.6198176E-013  0.5930194E+02  0.7816164E-02  0.1266605E+00
        -11   -1    0    0    0    0  0.00000000000E+00  0.00000000000E+00  0.45593999997E+02  0.45594000000E+02  0.51100000000E-03 0.  1.
         11   -1    0    0    0    0 -0.00000000000E+00 -0.00000000000E+00 -0.45593999997E+02  0.45594000000E+02  0.51100000000E-03 0. -1.
    9900012    2    1    2    0    0  0.64363519480E+01 -0.27687565279E+02  0.14446200280E+02  0.59301943486E+02  0.49999999012E+02 0.  0.
        -12    1    1    2    0    0 -0.64363519480E+01  0.27687565279E+02 -0.14446200280E+02  0.31886056514E+02  0.00000000000E+00 0.  1.
         11    1    3    3    0    0 -0.98570402366E+01 -0.22084395036E+02  0.63708679291E+01  0.25009392331E+02  0.51100000000E-03 0. -1.
        -11    1    3    3    0    0  0.45991951214E+01 -0.16245293425E+02  0.84161212165E+00  0.16904746832E+02  0.51100000000E-03 0.  1.
        -12    1    3    3    0    0  0.11694197063E+02  0.10642123183E+02  0.72337202294E+01  0.17387804322E+02  0.00000000000E+00 0.  1.
</event>
<event>
 7    1  0.6198176E-013  0.5930195E+02  0.7816164E-02  0.1266605E+00
        -11   -1    0    0    0    0  0.00000000000E+00  0.00000000000E+00  0.45593999997E+02  0.45594000000E+02  0.51100000000E-03 0. -1.
         11   -1    0    0    0    0 -0.00000000000E+00 -0.00000000000E+00 -0.45593999997E+02  0.45594000000E+02  0.51100000000E-03 0.  1.
    9900012    2    1    2    0    0 -0.80122588878E+01 -0.30649668516E+02  0.36223758106E+01  0.59301951653E+02  0.50000013907E+02 0.  0.
        -12    1    1    2    0    0  0.80122588878E+01  0.30649668516E+02 -0.36223758106E+01  0.31886048347E+02  0.00000000000E+00 0.  1.
         11    1    3    3    0    0  0.83984786003E+01 -0.18632608304E+01 -0.42986849115E+01  0.96169057369E+01  0.51100000000E-03 0. -1.
        -11    1    3    3    0    0 -0.38778021248E+01 -0.13524828278E+02 -0.14228529086E+02  0.20010231620E+02  0.51100000000E-03 0.  1.
         12    1    3    3    0    0 -0.12532935363E+02 -0.15261579408E+02  0.22149589808E+02  0.29674814297E+02  0.00000000000E+00 0. -1.
</event>
<event>
 7    1  0.6198176E-013  0.5930195E+02  0.7816164E-02  0.1266605E+00
        -11   -1    0    0    0    0  0.00000000000E+00  0.00000000000E+00  0.45593999997E+02  0.45594000000E+02  0.51100000000E-03 0.  1.
         11   -1    0    0    0    0 -0.00000000000E+00 -0.00000000000E+00 -0.45593999997E+02  0.45594000000E+02  0.51100000000E-03 0. -1.
    9900012    2    1    2    0    0 -0.15048829553E+02  0.10836812120E+02 -0.25938701281E+02  0.59301953021E+02  0.50000016401E+02 0.  0.
        -12    1    1    2    0    0  0.15048829553E+02 -0.10836812120E+02  0.25938701281E+02  0.31886046979E+02  0.00000000000E+00 0.  1.
         11    1    3    3    0    0 -0.10338292695E+02  0.45999188868E+00 -0.10982106625E+02  0.15089683713E+02  0.51100000000E-03 0. -1.
        -11    1    3    3    0    0 -0.10084390957E+02 -0.98071637977E+01  0.53795908994E+01  0.15060391802E+02  0.51100000000E-03 0.  1.
         12    1    3    3    0    0  0.53738540993E+01  0.20183984029E+02 -0.20336185555E+02  0.29151877505E+02  0.00000000000E+00 0. -1.
</event>
<event>
 7    1  0.6198176E-013  0.5930188E+02  0.7816164E-02  0.1266605E+00
        -11   -1    0    0    0    0  0.00000000000E+00  0.00000000000E+00  0.45593999997E+02  0.45594000000E+02  0.51100000000E-03 0.  1.
         11   -1    0    0    0    0 -0.00000000000E+00 -0.00000000000E+00 -0.45593999997E+02  0.45594000000E+02  0.51100000000E-03 0. -1.
    9900012    2    1    2    0    0 -0.11361981960E+01  0.22952692699E+02 -0.22104466185E+02  0.59301882742E+02  0.49999888229E+02 0.  0.
        -12    1    1    2    0    0  0.11361981960E+01 -0.22952692699E+02  0.22104466185E+02  0.31886117258E+02  0.00000000000E+00 0.  1.
         11    1    3    3    0    0  0.39298175058E+01  0.16815001832E+02  0.82958744918E+01  0.19157486424E+02  0.51100000000E-03 0. -1.
        -11    1    3    3    0    0  0.80051676262E+01 -0.30230110165E+01 -0.43657140270E+01  0.96062877094E+01  0.51100000000E-03 0.  1.
         12    1    3    3    0    0 -0.13071183328E+02  0.91607018834E+01 -0.26034626649E+02  0.30538108608E+02  0.00000000000E+00 0. -1.
</event>
<event>
 7    1  0.6198176E-013  0.5930194E+02  0.7816164E-02  0.1266605E+00
        -11   -1    0    0    0    0  0.00000000000E+00  0.00000000000E+00  0.45593999997E+02  0.45594000000E+02  0.51100000000E-03 0. -1.
         11   -1    0    0    0    0 -0.00000000000E+00 -0.00000000000E+00 -0.45593999997E+02  0.45594000000E+02  0.51100000000E-03 0.  1.
    9900012    2    1    2    0    0  0.23721432065E+02  0.82147480193E+00  0.21291781549E+02  0.59301935307E+02  0.49999984096E+02 0.  0.
        -12    1    1    2    0    0 -0.23721432065E+02 -0.82147480193E+00 -0.21291781549E+02  0.31886064693E+02  0.00000000000E+00 0.  1.
         11    1    3    3    0    0  0.58236642457E+01  0.11063036931E+02  0.49592881842E+01  0.13449921596E+02  0.51100000000E-03 0. -1.
        -11    1    3    3    0    0  0.13022841820E+02 -0.85042147659E+01 -0.10343286507E+02  0.18678855796E+02  0.51100000000E-03 0.  1.
         12    1    3    3    0    0  0.48749259998E+01 -0.17373473629E+01  0.26675779871E+02  0.27173157915E+02  0.00000000000E+00 0. -1.
</event>
<event>
 7    1  0.6198176E-013  0.5930201E+02  0.7816164E-02  0.1266605E+00
        -11   -1    0    0    0    0  0.00000000000E+00  0.00000000000E+00  0.45593999997E+02  0.45594000000E+02  0.51100000000E-03 0. -1.
         11   -1    0    0    0    0 -0.00000000000E+00 -0.00000000000E+00 -0.45593999997E+02  0.45594000000E+02  0.51100000000E-03 0.  1.
    9900012    2    1    2    0    0 -0.23022097954E+02  0.99367074229E+01  0.19696733867E+02  0.59302008191E+02  0.50000117019E+02 0.  0.
        -12    1    1    2    0    0  0.23022097954E+02 -0.99367074229E+01 -0.19696733867E+02  0.31885991809E+02  0.00000000000E+00 0.  1.
         11    1    3    3    0    0  0.69570486003E+00 -0.76329844999E+01  0.19765956497E+02  0.21199988069E+02  0.51100000000E-03 0. -1.
        -11    1    3    3    0    0  0.44149513029E+01  0.65122252355E+01  0.26961001318E+00  0.78723289022E+01  0.51100000000E-03 0.  1.
        -12    1    3    3    0    0 -0.28132754117E+02  0.11057466687E+02 -0.33883264271E+00  0.30229691220E+02  0.00000000000E+00 0.  1.
</event>
<event>
 7    1  0.6198176E-013  0.5930196E+02  0.7816164E-02  0.1266605E+00
        -11   -1    0    0    0    0  0.00000000000E+00  0.00000000000E+00  0.45593999997E+02  0.45594000000E+02  0.51100000000E-03 0.  1.
         11   -1    0    0    0    0 -0.00000000000E+00 -0.00000000000E+00 -0.45593999997E+02  0.45594000000E+02  0.51100000000E-03 0. -1.
    9900012    2    1    2    0    0 -0.78190508494E+01  0.30498885735E+02  0.50398384423E+01  0.59301959813E+02  0.50000028789E+02 0.  0.
        -12    1    1    2    0    0  0.78190508494E+01 -0.30498885735E+02 -0.50398384423E+01  0.31886040187E+02  0.00000000000E+00 0.  1.
         11    1    3    3    0    0 -0.95227376877E+01  0.10160909935E+02  0.14894374699E+02  0.20390414947E+02  0.51100000000E-03 0.  1.
        -11    1    3    3    0    0 -0.29286753766E+01  0.28121721628E+02 -0.95688607987E+01  0.29849145114E+02  0.51100000000E-03 0. -1.
        -12    1    3    3    0    0  0.46323622149E+01 -0.77837458277E+01 -0.28567545818E+00  0.90623997521E+01  0.00000000000E+00 0.  1.
</event>
<event>
 7    1  0.6198176E-013  0.5930197E+02  0.7816164E-02  0.1266605E+00
        -11   -1    0    0    0    0  0.00000000000E+00  0.00000000000E+00  0.45593999997E+02  0.45594000000E+02  0.51100000000E-03 0. -1.
         11   -1    0    0    0    0 -0.00000000000E+00 -0.00000000000E+00 -0.45593999997E+02  0.45594000000E+02  0.51100000000E-03 0.  1.
    9900012    2    1    2    0    0  0.38394152141E+01  0.46352643649E+01  0.31312815484E+02  0.59301965464E+02  0.50000039094E+02 0.  0.
        -12    1    1    2    0    0 -0.38394152141E+01 -0.46352643649E+01 -0.31312815484E+02  0.31886034536E+02  0.00000000000E+00 0.  1.
         11    1    3    3    0    0  0.13926374212E+02 -0.12285788537E+02  0.15981617833E+02  0.24500951155E+02  0.51100000000E-03 0. -1.
        -11    1    3    3    0    0 -0.69419539719E+01  0.37879284970E+01  0.19190388662E+02  0.20755966480E+02  0.51100000000E-03 0.  1.
        -12    1    3    3    0    0 -0.31450050260E+01  0.13133124405E+02 -0.38591910109E+01  0.14045047829E+02  0.00000000000E+00 0.  1.
</event>
<event>
 7    1  0.6198176E-013  0.5930192E+02  0.7816164E-02  0.1266605E+00
        -11   -1    0    0    0    0  0.00000000000E+00  0.00000000000E+00  0.45593999997E+02  0.45594000000E+02  0.51100000000E-03 0.  1.
         11   -1    0    0    0    0 -0.00000000000E+00 -0.00000000000E+00 -0.45593999997E+02  0.45594000000E+02  0.51100000000E-03 0. -1.
    9900012    2    1    2    0    0  0.19569362423E+01 -0.16389524273E+02 -0.27281418373E+02  0.59301923199E+02  0.49999962012E+02 0.  0.
        -12    1    1    2    0    0 -0.19569362423E+01  0.16389524273E+02  0.27281418373E+02  0.31886076801E+02  0.00000000000E+00 0.  1.
         11    1    3    3    0    0  0.29569768715E+01 -0.23608544002E+02 -0.10856190290E+02  0.26152704067E+02  0.51100000000E-03 0. -1.
        -11    1    3    3    0    0  0.81935249034E+01 -0.72580839977E+01 -0.29432793064E+01  0.11334748652E+02  0.51100000000E-03 0.  1.
        -12    1    3    3    0    0 -0.91935655327E+01  0.14477103727E+02 -0.13481948776E+02  0.21814470480E+02  0.00000000000E+00 0.  1.
</event>
<event>
 7    1  0.6198176E-013  0.5930193E+02  0.7816164E-02  0.1266605E+00
        -11   -1    0    0    0    0  0.00000000000E+00  0.00000000000E+00  0.45593999997E+02  0.45594000000E+02  0.51100000000E-03 0.  1.
         11   -1    0    0    0    0 -0.00000000000E+00 -0.00000000000E+00 -0.45593999997E+02  0.45594000000E+02  0.51100000000E-03 0. -1.
    9900012    2    1    2    0    0  0.50921461102E+01 -0.13465184167E+02 -0.28451364697E+02  0.59301932670E+02  0.49999979286E+02 0.  0.
        -12    1    1    2    0    0 -0.50921461102E+01  0.13465184167E+02  0.28451364697E+02  0.31886067330E+02  0.00000000000E+00 0.  1.
         11    1    3    3    0    0  0.13478565602E+02 -0.14889173021E+02 -0.14480463234E+01  0.20135939073E+02  0.51100000000E-03 0. -1.
        -11    1    3    3    0    0  0.64548316180E+01  0.51845812169E+01 -0.21257823849E+02  0.22813149906E+02  0.51100000000E-03 0.  1.
        -12    1    3    3    0    0 -0.14841251110E+02 -0.37605923631E+01 -0.57454945252E+01  0.16352843691E+02  0.00000000000E+00 0.  1.
</event>
<event>
 7    1  0.6198176E-013  0.5930197E+02  0.7816164E-02  0.1266605E+00
        -11   -1    0    0    0    0  0.00000000000E+00  0.00000000000E+00  0.45593999997E+02  0.45594000000E+02  0.51100000000E-03 0.  1.
         11   -1    0    0    0    0 -0.00000000000E+00 -0.00000000000E+00 -0.45593999997E+02  0.45594000000E+02  0.51100000000E-03 0. -1.
    9900012    2    1    2    0    0 -0.10384946096E+01  0.95312768780E+01 -0.30410449728E+02  0.59301966026E+02  0.50000040119E+02 0.  0.
        -12    1    1    2    0    0  0.10384946096E+01 -0.95312768780E+01  0.30410449728E+02  0.31886033974E+02  0.00000000000E+00 0.  1.
         11    1    3    3    0    0 -0.52475237501E+01  0.37285518876E+01 -0.13132920177E+02  0.14625737496E+02  0.51100000000E-03 0. -1.
        -11    1    3    3    0    0  0.29738185630E+01 -0.17487177887E+02 -0.92900820173E+01  0.20023751183E+02  0.51100000000E-03 0.  1.
        -12    1    3    3    0    0  0.12352105775E+01  0.23289902877E+02 -0.79874475338E+01  0.24652477346E+02  0.00000000000E+00 0.  1.
</event>
<event>
 7    1  0.6198176E-013  0.5930195E+02  0.7816164E-02  0.1266605E+00
        -11   -1    0    0    0    0  0.00000000000E+00  0.00000000000E+00  0.45593999997E+02  0.45594000000E+02  0.51100000000E-03 0.  1.
         11   -1    0    0    0    0 -0.00000000000E+00 -0.00000000000E+00 -0.45593999997E+02  0.45594000000E+02  0.51100000000E-03 0. -1.
    9900012    2    1    2    0    0 -0.10993236748E+02 -0.26462607504E+02 -0.13985686281E+02  0.59301948647E+02  0.50000008425E+02 0.  0.
        -12    1    1    2    0    0  0.10993236748E+02  0.26462607504E+02  0.13985686281E+02  0.31886051353E+02  0.00000000000E+00 0.  1.
         11    1    3    3    0    0 -0.10353233694E+02 -0.33213280904E+01 -0.26811633081E+01  0.11198629610E+02  0.51100000000E-03 0. -1.
        -11    1    3    3    0    0 -0.10994222524E+02 -0.29020651926E+02  0.90826451072E+00  0.31046676341E+02  0.51100000000E-03 0.  1.
         12    1    3    3    0    0  0.10354219470E+02  0.58793725123E+01 -0.12212787483E+02  0.17056642696E+02  0.00000000000E+00 0. -1.
</event>
<event>
 7    1  0.6198176E-013  0.5930195E+02  0.7816164E-02  0.1266605E+00
        -11   -1    0    0    0    0  0.00000000000E+00  0.00000000000E+00  0.45593999997E+02  0.45594000000E+02  0.51100000000E-03 0. -1.
         11   -1    0    0    0    0 -0.00000000000E+00 -0.00000000000E+00 -0.45593999997E+02  0.45594000000E+02  0.51100000000E-03 0.  1.
    9900012    2    1    2    0    0  0.11604451840E+02  0.23402920760E+02  0.18285521921E+02  0.59301947963E+02  0.50000007177E+02 0.  0.
        -12    1    1    2    0    0 -0.11604451840E+02 -0.23402920760E+02 -0.18285521921E+02  0.31886052037E+02  0.00000000000E+00 0.  1.
         11    1    3    3    0    0 -0.35099378940E+01  0.22566599448E+02  0.10691722947E+01  0.22862943912E+02  0.51100000000E-03 0. -1.
        -11    1    3    3    0    0 -0.10215227832E+01 -0.93775355360E+01 -0.16707989894E+01  0.95798356484E+01  0.51100000000E-03 0.  1.
        -12    1    3    3    0    0  0.16135912517E+02  0.10213856848E+02  0.18887148616E+02  0.26859168403E+02  0.00000000000E+00 0.  1.
</event>
<event>
 7    1  0.6198176E-013  0.5930195E+02  0.7816164E-02  0.1266605E+00
        -11   -1    0    0    0    0  0.00000000000E+00  0.00000000000E+00  0.45593999997E+02  0.45594000000E+02  0.51100000000E-03 0. -1.
         11   -1    0    0    0    0 -0.00000000000E+00 -0.00000000000E+00 -0.45593999997E+02  0.45594000000E+02  0.51100000000E-03 0.  1.
    9900012    2    1    2    0    0 -0.19150606664E+01  0.51542136914E+01  0.31408387976E+02  0.59301949580E+02  0.50000010126E+02 0.  0.
        -12    1    1    2    0    0  0.19150606664E+01 -0.51542136914E+01 -0.31408387976E+02  0.31886050420E+02  0.00000000000E+00 0.  1.
         11    1    3    3    0    0 -0.54892890415E+00 -0.19332727000E+01 -0.79521625674E+01  0.82021799562E+01  0.51100000000E-03 0. -1.
        -11    1    3    3    0    0  0.87108277284E+01  0.93166079889E+01  0.27304360089E+01  0.13043503563E+02  0.51100000000E-03 0.  1.
         12    1    3    3    0    0 -0.10076959491E+02 -0.22291215974E+01  0.36630114535E+02  0.38056266061E+02  0.00000000000E+00 0. -1.
</event>
<event>
 7    1  0.6198176E-013  0.5930195E+02  0.7816164E-02  0.1266605E+00
        -11   -1    0    0    0    0  0.00000000000E+00  0.00000000000E+00  0.45593999997E+02  0.45594000000E+02  0.51100000000E-03 0.  1.
         11   -1    0    0    0    0 -0.00000000000E+00 -0.00000000000E+00 -0.45593999997E+02  0.45594000000E+02  0.51100000000E-03 0. -1.
    9900012    2    1    2    0    0  0.36148875789E+01 -0.16603916067E+02 -0.26980782447E+02  0.59301951915E+02  0.50000014385E+02 0.  0.
        -12    1    1    2    0    0 -0.36148875789E+01  0.16603916067E+02  0.26980782447E+02  0.31886048085E+02  0.00000000000E+00 0.  1.
         11    1    3    3    0    0  0.27437747798E+01 -0.12873048070E+02 -0.54713581747E+01  0.14254102118E+02  0.51100000000E-03 0.  1.
        -11    1    3    3    0    0  0.19059559677E+02 -0.82844538472E+01 -0.10187314156E+02  0.23144769616E+02  0.51100000000E-03 0. -1.
         12    1    3    3    0    0 -0.18188446878E+02  0.45535858501E+01 -0.11322110117E+02  0.21903080181E+02  0.00000000000E+00 0. -1.
</event>
<event>
 7    1  0.6198176E-013  0.5930188E+02  0.7816164E-02  0.1266605E+00
        -11   -1    0    0    0    0  0.00000000000E+00  0.00000000000E+00  0.45593999997E+02  0.45594000000E+02  0.51100000000E-03 0. -1.
         11   -1    0    0    0    0 -0.00000000000E+00 -0.00000000000E+00 -0.45593999997E+02  0.45594000000E+02  0.51100000000E-03 0.  1.
    9900012    2    1    2    0    0 -0.98709251519E+01  0.51783967750E+01  0.29874294700E+02  0.59301883267E+02  0.49999889187E+02 0.  0.
        -12    1    1    2    0    0  0.98709251519E+01 -0.51783967750E+01 -0.29874294700E+02  0.31886116733E+02  0.00000000000E+00 0.  1.
         11    1    3    3    0    0 -0.41710065653E+01 -0.14732288102E+01  0.41535085757E+01  0.60678935920E+01  0.51100000000E-03 0. -1.
        -11    1    3    3    0    0 -0.11178041143E+02 -0.58486498548E+01  0.34683195868E+02  0.36906359680E+02  0.51100000000E-03 0.  1.
        -12    1    3    3    0    0  0.54781225568E+01  0.12500275440E+02 -0.89624097445E+01  0.16327629995E+02  0.00000000000E+00 0.  1.
</event>
<event>
 7    1  0.6198176E-013  0.5930199E+02  0.7816164E-02  0.1266605E+00
        -11   -1    0    0    0    0  0.00000000000E+00  0.00000000000E+00  0.45593999997E+02  0.45594000000E+02  0.51100000000E-03 0. -1.
         11   -1    0    0    0    0 -0.00000000000E+00 -0.00000000000E+00 -0.45593999997E+02  0.45594000000E+02  0.51100000000E-03 0.  1.
    9900012    2    1    2    0    0 -0.26737035689E+01  0.18506347303E+01  0.31719771907E+02  0.59301992575E+02  0.50000088539E+02 0.  0.
        -12    1    1    2    0    0  0.26737035689E+01 -0.18506347303E+01 -0.31719771907E+02  0.31886007425E+02  0.00000000000E+00 0.  1.
         11    1    3    3    0    0  0.29394175562E+01  0.82758010039E+01  0.70831373860E+00  0.88108323352E+01  0.51100000000E-03 0. -1.
        -11    1    3    3    0    0 -0.68615019197E+01 -0.16726601233E+01 -0.82861561143E+01  0.10887533416E+02  0.51100000000E-03 0.  1.
         12    1    3    3    0    0  0.12483807946E+01 -0.47525061504E+01  0.39297614282E+02  0.39603626824E+02  0.00000000000E+00 0. -1.
</event>
<event>
 7    1  0.6198176E-013  0.5930192E+02  0.7816164E-02  0.1266605E+00
        -11   -1    0    0    0    0  0.00000000000E+00  0.00000000000E+00  0.45593999997E+02  0.45594000000E+02  0.51100000000E-03 0.  1.
         11   -1    0    0    0    0 -0.00000000000E+00 -0.00000000000E+00 -0.45593999997E+02  0.45594000000E+02  0.51100000000E-03 0. -1.
    9900012    2    1    2    0    0  0.20952915806E+02 -0.11335579636E+02 -0.21194388618E+02  0.59301919097E+02  0.49999954533E+02 0.  0.
        -12    1    1    2    0    0 -0.20952915806E+02  0.11335579636E+02  0.21194388618E+02  0.31886080903E+02  0.00000000000E+00 0.  1.
         11    1    3    3    0    0  0.14106794284E+02 -0.22685911538E+02 -0.15902502565E+02  0.31089255626E+02  0.51100000000E-03 0. -1.
        -11    1    3    3    0    0 -0.45454915221E+01 -0.51973416949E+01  0.13856860126E+01  0.70422993303E+01  0.51100000000E-03 0.  1.
        -12    1    3    3    0    0  0.11391613044E+02  0.16547673596E+02 -0.66775720650E+01  0.21170364142E+02  0.00000000000E+00 0.  1.
</event>
<event>
 7    1  0.6198176E-013  0.5930195E+02  0.7816164E-02  0.1266605E+00
        -11   -1    0    0    0    0  0.00000000000E+00  0.00000000000E+00  0.45593999997E+02  0.45594000000E+02  0.51100000000E-03 0.  1.
         11   -1    0    0    0    0 -0.00000000000E+00 -0.00000000000E+00 -0.45593999997E+02  0.45594000000E+02  0.51100000000E-03 0. -1.
    9900012    2    1    2    0    0 -0.88427257336E+01 -0.28316673886E+02  0.11691558364E+02  0.59301947323E+02  0.50000006009E+02 0.  0.
        -12    1    1    2    0    0  0.88427257336E+01  0.28316673886E+02 -0.11691558364E+02  0.31886052677E+02  0.00000000000E+00 0.  1.
         11    1    3    3    0    0 -0.16745724945E+02 -0.21697855265E+02  0.43236801533E+01  0.27747259997E+02  0.51100000000E-03 0. -1.
        -11    1    3    3    0    0 -0.31240137152E+01 -0.15523608263E+02  0.71630776144E+01  0.17379630502E+02  0.51100000000E-03 0.  1.
         12    1    3    3    0    0  0.11027012927E+02  0.89047896425E+01  0.20480059665E+00  0.14175056823E+02  0.00000000000E+00 0. -1.
</event>
<event>
 7    1  0.6198176E-013  0.5930194E+02  0.7816164E-02  0.1266605E+00
        -11   -1    0    0    0    0  0.00000000000E+00  0.00000000000E+00  0.45593999997E+02  0.45594000000E+02  0.51100000000E-03 0.  1.
         11   -1    0    0    0    0 -0.00000000000E+00 -0.00000000000E+00 -0.45593999997E+02  0.45594000000E+02  0.51100000000E-03 0. -1.
    9900012    2    1    2    0    0  0.80804111223E+01 -0.30145645841E+02  0.65320804258E+01  0.59301935932E+02  0.49999985234E+02 0.  0.
        -12    1    1    2    0    0 -0.80804111223E+01  0.30145645841E+02 -0.65320804258E+01  0.31886064068E+02  0.00000000000E+00 0.  1.
         11    1    3    3    0    0  0.16354543074E+02 -0.38226109461E+01 -0.33792190525E+01  0.17131916275E+02  0.51100000000E-03 0. -1.
        -11    1    3    3    0    0  0.91925271544E+01 -0.25434951331E+01  0.82622068934E+01  0.12618874196E+02  0.51100000000E-03 0.  1.
         12    1    3    3    0    0 -0.17466659106E+02 -0.23779539762E+02  0.16490925849E+01  0.29551145460E+02  0.00000000000E+00 0. -1.
</event>
<event>
 7    1  0.6198176E-013  0.5930190E+02  0.7816164E-02  0.1266605E+00
        -11   -1    0    0    0    0  0.00000000000E+00  0.00000000000E+00  0.45593999997E+02  0.45594000000E+02  0.51100000000E-03 0.  1.
         11   -1    0    0    0    0 -0.00000000000E+00 -0.00000000000E+00 -0.45593999997E+02  0.45594000000E+02  0.51100000000E-03 0. -1.
    9900012    2    1    2    0    0  0.17676411100E+02 -0.22046679534E+02 -0.14771985182E+02  0.59301903750E+02  0.49999926543E+02 0.  0.
        -12    1    1    2    0    0 -0.17676411100E+02  0.22046679534E+02  0.14771985182E+02  0.31886096250E+02  0.00000000000E+00 0.  1.
         11    1    3    3    0    0  0.46222701913E+01 -0.16523355801E+02 -0.35326121404E+00  0.17161336265E+02  0.51100000000E-03 0. -1.
        -11    1    3    3    0    0  0.13702601687E+02  0.86787195866E+00  0.99390569448E+01  0.16949907018E+02  0.51100000000E-03 0.  1.
         12    1    3    3    0    0 -0.64846077787E+00 -0.63911956912E+01 -0.24357780913E+02  0.25190660467E+02  0.00000000000E+00 0. -1.
</event>
<event>
 7    1  0.6198176E-013  0.5930193E+02  0.7816164E-02  0.1266605E+00
        -11   -1    0    0    0    0  0.00000000000E+00  0.00000000000E+00  0.45593999997E+02  0.45594000000E+02  0.51100000000E-03 0. -1.
         11   -1    0    0    0    0 -0.00000000000E+00 -0.00000000000E+00 -0.45593999997E+02  0.45594000000E+02  0.51100000000E-03 0.  1.
    9900012    2    1    2    0    0  0.22021863276E+02  0.43922621389E+01  0.22637733451E+02  0.59301930869E+02  0.49999976001E+02 0.  0.
        -12    1    1    2    0    0 -0.22021863276E+02 -0.43922621389E+01 -0.22637733451E+02  0.31886069131E+02  0.00000000000E+00 0.  1.
         11    1    3    3    0    0  0.11449698368E+02  0.10012800995E+02  0.17588876559E+01  0.15311612016E+02  0.51100000000E-03 0. -1.
        -11    1    3    3    0    0 -0.55638462331E+01 -0.16388553764E+02  0.29144192642E+01  0.17550923602E+02  0.51100000000E-03 0.  1.
         12    1    3    3    0    0  0.16136011141E+02  0.10768014908E+02  0.17964426531E+02  0.26439395250E+02  0.00000000000E+00 0. -1.
</event>
<event>
 7    1  0.6198176E-013  0.5930194E+02  0.7816164E-02  0.1266605E+00
        -11   -1    0    0    0    0  0.00000000000E+00  0.00000000000E+00  0.45593999997E+02  0.45594000000E+02  0.51100000000E-03 0. -1.
         11   -1    0    0    0    0 -0.00000000000E+00 -0.00000000000E+00 -0.45593999997E+02  0.45594000000E+02  0.51100000000E-03 0.  1.
    9900012    2    1    2    0    0 -0.18328631511E+02 -0.51735634773E+01  0.25573737722E+02  0.59301944220E+02  0.50000000350E+02 0.  0.
        -12    1    1    2    0    0  0.18328631511E+02  0.51735634773E+01 -0.25573737722E+02  0.31886055780E+02  0.00000000000E+00 0.  1.
         11    1    3    3    0    0 -0.10426415131E+01  0.16011587596E+02  0.24605073932E+01  0.16233056877E+02  0.51100000000E-03 0. -1.
        -11    1    3    3    0    0 -0.27546636719E+01 -0.15731600299E+02  0.22427248848E+02  0.27532760687E+02  0.51100000000E-03 0.  1.
        -12    1    3    3    0    0 -0.14531326326E+02 -0.54535507752E+01  0.68598148096E+00  0.15536126655E+02  0.00000000000E+00 0.  1.
</event>
<event>
 7    1  0.6198176E-013  0.5930195E+02  0.7816164E-02  0.1266605E+00
        -11   -1    0    0    0    0  0.00000000000E+00  0.00000000000E+00  0.45593999997E+02  0.45594000000E+02  0.51100000000E-03 0.  1.
         11   -1    0    0    0    0 -0.00000000000E+00 -0.00000000000E+00 -0.45593999997E+02  0.45594000000E+02  0.51100000000E-03 0. -1.
    9900012    2    1    2    0    0 -0.31452246902E+02 -0.51301859477E+01 -0.10758280303E+01  0.59301952127E+02  0.50000014771E+02 0.  0.
        -12    1    1    2    0    0  0.31452246902E+02  0.51301859477E+01  0.10758280303E+01  0.31886047873E+02  0.00000000000E+00 0.  1.
         11    1    3    3    0    0 -0.37771558351E+01  0.12033237240E+02 -0.67096621415E+01  0.14285841627E+02  0.51100000000E-03 0. -1.
        -11    1    3    3    0    0 -0.43841894394E+00 -0.14255844379E+02 -0.57173083995E+01  0.15365836317E+02  0.51100000000E-03 0.  1.
         12    1    3    3    0    0 -0.27236672122E+02 -0.29075788089E+01  0.11351142511E+02  0.29650274183E+02  0.00000000000E+00 0. -1.
</event>
<event>
 7    1  0.9389509E-013  0.5930201E+02  0.7816164E-02  0.1266605E+00
        -11   -1    0    0    0    0  0.00000000000E+00  0.00000000000E+00  0.45593999997E+02  0.45594000000E+02  0.51100000000E-03 0.  1.
         11   -1    0    0    0    0 -0.00000000000E+00 -0.00000000000E+00 -0.45593999997E+02  0.45594000000E+02  0.51100000000E-03 0. -1.
    9900012    2    1    2    0    0  0.22083697961E+02 -0.22021726370E+02 -0.66385366278E+01  0.59302010655E+02  0.50000121512E+02 0.  0.
        -12    1    1    2    0    0 -0.22083697961E+02  0.22021726370E+02  0.66385366278E+01  0.31885989345E+02  0.00000000000E+00 0.  1.
         11    1    3    3    0    0  0.48982091110E+01 -0.23091847669E+02 -0.19222256152E+02  0.30442092784E+02  0.51100000000E-03 0. -1.
        -11    1    3    3    0    0 -0.11710070808E+01 -0.50600649523E+00  0.10203306810E+02  0.10282741379E+02  0.51100000000E-03 0.  1.
        -12    1    3    3    0    0  0.18356495931E+02  0.15761277943E+01  0.23804127139E+01  0.18577176491E+02  0.00000000000E+00 0.  1.
</event>
<event>
 7    1  0.6198176E-013  0.5930190E+02  0.7816164E-02  0.1266605E+00
        -11   -1    0    0    0    0  0.00000000000E+00  0.00000000000E+00  0.45593999997E+02  0.45594000000E+02  0.51100000000E-03 0. -1.
         11   -1    0    0    0    0 -0.00000000000E+00 -0.00000000000E+00 -0.45593999997E+02  0.45594000000E+02  0.51100000000E-03 0.  1.
    9900012    2    1    2    0    0  0.13134153812E+02  0.28765636924E+02  0.40933864390E+01  0.59301895244E+02  0.49999911030E+02 0.  0.
        -12    1    1    2    0    0 -0.13134153812E+02 -0.28765636924E+02 -0.40933864390E+01  0.31886104756E+02  0.00000000000E+00 0.  1.
         11    1    3    3    0    0  0.13704079671E+02  0.13381587915E+02  0.13005447375E+02  0.23151897470E+02  0.51100000000E-03 0. -1.
        -11    1    3    3    0    0  0.56716774958E+00  0.55434505996E+01  0.11878201363E+02  0.13120335045E+02  0.51100000000E-03 0.  1.
        -12    1    3    3    0    0 -0.11370936080E+01  0.98405984088E+01 -0.20790262300E+02  0.23029662729E+02  0.00000000000E+00 0.  1.
</event>
<event>
 7    1  0.6198176E-013  0.5930196E+02  0.7816164E-02  0.1266605E+00
        -11   -1    0    0    0    0  0.00000000000E+00  0.00000000000E+00  0.45593999997E+02  0.45594000000E+02  0.51100000000E-03 0. -1.
         11   -1    0    0    0    0 -0.00000000000E+00 -0.00000000000E+00 -0.45593999997E+02  0.45594000000E+02  0.51100000000E-03 0.  1.
    9900012    2    1    2    0    0 -0.20666912618E+02  0.22275593003E+02  0.96641689660E+01  0.59301961008E+02  0.50000030968E+02 0.  0.
        -12    1    1    2    0    0  0.20666912618E+02 -0.22275593003E+02 -0.96641689660E+01  0.31886038992E+02  0.00000000000E+00 0.  1.
         11    1    3    3    0    0 -0.15846312070E+02  0.51864677266E+01  0.21388350494E+02  0.27119487289E+02  0.51100000000E-03 0. -1.
        -11    1    3    3    0    0  0.54970754306E+01  0.91480166511E+01  0.43255599996E+01  0.11515837638E+02  0.51100000000E-03 0.  1.
        -12    1    3    3    0    0 -0.10317675979E+02  0.79411086253E+01 -0.16049741528E+02  0.20666636081E+02  0.00000000000E+00 0.  1.
</event>
<event>
 7    1  0.6198176E-013  0.5930194E+02  0.7816164E-02  0.1266605E+00
        -11   -1    0    0    0    0  0.00000000000E+00  0.00000000000E+00  0.45593999997E+02  0.45594000000E+02  0.51100000000E-03 0.  1.
         11   -1    0    0    0    0 -0.00000000000E+00 -0.00000000000E+00 -0.45593999997E+02  0.45594000000E+02  0.51100000000E-03 0. -1.
    9900012    2    1    2    0    0  0.24637907731E+01  0.31393811491E+02 -0.50079049691E+01  0.59301940710E+02  0.49999993948E+02 0.  0.
        -12    1    1    2    0    0 -0.24637907731E+01 -0.31393811491E+02  0.50079049691E+01  0.31886059290E+02  0.00000000000E+00 0.  1.
         11    1    3    3    0    0 -0.27260006348E+01  0.18073532924E+02 -0.12314653620E+02  0.22039382157E+02  0.51100000000E-03 0. -1.
        -11    1    3    3    0    0  0.11471609330E+02  0.22026222175E+02  0.89578315607E+01  0.26400663447E+02  0.51100000000E-03 0.  1.
        -12    1    3    3    0    0 -0.62818179224E+01 -0.87059436077E+01 -0.16510829095E+01  0.10861895106E+02  0.00000000000E+00 0.  1.
</event>
<event>
 7    1  0.6198176E-013  0.5930195E+02  0.7816164E-02  0.1266605E+00
        -11   -1    0    0    0    0  0.00000000000E+00  0.00000000000E+00  0.45593999997E+02  0.45594000000E+02  0.51100000000E-03 0. -1.
         11   -1    0    0    0    0 -0.00000000000E+00 -0.00000000000E+00 -0.45593999997E+02  0.45594000000E+02  0.51100000000E-03 0.  1.
    9900012    2    1    2    0    0  0.22999067130E+02 -0.20933901545E+02  0.70381042631E+01  0.59301949220E+02  0.50000009469E+02 0.  0.
        -12    1    1    2    0    0 -0.22999067130E+02  0.20933901545E+02 -0.70381042631E+01  0.31886050780E+02  0.00000000000E+00 0.  1.
         11    1    3    3    0    0  0.14334452453E+02  0.23955842407E+00  0.10210687220E+02  0.17600910463E+02  0.51100000000E-03 0. -1.
        -11    1    3    3    0    0  0.12610840349E+02 -0.12676934035E+02  0.13616241620E+02  0.22475319507E+02  0.51100000000E-03 0.  1.
        -12    1    3    3    0    0 -0.39462256721E+01 -0.84965259339E+01 -0.16788824577E+02  0.19225719250E+02  0.00000000000E+00 0.  1.
</event>
<event>
 7    1  0.6198176E-013  0.5930199E+02  0.7816164E-02  0.1266605E+00
        -11   -1    0    0    0    0  0.00000000000E+00  0.00000000000E+00  0.45593999997E+02  0.45594000000E+02  0.51100000000E-03 0.  1.
         11   -1    0    0    0    0 -0.00000000000E+00 -0.00000000000E+00 -0.45593999997E+02  0.45594000000E+02  0.51100000000E-03 0. -1.
    9900012    2    1    2    0    0 -0.23083989581E+02  0.21685245531E+02 -0.36874691439E+01  0.59301986179E+02  0.50000076874E+02 0.  0.
        -12    1    1    2    0    0  0.23083989581E+02 -0.21685245531E+02  0.36874691439E+01  0.31886013821E+02  0.00000000000E+00 0.  1.
         11    1    3    3    0    0  0.29034857993E+01 -0.37602475869E-01  0.71029383730E+01  0.76735505162E+01  0.51100000000E-03 0.  1.
        -11    1    3    3    0    0 -0.30320675088E+01  0.10930180627E+02 -0.21331209155E+02  0.24159527441E+02  0.51100000000E-03 0. -1.
        -12    1    3    3    0    0 -0.22955407871E+02  0.10792667380E+02  0.10540801638E+02  0.27468908222E+02  0.00000000000E+00 0.  1.
</event>
<event>
 7    1  0.6198176E-013  0.5930194E+02  0.7816164E-02  0.1266605E+00
        -11   -1    0    0    0    0  0.00000000000E+00  0.00000000000E+00  0.45593999997E+02  0.45594000000E+02  0.51100000000E-03 0. -1.
         11   -1    0    0    0    0 -0.00000000000E+00 -0.00000000000E+00 -0.45593999997E+02  0.45594000000E+02  0.51100000000E-03 0.  1.
    9900012    2    1    2    0    0  0.11012858230E+02  0.20824346583E+02  0.21489163639E+02  0.59301943315E+02  0.49999998701E+02 0.  0.
        -12    1    1    2    0    0 -0.11012858230E+02 -0.20824346583E+02 -0.21489163639E+02  0.31886056685E+02  0.00000000000E+00 0.  1.
         11    1    3    3    0    0  0.15605331870E+02  0.52358275685E+01  0.45729270817E+01  0.17083674530E+02  0.51100000000E-03 0. -1.
        -11    1    3    3    0    0  0.12962848778E+02  0.45748420826E+00  0.13621012248E+02  0.18808953059E+02  0.51100000000E-03 0.  1.
         12    1    3    3    0    0 -0.17555322419E+02  0.15131034806E+02  0.32952243090E+01  0.23409315726E+02  0.00000000000E+00 0. -1.
</event>
<event>
 7    1  0.6198176E-013  0.5930193E+02  0.7816164E-02  0.1266605E+00
        -11   -1    0    0    0    0  0.00000000000E+00  0.00000000000E+00  0.45593999997E+02  0.45594000000E+02  0.51100000000E-03 0. -1.
         11   -1    0    0    0    0 -0.00000000000E+00 -0.00000000000E+00 -0.45593999997E+02  0.45594000000E+02  0.51100000000E-03 0.  1.
    9900012    2    1    2    0    0  0.84453215576E+01 -0.19139374918E+02  0.24064132860E+02  0.59301927511E+02  0.49999969877E+02 0.  0.
        -12    1    1    2    0    0 -0.84453215576E+01  0.19139374918E+02 -0.24064132860E+02  0.31886072489E+02  0.00000000000E+00 0.  1.
         11    1    3    3    0    0 -0.20589407072E+01  0.60339068955E+01  0.93743689375E+01  0.11336933558E+02  0.51100000000E-03 0. -1.
        -11    1    3    3    0    0  0.75845763157E+00  0.80212742665E+01 -0.36085259746E+01  0.88282251222E+01  0.51100000000E-03 0.  1.
         12    1    3    3    0    0  0.97458046332E+01 -0.33194556080E+02  0.18298289897E+02  0.39136768830E+02  0.00000000000E+00 0. -1.
</event>
<event>
 7    1  0.6198176E-013  0.5930192E+02  0.7816164E-02  0.1266605E+00
        -11   -1    0    0    0    0  0.00000000000E+00  0.00000000000E+00  0.45593999997E+02  0.45594000000E+02  0.51100000000E-03 0. -1.
         11   -1    0    0    0    0 -0.00000000000E+00 -0.00000000000E+00 -0.45593999997E+02  0.45594000000E+02  0.51100000000E-03 0.  1.
    9900012    2    1    2    0    0 -0.22709381025E+02  0.20959617029E+02 -0.78549752951E+01  0.59301918877E+02  0.49999954130E+02 0.  0.
        -12    1    1    2    0    0  0.22709381025E+02 -0.20959617029E+02  0.78549752951E+01  0.31886081123E+02  0.00000000000E+00 0.  1.
         11    1    3    3    0    0 -0.16329827454E+02  0.16194239336E+02 -0.22508909012E+01  0.23108075698E+02  0.51100000000E-03 0. -1.
        -11    1    3    3    0    0 -0.16029168232E+02 -0.86008966471E+01 -0.73425806366E+01  0.19616909746E+02  0.51100000000E-03 0.  1.
         12    1    3    3    0    0  0.96496146610E+01  0.13366274340E+02  0.17384962426E+01  0.16576933432E+02  0.00000000000E+00 0. -1.
</event>
<event>
 7    1  0.6198176E-013  0.5930199E+02  0.7816164E-02  0.1266605E+00
        -11   -1    0    0    0    0  0.00000000000E+00  0.00000000000E+00  0.45593999997E+02  0.45594000000E+02  0.51100000000E-03 0.  1.
         11   -1    0    0    0    0 -0.00000000000E+00 -0.00000000000E+00 -0.45593999997E+02  0.45594000000E+02  0.51100000000E-03 0. -1.
    9900012    2    1    2    0    0  0.23798131071E+02 -0.19989701964E+02  0.71259026367E+01  0.59301988718E+02  0.50000081504E+02 0.  0.
        -12    1    1    2    0    0 -0.23798131071E+02  0.19989701964E+02 -0.71259026367E+01  0.31886011282E+02  0.00000000000E+00 0.  1.
         11    1    3    3    0    0  0.19580985314E+02 -0.19554098135E+02 -0.16989568816E+02  0.32471883046E+02  0.51100000000E-03 0. -1.
        -11    1    3    3    0    0  0.67885413782E+01  0.16337980704E+01  0.91768238918E+01  0.11531161571E+02  0.51100000000E-03 0.  1.
        -12    1    3    3    0    0 -0.25713956205E+01 -0.20694018992E+01  0.14938647561E+02  0.15298944101E+02  0.00000000000E+00 0.  1.
</event>
<event>
 7    1  0.6198176E-013  0.5930187E+02  0.7816164E-02  0.1266605E+00
        -11   -1    0    0    0    0  0.00000000000E+00  0.00000000000E+00  0.45593999997E+02  0.45594000000E+02  0.51100000000E-03 0. -1.
         11   -1    0    0    0    0 -0.00000000000E+00 -0.00000000000E+00 -0.45593999997E+02  0.45594000000E+02  0.51100000000E-03 0.  1.
    9900012    2    1    2    0    0  0.10048365231E+02 -0.28758876542E+02  0.94171529185E+01  0.59301868331E+02  0.49999861946E+02 0.  0.
        -12    1    1    2    0    0 -0.10048365231E+02  0.28758876542E+02 -0.94171529185E+01  0.31886131669E+02  0.00000000000E+00 0.  1.
         11    1    3    3    0    0  0.14312894556E+02  0.55789595272E+00  0.50453535013E+01  0.15186368581E+02  0.51100000000E-03 0. -1.
        -11    1    3    3    0    0  0.10669273648E+01 -0.60321361916E+01 -0.13139431609E+02  0.14497229539E+02  0.51100000000E-03 0.  1.
        -12    1    3    3    0    0 -0.53314566904E+01 -0.23284636303E+02  0.17511231026E+02  0.29618270210E+02  0.00000000000E+00 0.  1.
</event>
<event>
 7    1  0.6198176E-013  0.5930196E+02  0.7816164E-02  0.1266605E+00
        -11   -1    0    0    0    0  0.00000000000E+00  0.00000000000E+00  0.45593999997E+02  0.45594000000E+02  0.51100000000E-03 0. -1.
         11   -1    0    0    0    0 -0.00000000000E+00 -0.00000000000E+00 -0.45593999997E+02  0.45594000000E+02  0.51100000000E-03 0.  1.
    9900012    2    1    2    0    0 -0.26300586654E+02 -0.24784614559E+01 -0.17856540525E+02  0.59301958084E+02  0.50000025636E+02 0.  0.
        -12    1    1    2    0    0  0.26300586654E+02  0.24784614559E+01  0.17856540525E+02  0.31886041916E+02  0.00000000000E+00 0.  1.
         11    1    3    3    0    0 -0.18446800321E+02 -0.14010128925E+02 -0.18217337997E+00  0.23164657174E+02  0.51100000000E-03 0. -1.
        -11    1    3    3    0    0  0.10423448410E+02  0.38034466010E+01 -0.31134584604E+01  0.11524239960E+02  0.51100000000E-03 0.  1.
        -12    1    3    3    0    0 -0.18277234743E+02  0.77282208681E+01 -0.14560908685E+02  0.24613060951E+02  0.00000000000E+00 0.  1.
</event>
<event>
 7    1  0.6198176E-013  0.5930192E+02  0.7816164E-02  0.1266605E+00
        -11   -1    0    0    0    0  0.00000000000E+00  0.00000000000E+00  0.45593999997E+02  0.45594000000E+02  0.51100000000E-03 0.  1.
         11   -1    0    0    0    0 -0.00000000000E+00 -0.00000000000E+00 -0.45593999997E+02  0.45594000000E+02  0.51100000000E-03 0. -1.
    9900012    2    1    2    0    0 -0.45714633200E+01  0.98464662042E+01 -0.29981175671E+02  0.59301920464E+02  0.49999957025E+02 0.  0.
        -12    1    1    2    0    0  0.45714633200E+01 -0.98464662042E+01  0.29981175671E+02  0.31886079536E+02  0.00000000000E+00 0.  1.
         11    1    3    3    0    0  0.75964229855E+01 -0.15486295140E+02 -0.21503109643E+02  0.27566550454E+02  0.51100000000E-03 0. -1.
        -11    1    3    3    0    0 -0.53686326512E+01  0.15485465601E+01 -0.50502268348E-02  0.55875073833E+01  0.51100000000E-03 0.  1.
        -12    1    3    3    0    0 -0.67992536543E+01  0.23784214785E+02 -0.84730158005E+01  0.26147862626E+02  0.00000000000E+00 0.  1.
</event>
<event>
 7    1  0.6198176E-013  0.5930194E+02  0.7816164E-02  0.1266605E+00
        -11   -1    0    0    0    0  0.00000000000E+00  0.00000000000E+00  0.45593999997E+02  0.45594000000E+02  0.51100000000E-03 0.  1.
         11   -1    0    0    0    0 -0.00000000000E+00 -0.00000000000E+00 -0.45593999997E+02  0.45594000000E+02  0.51100000000E-03 0. -1.
    9900012    2    1    2    0    0  0.10661318507E+02 -0.28644607409E+02  0.90853522097E+01  0.59301939241E+02  0.49999991271E+02 0.  0.
        -12    1    1    2    0    0 -0.10661318507E+02  0.28644607409E+02 -0.90853522097E+01  0.31886060759E+02  0.00000000000E+00 0.  1.
         11    1    3    3    0    0  0.20194204234E+02 -0.11488019544E+02  0.37795719835E+01  0.23538598988E+02  0.51100000000E-03 0. -1.
        -11    1    3    3    0    0  0.85539504748E+01  0.14065038723E+01  0.46505104797E+01  0.98374574891E+01  0.51100000000E-03 0.  1.
        -12    1    3    3    0    0 -0.18086836202E+02 -0.18563091737E+02  0.65526974649E+00  0.25925882764E+02  0.00000000000E+00 0.  1.
</event>
<event>
 7    1  0.6198176E-013  0.5930193E+02  0.7816164E-02  0.1266605E+00
        -11   -1    0    0    0    0  0.00000000000E+00  0.00000000000E+00  0.45593999997E+02  0.45594000000E+02  0.51100000000E-03 0.  1.
         11   -1    0    0    0    0 -0.00000000000E+00 -0.00000000000E+00 -0.45593999997E+02  0.45594000000E+02  0.51100000000E-03 0. -1.
    9900012    2    1    2    0    0  0.12656099871E+02  0.23968891624E+02 -0.16793955490E+02  0.59301928266E+02  0.49999971254E+02 0.  0.
        -12    1    1    2    0    0 -0.12656099871E+02 -0.23968891624E+02  0.16793955490E+02  0.31886071734E+02  0.00000000000E+00 0.  1.
         11    1    3    3    0    0  0.66349153624E+01  0.30660820760E+00 -0.51744962866E+01  0.84197103596E+01  0.51100000000E-03 0. -1.
        -11    1    3    3    0    0  0.23000676999E+02  0.11253822810E+02  0.22270133982E+01  0.25702903711E+02  0.51100000000E-03 0.  1.
         12    1    3    3    0    0 -0.16979492490E+02  0.12408460606E+02 -0.13846472602E+02  0.25179314195E+02  0.00000000000E+00 0. -1.
</event>
<event>
 7    1  0.6198176E-013  0.5930194E+02  0.7816164E-02  0.1266605E+00
        -11   -1    0    0    0    0  0.00000000000E+00  0.00000000000E+00  0.45593999997E+02  0.45594000000E+02  0.51100000000E-03 0.  1.
         11   -1    0    0    0    0 -0.00000000000E+00 -0.00000000000E+00 -0.45593999997E+02  0.45594000000E+02  0.51100000000E-03 0. -1.
    9900012    2    1    2    0    0 -0.14722457537E+02  0.51359468547E+01 -0.27813524473E+02  0.59301939572E+02  0.49999991873E+02 0.  0.
        -12    1    1    2    0    0  0.14722457537E+02 -0.51359468547E+01  0.27813524473E+02  0.31886060428E+02  0.00000000000E+00 0.  1.
         11    1    3    3    0    0 -0.22330627985E+02  0.27473046435E+01  0.35877722026E+00  0.22501852154E+02  0.51100000000E-03 0. -1.
        -11    1    3    3    0    0 -0.33753041103E+01 -0.11880656651E+01  0.22716041973E+01  0.42384388343E+01  0.51100000000E-03 0.  1.
        -12    1    3    3    0    0  0.10983474558E+02  0.35767078764E+01 -0.30443905891E+02  0.32561648583E+02  0.00000000000E+00 0.  1.
</event>
<event>
 7    1  0.6198176E-013  0.5930197E+02  0.7816164E-02  0.1266605E+00
        -11   -1    0    0    0    0  0.00000000000E+00  0.00000000000E+00  0.45593999997E+02  0.45594000000E+02  0.51100000000E-03 0.  1.
         11   -1    0    0    0    0 -0.00000000000E+00 -0.00000000000E+00 -0.45593999997E+02  0.45594000000E+02  0.51100000000E-03 0. -1.
    9900012    2    1    2    0    0 -0.53775008043E+01 -0.73876434286E+01 -0.30548711977E+02  0.59301974945E+02  0.50000056386E+02 0.  0.
        -12    1    1    2    0    0  0.53775008043E+01  0.73876434286E+01  0.30548711977E+02  0.31886025055E+02  0.00000000000E+00 0.  1.
         11    1    3    3    0    0  0.72462954792E+01 -0.36631114103E+01 -0.12123879137E+02  0.14591628729E+02  0.51100000000E-03 0. -1.
        -11    1    3    3    0    0  0.50110079684E+00  0.14969415714E+02 -0.15714145594E+02  0.21708728218E+02  0.51100000000E-03 0.  1.
        -12    1    3    3    0    0 -0.13124897080E+02 -0.18693947732E+02 -0.27106872456E+01  0.23001617998E+02  0.00000000000E+00 0.  1.
</event>
<event>
 7    1  0.6198176E-013  0.5930196E+02  0.7816164E-02  0.1266605E+00
        -11   -1    0    0    0    0  0.00000000000E+00  0.00000000000E+00  0.45593999997E+02  0.45594000000E+02  0.51100000000E-03 0.  1.
         11   -1    0    0    0    0 -0.00000000000E+00 -0.00000000000E+00 -0.45593999997E+02  0.45594000000E+02  0.51100000000E-03 0. -1.
    9900012    2    1    2    0    0 -0.43735795811E+01 -0.12934300731E+02 -0.28814845464E+02  0.59301958338E+02  0.50000026098E+02 0.  0.
        -12    1    1    2    0    0  0.43735795811E+01  0.12934300731E+02  0.28814845464E+02  0.31886041662E+02  0.00000000000E+00 0.  1.
         11    1    3    3    0    0 -0.32755948486E+00 -0.13772439893E+01 -0.45883074776E+01  0.48017353105E+01  0.51100000000E-03 0. -1.
        -11    1    3    3    0    0  0.14762367035E+02  0.95474246106E+01 -0.18754314974E+02  0.25706130156E+02  0.51100000000E-03 0.  1.
        -12    1    3    3    0    0 -0.18808387131E+02 -0.21104481352E+02 -0.54722230124E+01  0.28794092872E+02  0.00000000000E+00 0.  1.
</event>
<event>
 7    1  0.6198176E-013  0.5930170E+02  0.7816164E-02  0.1266606E+00
        -11   -1    0    0    0    0  0.00000000000E+00  0.00000000000E+00  0.45593999997E+02  0.45594000000E+02  0.51100000000E-03 0.  1.
         11   -1    0    0    0    0 -0.00000000000E+00 -0.00000000000E+00 -0.45593999997E+02  0.45594000000E+02  0.51100000000E-03 0. -1.
    9900012    2    1    2    0    0  0.29757152234E+02 -0.77608514099E+01 -0.84271629901E+01  0.59301702006E+02  0.49999558608E+02 0.  0.
        -12    1    1    2    0    0 -0.29757152234E+02  0.77608514099E+01  0.84271629901E+01  0.31886297994E+02  0.00000000000E+00 0.  1.
         11    1    3    3    0    0  0.38666082057E+02 -0.19552058821E+01 -0.10836740428E+02  0.40203528141E+02  0.51100000000E-03 0. -1.
        -11    1    3    3    0    0 -0.62458973562E+01 -0.11916921250E+01 -0.62597906927E+01  0.89227990946E+01  0.51100000000E-03 0.  1.
        -12    1    3    3    0    0 -0.26630324660E+01 -0.46139534029E+01  0.86693681308E+01  0.10175374770E+02  0.00000000000E+00 0.  1.
</event>
<event>
 7    1  0.6198176E-013  0.5930196E+02  0.7816164E-02  0.1266605E+00
        -11   -1    0    0    0    0  0.00000000000E+00  0.00000000000E+00  0.45593999997E+02  0.45594000000E+02  0.51100000000E-03 0. -1.
         11   -1    0    0    0    0 -0.00000000000E+00 -0.00000000000E+00 -0.45593999997E+02  0.45594000000E+02  0.51100000000E-03 0.  1.
    9900012    2    1    2    0    0  0.27094460760E+02 -0.11604072772E+02  0.12163694422E+02  0.59301956490E+02  0.50000022728E+02 0.  0.
        -12    1    1    2    0    0 -0.27094460760E+02  0.11604072772E+02 -0.12163694422E+02  0.31886043510E+02  0.00000000000E+00 0.  1.
         11    1    3    3    0    0 -0.43658506961E+00 -0.20618109037E+02  0.14566591236E+02  0.25248417916E+02  0.51100000000E-03 0. -1.
        -11    1    3    3    0    0  0.90481283428E+01 -0.39488095671E+01 -0.54444977049E+01  0.11274053354E+02  0.51100000000E-03 0.  1.
        -12    1    3    3    0    0  0.18482917486E+02  0.12962845832E+02  0.30416008911E+01  0.22779485220E+02  0.00000000000E+00 0.  1.
</event>
<event>
 7    1  0.6198176E-013  0.5930195E+02  0.7816164E-02  0.1266605E+00
        -11   -1    0    0    0    0  0.00000000000E+00  0.00000000000E+00  0.45593999997E+02  0.45594000000E+02  0.51100000000E-03 0.  1.
         11   -1    0    0    0    0 -0.00000000000E+00 -0.00000000000E+00 -0.45593999997E+02  0.45594000000E+02  0.51100000000E-03 0. -1.
    9900012    2    1    2    0    0  0.19888247953E+02 -0.17414948330E+02 -0.17829676286E+02  0.59301949939E+02  0.50000010782E+02 0.  0.
        -12    1    1    2    0    0 -0.19888247953E+02  0.17414948330E+02  0.17829676286E+02  0.31886050061E+02  0.00000000000E+00 0.  1.
         11    1    3    3    0    0  0.18907167875E+02 -0.11270945855E+01 -0.92262499650E+01  0.21068341841E+02  0.51100000000E-03 0. -1.
        -11    1    3    3    0    0 -0.72304934171E+00  0.66620394841E+01 -0.13165397966E+02  0.14772720613E+02  0.51100000000E-03 0.  1.
        -12    1    3    3    0    0  0.17041294197E+01 -0.22949893229E+02  0.45619716451E+01  0.23460887485E+02  0.00000000000E+00 0.  1.
</event>
<event>
 7    1  0.6198176E-013  0.5930193E+02  0.7816164E-02  0.1266605E+00
        -11   -1    0    0    0    0  0.00000000000E+00  0.00000000000E+00  0.45593999997E+02  0.45594000000E+02  0.51100000000E-03 0. -1.
         11   -1    0    0    0    0 -0.00000000000E+00 -0.00000000000E+00 -0.45593999997E+02  0.45594000000E+02  0.51100000000E-03 0.  1.
    9900012    2    1    2    0    0 -0.49688100566E+01 -0.31478802716E+02 -0.10571504108E+01  0.59301926852E+02  0.49999968675E+02 0.  0.
        -12    1    1    2    0    0  0.49688100566E+01  0.31478802716E+02  0.10571504108E+01  0.31886073148E+02  0.00000000000E+00 0.  1.
         11    1    3    3    0    0 -0.59784109152E+01  0.11011148268E+01 -0.17040162800E+01  0.63132814508E+01  0.51100000000E-03 0.  1.
        -11    1    3    3    0    0  0.15943557794E+02 -0.29608687478E+02  0.10043209558E+02  0.35096117560E+02  0.51100000000E-03 0. -1.
         12    1    3    3    0    0 -0.14933956935E+02 -0.29712300651E+01 -0.93963436885E+01  0.17892527841E+02  0.00000000000E+00 0. -1.
</event>
<event>
 7    1  0.6198176E-013  0.5930193E+02  0.7816164E-02  0.1266605E+00
        -11   -1    0    0    0    0  0.00000000000E+00  0.00000000000E+00  0.45593999997E+02  0.45594000000E+02  0.51100000000E-03 0. -1.
         11   -1    0    0    0    0 -0.00000000000E+00 -0.00000000000E+00 -0.45593999997E+02  0.45594000000E+02  0.51100000000E-03 0.  1.
    9900012    2    1    2    0    0 -0.16385946576E+02  0.21217443475E+02 -0.17263894770E+02  0.59301933836E+02  0.49999981412E+02 0.  0.
        -12    1    1    2    0    0  0.16385946576E+02 -0.21217443475E+02  0.17263894770E+02  0.31886066164E+02  0.00000000000E+00 0.  1.
         11    1    3    3    0    0  0.26086566999E+01 -0.19862854401E+01 -0.10202635465E+02  0.10716538169E+02  0.51100000000E-03 0. -1.
        -11    1    3    3    0    0  0.48466244462E+01 -0.14600172080E+01  0.92938308765E+01  0.10582849871E+02  0.51100000000E-03 0.  1.
         12    1    3    3    0    0 -0.23841227722E+02  0.24663746123E+02 -0.16355090181E+02  0.38002545796E+02  0.00000000000E+00 0. -1.
</event>
<event>
 7    1  0.6198176E-013  0.5930198E+02  0.7816164E-02  0.1266605E+00
        -11   -1    0    0    0    0  0.00000000000E+00  0.00000000000E+00  0.45593999997E+02  0.45594000000E+02  0.51100000000E-03 0.  1.
         11   -1    0    0    0    0 -0.00000000000E+00 -0.00000000000E+00 -0.45593999997E+02  0.45594000000E+02  0.51100000000E-03 0. -1.
    9900012    2    1    2    0    0 -0.38035713061E+01  0.19141751146E+02 -0.25215961367E+02  0.59301976427E+02  0.50000059089E+02 0.  0.
        -12    1    1    2    0    0  0.38035713061E+01 -0.19141751146E+02  0.25215961367E+02  0.31886023573E+02  0.00000000000E+00 0.  1.
         11    1    3    3    0    0 -0.12516736094E+02  0.95926463637E+01 -0.79580032595E+01  0.17664013215E+02  0.51100000000E-03 0. -1.
        -11    1    3    3    0    0 -0.43614949751E+01  0.20336742198E+02 -0.77022059123E+01  0.22179488222E+02  0.51100000000E-03 0.  1.
         12    1    3    3    0    0  0.13074659763E+02 -0.10787637415E+02 -0.95557521954E+01  0.19458474990E+02  0.00000000000E+00 0. -1.
</event>
<event>
 7    1  0.6198176E-013  0.5930194E+02  0.7816164E-02  0.1266605E+00
        -11   -1    0    0    0    0  0.00000000000E+00  0.00000000000E+00  0.45593999997E+02  0.45594000000E+02  0.51100000000E-03 0.  1.
         11   -1    0    0    0    0 -0.00000000000E+00 -0.00000000000E+00 -0.45593999997E+02  0.45594000000E+02  0.51100000000E-03 0. -1.
    9900012    2    1    2    0    0  0.57935253596E+01 -0.22926355148E+02 -0.21390137102E+02  0.59301942519E+02  0.49999997248E+02 0.  0.
        -12    1    1    2    0    0 -0.57935253596E+01  0.22926355148E+02  0.21390137102E+02  0.31886057481E+02  0.00000000000E+00 0.  1.
         11    1    3    3    0    0 -0.59845799652E+01 -0.71394303384E+01 -0.12406909863E+02  0.15515091863E+02  0.51100000000E-03 0. -1.
        -11    1    3    3    0    0  0.45551241430E+01 -0.28156389347E+02 -0.64038512599E+01  0.29232528598E+02  0.51100000000E-03 0.  1.
         12    1    3    3    0    0  0.72229811818E+01  0.12369464538E+02 -0.25793759789E+01  0.14554322057E+02  0.00000000000E+00 0. -1.
</event>
<event>
 7    1  0.8518349E-013  0.5930196E+02  0.7816164E-02  0.1266605E+00
        -11   -1    0    0    0    0  0.00000000000E+00  0.00000000000E+00  0.45593999997E+02  0.45594000000E+02  0.51100000000E-03 0.  1.
         11   -1    0    0    0    0 -0.00000000000E+00 -0.00000000000E+00 -0.45593999997E+02  0.45594000000E+02  0.51100000000E-03 0. -1.
    9900012    2    1    2    0    0 -0.11342728120E+02 -0.27876505698E+02 -0.10533873866E+02  0.59301959955E+02  0.50000029047E+02 0.  0.
        -12    1    1    2    0    0  0.11342728120E+02  0.27876505698E+02  0.10533873866E+02  0.31886040045E+02  0.00000000000E+00 0.  1.
         11    1    3    3    0    0 -0.46735936676E+01 -0.25641004418E+02 -0.11550377630E+02  0.28508153378E+02  0.51100000000E-03 0. -1.
        -11    1    3    3    0    0 -0.71745478172E+01  0.68660890390E+01 -0.11573635479E+02  0.15250126345E+02  0.51100000000E-03 0.  1.
        -12    1    3    3    0    0  0.50541336481E+00 -0.91015903192E+01  0.12590139243E+02  0.15543680233E+02  0.00000000000E+00 0.  1.
</event>
<event>
 7    1  0.6198176E-013  0.5930193E+02  0.7816164E-02  0.1266605E+00
        -11   -1    0    0    0    0  0.00000000000E+00  0.00000000000E+00  0.45593999997E+02  0.45594000000E+02  0.51100000000E-03 0.  1.
         11   -1    0    0    0    0 -0.00000000000E+00 -0.00000000000E+00 -0.45593999997E+02  0.45594000000E+02  0.51100000000E-03 0. -1.
    9900012    2    1    2    0    0  0.16297084272E+02  0.15708920303E+02 -0.22457882950E+02  0.59301927187E+02  0.49999969286E+02 0.  0.
        -12    1    1    2    0    0 -0.16297084272E+02 -0.15708920303E+02  0.22457882950E+02  0.31886072813E+02  0.00000000000E+00 0.  1.
         11    1    3    3    0    0  0.67133048366E+01 -0.34407446578E+01 -0.57554909442E+01  0.94885647966E+01  0.51100000000E-03 0. -1.
        -11    1    3    3    0    0  0.23699892718E+02  0.17342204258E+02 -0.21297083508E+01  0.29444398810E+02  0.51100000000E-03 0.  1.
        -12    1    3    3    0    0 -0.14116113283E+02  0.18074607027E+01 -0.14572683655E+02  0.20368963580E+02  0.00000000000E+00 0.  1.
</event>
<event>
 7    1  0.6198176E-013  0.5930194E+02  0.7816164E-02  0.1266605E+00
        -11   -1    0    0    0    0  0.00000000000E+00  0.00000000000E+00  0.45593999997E+02  0.45594000000E+02  0.51100000000E-03 0. -1.
         11   -1    0    0    0    0 -0.00000000000E+00 -0.00000000000E+00 -0.45593999997E+02  0.45594000000E+02  0.51100000000E-03 0.  1.
    9900012    2    1    2    0    0  0.15240321519E+02  0.16597798824E+02  0.22560280253E+02  0.59301943942E+02  0.49999999844E+02 0.  0.
        -12    1    1    2    0    0 -0.15240321519E+02 -0.16597798824E+02 -0.22560280253E+02  0.31886056058E+02  0.00000000000E+00 0.  1.
         11    1    3    3    0    0  0.38014914069E+00 -0.11624320891E+01  0.59968696773E+01  0.61203110966E+01  0.51100000000E-03 0. -1.
        -11    1    3    3    0    0  0.23525268207E+02  0.69407143104E+01  0.26513178848E+02  0.36118698928E+02  0.51100000000E-03 0.  1.
        -12    1    3    3    0    0 -0.86650958281E+01  0.10819516603E+02 -0.99497682720E+01  0.17062933918E+02  0.00000000000E+00 0.  1.
</event>
<event>
 7    1  0.6198176E-013  0.5930190E+02  0.7816164E-02  0.1266605E+00
        -11   -1    0    0    0    0  0.00000000000E+00  0.00000000000E+00  0.45593999997E+02  0.45594000000E+02  0.51100000000E-03 0. -1.
         11   -1    0    0    0    0 -0.00000000000E+00 -0.00000000000E+00 -0.45593999997E+02  0.45594000000E+02  0.51100000000E-03 0.  1.
    9900012    2    1    2    0    0 -0.21850358906E+02 -0.15613570957E+02  0.17190154258E+02  0.59301902940E+02  0.49999925065E+02 0.  0.
        -12    1    1    2    0    0  0.21850358906E+02  0.15613570957E+02 -0.17190154258E+02  0.31886097060E+02  0.00000000000E+00 0.  1.
         11    1    3    3    0    0  0.81918208020E+01  0.41646907229E+01  0.17216480501E+02  0.19515577828E+02  0.51100000000E-03 0. -1.
        -11    1    3    3    0    0 -0.47929269886E+01 -0.12661158758E+02  0.51185549410E+00  0.13547659817E+02  0.51100000000E-03 0.  1.
        -12    1    3    3    0    0 -0.25249252719E+02 -0.71171029220E+01 -0.53818173648E+00  0.26238665295E+02  0.00000000000E+00 0.  1.
</event>
<event>
 7    1  0.6198176E-013  0.5930197E+02  0.7816164E-02  0.1266605E+00
        -11   -1    0    0    0    0  0.00000000000E+00  0.00000000000E+00  0.45593999997E+02  0.45594000000E+02  0.51100000000E-03 0.  1.
         11   -1    0    0    0    0 -0.00000000000E+00 -0.00000000000E+00 -0.45593999997E+02  0.45594000000E+02  0.51100000000E-03 0. -1.
    9900012    2    1    2    0    0 -0.25691470761E+02  0.14301612585E+02 -0.12334133893E+02  0.59301974044E+02  0.50000054743E+02 0.  0.
        -12    1    1    2    0    0  0.25691470761E+02 -0.14301612585E+02  0.12334133893E+02  0.31886025956E+02  0.00000000000E+00 0.  1.
         11    1    3    3    0    0 -0.43714419111E+01  0.21357150571E+02 -0.52938414149E+01  0.22433504899E+02  0.51100000000E-03 0. -1.
        -11    1    3    3    0    0 -0.41619763633E+01 -0.43521199263E+00  0.10593145467E+02  0.11389740465E+02  0.51100000000E-03 0.  1.
        -12    1    3    3    0    0 -0.17158052486E+02 -0.66203259934E+01 -0.17633437945E+02  0.25478728680E+02  0.00000000000E+00 0.  1.
</event>
<event>
 7    1  0.6198176E-013  0.5930187E+02  0.7816164E-02  0.1266605E+00
        -11   -1    0    0    0    0  0.00000000000E+00  0.00000000000E+00  0.45593999997E+02  0.45594000000E+02  0.51100000000E-03 0.  1.
         11   -1    0    0    0    0 -0.00000000000E+00 -0.00000000000E+00 -0.45593999997E+02  0.45594000000E+02  0.51100000000E-03 0. -1.
    9900012    2    1    2    0    0 -0.16733033608E+02 -0.22146304057E+02 -0.15693062799E+02  0.59301867950E+02  0.49999861252E+02 0.  0.
        -12    1    1    2    0    0  0.16733033608E+02  0.22146304057E+02  0.15693062799E+02  0.31886132050E+02  0.00000000000E+00 0.  1.
         11    1    3    3    0    0 -0.24877110286E+01 -0.25743975179E+02 -0.14863822884E+02  0.29830759212E+02  0.51100000000E-03 0. -1.
        -11    1    3    3    0    0  0.29950822554E+01  0.16769582063E+01 -0.94831418264E+01  0.10085270730E+02  0.51100000000E-03 0.  1.
        -12    1    3    3    0    0 -0.17240404835E+02  0.19207129157E+01  0.86539019109E+01  0.19385838008E+02  0.00000000000E+00 0.  1.
</event>
<event>
 7    1  0.6198176E-013  0.5930195E+02  0.7816164E-02  0.1266605E+00
        -11   -1    0    0    0    0  0.00000000000E+00  0.00000000000E+00  0.45593999997E+02  0.45594000000E+02  0.51100000000E-03 0.  1.
         11   -1    0    0    0    0 -0.00000000000E+00 -0.00000000000E+00 -0.45593999997E+02  0.45594000000E+02  0.51100000000E-03 0. -1.
    9900012    2    1    2    0    0 -0.25896634787E+02 -0.80638077928E+01 -0.16764832483E+02  0.59301948228E+02  0.50000007660E+02 0.  0.
        -12    1    1    2    0    0  0.25896634787E+02  0.80638077928E+01  0.16764832483E+02  0.31886051772E+02  0.00000000000E+00 0.  1.
         11    1    3    3    0    0 -0.24520752558E+02 -0.18226547190E+02 -0.21885795604E+02  0.37582740426E+02  0.51100000000E-03 0. -1.
        -11    1    3    3    0    0 -0.66246714141E+01  0.70126943197E+01  0.99973606412E+01  0.13892853307E+02  0.51100000000E-03 0.  1.
        -12    1    3    3    0    0  0.52487891848E+01  0.31500450775E+01 -0.48763975202E+01  0.78263544944E+01  0.00000000000E+00 0.  1.
</event>
<event>
 7    1  0.6198176E-013  0.5930196E+02  0.7816164E-02  0.1266605E+00
        -11   -1    0    0    0    0  0.00000000000E+00  0.00000000000E+00  0.45593999997E+02  0.45594000000E+02  0.51100000000E-03 0.  1.
         11   -1    0    0    0    0 -0.00000000000E+00 -0.00000000000E+00 -0.45593999997E+02  0.45594000000E+02  0.51100000000E-03 0. -1.
    9900012    2    1    2    0    0 -0.69883913391E+01  0.31030056171E+02  0.22400528256E+01  0.59301955464E+02  0.50000020857E+02 0.  0.
        -12    1    1    2    0    0  0.69883913391E+01 -0.31030056171E+02 -0.22400528256E+01  0.31886044536E+02  0.00000000000E+00 0.  1.
         11    1    3    3    0    0  0.79206967981E+01 -0.46665725906E+01 -0.80817763003E+01  0.12240483893E+02  0.51100000000E-03 0. -1.
        -11    1    3    3    0    0  0.27920469873E+01 -0.17495478590E+01  0.39682290248E+01  0.51578373321E+01  0.51100000000E-03 0.  1.
         12    1    3    3    0    0 -0.17701135125E+02  0.37446176620E+02  0.63536001011E+01  0.41903634239E+02  0.00000000000E+00 0. -1.
</event>
<event>
 7    1  0.6198176E-013  0.5930192E+02  0.7816164E-02  0.1266605E+00
        -11   -1    0    0    0    0  0.00000000000E+00  0.00000000000E+00  0.45593999997E+02  0.45594000000E+02  0.51100000000E-03 0. -1.
         11   -1    0    0    0    0 -0.00000000000E+00 -0.00000000000E+00 -0.45593999997E+02  0.45594000000E+02  0.51100000000E-03 0.  1.
    9900012    2    1    2    0    0 -0.49904029675E+01  0.15443486472E+01  0.31455257458E+02  0.59301915946E+02  0.49999948786E+02 0.  0.
        -12    1    1    2    0    0  0.49904029675E+01 -0.15443486472E+01 -0.31455257458E+02  0.31886084054E+02  0.00000000000E+00 0.  1.
         11    1    3    3    0    0  0.78798161064E+01 -0.13655443269E+02  0.11124898246E+02  0.19295750672E+02  0.51100000000E-03 0. -1.
        -11    1    3    3    0    0 -0.53795625189E+01 -0.67933511035E+01 -0.66570951418E+00  0.86909424995E+01  0.51100000000E-03 0.  1.
         12    1    3    3    0    0 -0.74906565549E+01  0.21993143020E+02  0.20996068726E+02  0.31315222775E+02  0.00000000000E+00 0. -1.
</event>
<event>
 7    1  0.6198176E-013  0.5930195E+02  0.7816164E-02  0.1266605E+00
        -11   -1    0    0    0    0  0.00000000000E+00  0.00000000000E+00  0.45593999997E+02  0.45594000000E+02  0.51100000000E-03 0.  1.
         11   -1    0    0    0    0 -0.00000000000E+00 -0.00000000000E+00 -0.45593999997E+02  0.45594000000E+02  0.51100000000E-03 0. -1.
    9900012    2    1    2    0    0  0.44113189603E+01 -0.26959080340E+02 -0.16445928971E+02  0.59301947760E+02  0.50000006807E+02 0.  0.
        -12    1    1    2    0    0 -0.44113189603E+01  0.26959080340E+02  0.16445928971E+02  0.31886052240E+02  0.00000000000E+00 0.  1.
         11    1    3    3    0    0  0.26204739068E+01  0.11165374812E+01 -0.29365877462E+01  0.40910985439E+01  0.51100000000E-03 0. -1.
        -11    1    3    3    0    0  0.15463918429E+02 -0.16734218281E+02  0.10708482596E+02  0.25176148125E+02  0.51100000000E-03 0.  1.
         12    1    3    3    0    0 -0.13673073375E+02 -0.11341399539E+02 -0.24217823821E+02  0.30034701091E+02  0.00000000000E+00 0. -1.
</event>
<event>
 7    1  0.6198176E-013  0.5930196E+02  0.7816164E-02  0.1266605E+00
        -11   -1    0    0    0    0  0.00000000000E+00  0.00000000000E+00  0.45593999997E+02  0.45594000000E+02  0.51100000000E-03 0. -1.
         11   -1    0    0    0    0 -0.00000000000E+00 -0.00000000000E+00 -0.45593999997E+02  0.45594000000E+02  0.51100000000E-03 0.  1.
    9900012    2    1    2    0    0 -0.11600544794E+02  0.29650547406E+02  0.17297113442E+01  0.59301960699E+02  0.50000030404E+02 0.  0.
        -12    1    1    2    0    0  0.11600544794E+02 -0.29650547406E+02 -0.17297113442E+01  0.31886039301E+02  0.00000000000E+00 0.  1.
         11    1    3    3    0    0 -0.83296583370E+01  0.27963240723E+01 -0.67329038354E+01  0.11069536153E+02  0.51100000000E-03 0. -1.
        -11    1    3    3    0    0 -0.66344478625E+01  0.29704010853E+02 -0.77698106409E+01  0.31412005935E+02  0.51100000000E-03 0.  1.
        -12    1    3    3    0    0  0.33635614058E+01 -0.28497875191E+01  0.16232425821E+02  0.16820418611E+02  0.00000000000E+00 0.  1.
</event>
<event>
 7    1  0.6198176E-013  0.5930192E+02  0.7816164E-02  0.1266605E+00
        -11   -1    0    0    0    0  0.00000000000E+00  0.00000000000E+00  0.45593999997E+02  0.45594000000E+02  0.51100000000E-03 0. -1.
         11   -1    0    0    0    0 -0.00000000000E+00 -0.00000000000E+00 -0.45593999997E+02  0.45594000000E+02  0.51100000000E-03 0.  1.
    9900012    2    1    2    0    0  0.49486483749E+01  0.27476184951E+02  0.15404285560E+02  0.59301923512E+02  0.49999962584E+02 0.  0.
        -12    1    1    2    0    0 -0.49486483749E+01 -0.27476184951E+02 -0.15404285560E+02  0.31886076488E+02  0.00000000000E+00 0.  1.
         11    1    3    3    0    0 -0.17861435717E+02  0.51230875529E+01  0.15807804603E+02  0.24395975049E+02  0.51100000000E-03 0.  1.
        -11    1    3    3    0    0  0.38915698735E+01  0.13140018049E+02  0.14562201660E+01  0.13781326780E+02  0.51100000000E-03 0. -1.
        -12    1    3    3    0    0  0.18918514218E+02  0.92130793495E+01 -0.18597392092E+01  0.21124621683E+02  0.00000000000E+00 0.  1.
</event>
<event>
 7    1  0.6198176E-013  0.5930193E+02  0.7816164E-02  0.1266605E+00
        -11   -1    0    0    0    0  0.00000000000E+00  0.00000000000E+00  0.45593999997E+02  0.45594000000E+02  0.51100000000E-03 0.  1.
         11   -1    0    0    0    0 -0.00000000000E+00 -0.00000000000E+00 -0.45593999997E+02  0.45594000000E+02  0.51100000000E-03 0. -1.
    9900012    2    1    2    0    0 -0.29909890178E+00 -0.16583094573E+02 -0.27232935704E+02  0.59301932936E+02  0.49999979772E+02 0.  0.
        -12    1    1    2    0    0  0.29909890178E+00  0.16583094573E+02  0.27232935704E+02  0.31886067064E+02  0.00000000000E+00 0.  1.
         11    1    3    3    0    0  0.64292016517E+01 -0.17379730967E+02 -0.14378568162E+02  0.23454912172E+02  0.51100000000E-03 0. -1.
        -11    1    3    3    0    0 -0.18029979747E+01  0.81106196225E+01 -0.21773523551E+02  0.23304919661E+02  0.51100000000E-03 0.  1.
         12    1    3    3    0    0 -0.49253025788E+01 -0.73139832288E+01  0.89191560088E+01  0.12542101103E+02  0.00000000000E+00 0. -1.
</event>
<event>
 7    1  0.6198176E-013  0.5930194E+02  0.7816164E-02  0.1266605E+00
        -11   -1    0    0    0    0  0.00000000000E+00  0.00000000000E+00  0.45593999997E+02  0.45594000000E+02  0.51100000000E-03 0.  1.
         11   -1    0    0    0    0 -0.00000000000E+00 -0.00000000000E+00 -0.45593999997E+02  0.45594000000E+02  0.51100000000E-03 0. -1.
    9900012    2    1    2    0    0  0.17708572212E+01  0.43229475589E+01 -0.31541984730E+02  0.59301943305E+02  0.49999998681E+02 0.  0.
        -12    1    1    2    0    0 -0.17708572212E+01 -0.43229475589E+01  0.31541984730E+02  0.31886056695E+02  0.00000000000E+00 0.  1.
         11    1    3    3    0    0  0.92150412429E+01  0.18917548903E+02 -0.34860787092E+02  0.40719345753E+02  0.51100000000E-03 0. -1.
        -11    1    3    3    0    0 -0.27730537417E+01 -0.53921609344E-01  0.16296802931E+01  0.32169228641E+01  0.51100000000E-03 0.  1.
        -12    1    3    3    0    0 -0.46711302800E+01 -0.14540679735E+02  0.16891220693E+01  0.15365674688E+02  0.00000000000E+00 0.  1.
</event>
<event>
 7    1  0.6198176E-013  0.5930194E+02  0.7816164E-02  0.1266605E+00
        -11   -1    0    0    0    0  0.00000000000E+00  0.00000000000E+00  0.45593999997E+02  0.45594000000E+02  0.51100000000E-03 0. -1.
         11   -1    0    0    0    0 -0.00000000000E+00 -0.00000000000E+00 -0.45593999997E+02  0.45594000000E+02  0.51100000000E-03 0.  1.
    9900012    2    1    2    0    0 -0.18759656714E+02 -0.10374368610E+02  0.23604423870E+02  0.59301936111E+02  0.49999985561E+02 0.  0.
        -12    1    1    2    0    0  0.18759656714E+02  0.10374368610E+02 -0.23604423870E+02  0.31886063889E+02  0.00000000000E+00 0.  1.
         11    1    3    3    0    0  0.29935159224E+01 -0.13342397281E+02  0.75302933572E+01  0.15610445896E+02  0.51100000000E-03 0. -1.
        -11    1    3    3    0    0 -0.14926388240E+02 -0.15059924141E+02  0.65671603894E+01  0.22197431763E+02  0.51100000000E-03 0.  1.
         12    1    3    3    0    0 -0.68267843970E+01  0.18027952812E+02  0.95069701238E+01  0.21494058452E+02  0.00000000000E+00 0. -1.
</event>
<event>
 7    1  0.6198176E-013  0.5930194E+02  0.7816164E-02  0.1266605E+00
        -11   -1    0    0    0    0  0.00000000000E+00  0.00000000000E+00  0.45593999997E+02  0.45594000000E+02  0.51100000000E-03 0.  1.
         11   -1    0    0    0    0 -0.00000000000E+00 -0.00000000000E+00 -0.45593999997E+02  0.45594000000E+02  0.51100000000E-03 0. -1.
    9900012    2    1    2    0    0  0.46957513891E+01  0.16741153044E+02  0.26728342977E+02  0.59301943414E+02  0.49999998880E+02 0.  0.
        -12    1    1    2    0    0 -0.46957513891E+01 -0.16741153044E+02 -0.26728342977E+02  0.31886056586E+02  0.00000000000E+00 0.  1.
         11    1    3    3    0    0  0.74849873878E+01  0.38024055649E+01 -0.14420554883E+01  0.85183829784E+01  0.51100000000E-03 0. -1.
        -11    1    3    3    0    0  0.15908966374E+02 -0.15286020173E+01  0.20363314554E+02  0.25886220565E+02  0.51100000000E-03 0.  1.
        -12    1    3    3    0    0 -0.18698202373E+02  0.14467349496E+02  0.78070839114E+01  0.24897339871E+02  0.00000000000E+00 0.  1.
</event>
<event>
 7    1  0.6198176E-013  0.5930189E+02  0.7816164E-02  0.1266605E+00
        -11   -1    0    0    0    0  0.00000000000E+00  0.00000000000E+00  0.45593999997E+02  0.45594000000E+02  0.51100000000E-03 0.  1.
         11   -1    0    0    0    0 -0.00000000000E+00 -0.00000000000E+00 -0.45593999997E+02  0.45594000000E+02  0.51100000000E-03 0. -1.
    9900012    2    1    2    0    0  0.50416522704E+01  0.16273559496E+02 -0.26953231698E+02  0.59301894950E+02  0.49999910494E+02 0.  0.
        -12    1    1    2    0    0 -0.50416522704E+01 -0.16273559496E+02  0.26953231698E+02  0.31886105050E+02  0.00000000000E+00 0.  1.
         11    1    3    3    0    0  0.19770507958E+00 -0.58043356030E+01 -0.39768239239E+01  0.70387873866E+01  0.51100000000E-03 0. -1.
        -11    1    3    3    0    0  0.18395314742E+02  0.64745914995E+01  0.22739612620E+01  0.19633615042E+02  0.51100000000E-03 0.  1.
         12    1    3    3    0    0 -0.13551367551E+02  0.15603303600E+02 -0.25250369036E+02  0.32629492521E+02  0.00000000000E+00 0. -1.
</event>
<event>
 7    1  0.6198176E-013  0.5930195E+02  0.7816164E-02  0.1266605E+00
        -11   -1    0    0    0    0  0.00000000000E+00  0.00000000000E+00  0.45593999997E+02  0.45594000000E+02  0.51100000000E-03 0. -1.
         11   -1    0    0    0    0 -0.00000000000E+00 -0.00000000000E+00 -0.45593999997E+02  0.45594000000E+02  0.51100000000E-03 0.  1.
    9900012    2    1    2    0    0  0.10802644687E+02 -0.27846526193E+02  0.11162168799E+02  0.59301950299E+02  0.50000011437E+02 0.  0.
        -12    1    1    2    0    0 -0.10802644687E+02  0.27846526193E+02 -0.11162168799E+02  0.31886049701E+02  0.00000000000E+00 0.  1.
         11    1    3    3    0    0  0.10007834783E+01  0.59698221591E+01  0.11371861837E+01  0.61590207711E+01  0.51100000000E-03 0. -1.
        -11    1    3    3    0    0 -0.74536667090E+00 -0.24984300969E+02 -0.11566080704E+02  0.27541697288E+02  0.51100000000E-03 0.  1.
         12    1    3    3    0    0  0.10547227880E+02 -0.88320473825E+01  0.21591063319E+02  0.25601232240E+02  0.00000000000E+00 0. -1.
</event>
<event>
 7    1  0.6198176E-013  0.5930195E+02  0.7816164E-02  0.1266605E+00
        -11   -1    0    0    0    0  0.00000000000E+00  0.00000000000E+00  0.45593999997E+02  0.45594000000E+02  0.51100000000E-03 0.  1.
         11   -1    0    0    0    0 -0.00000000000E+00 -0.00000000000E+00 -0.45593999997E+02  0.45594000000E+02  0.51100000000E-03 0. -1.
    9900012    2    1    2    0    0 -0.15455596489E+02 -0.25061692872E+02 -0.12237497037E+02  0.59301949034E+02  0.50000009131E+02 0.  0.
        -12    1    1    2    0    0  0.15455596489E+02  0.25061692872E+02  0.12237497037E+02  0.31886050966E+02  0.00000000000E+00 0.  1.
         11    1    3    3    0    0  0.22231349093E+01 -0.26396189299E+02 -0.12330062904E+02  0.29218685628E+02  0.51100000000E-03 0. -1.
        -11    1    3    3    0    0  0.33754597291E+01 -0.49848308196E+01 -0.46359893658E+01  0.75983329977E+01  0.51100000000E-03 0.  1.
        -12    1    3    3    0    0 -0.21054191128E+02  0.63193272466E+01  0.47285552329E+01  0.22484930408E+02  0.00000000000E+00 0.  1.
</event>
<event>
 7    1  0.6198176E-013  0.5930196E+02  0.7816164E-02  0.1266605E+00
        -11   -1    0    0    0    0  0.00000000000E+00  0.00000000000E+00  0.45593999997E+02  0.45594000000E+02  0.51100000000E-03 0. -1.
         11   -1    0    0    0    0 -0.00000000000E+00 -0.00000000000E+00 -0.45593999997E+02  0.45594000000E+02  0.51100000000E-03 0.  1.
    9900012    2    1    2    0    0  0.13336605060E+02  0.28356361863E+02 -0.58967055850E+01  0.59301961842E+02  0.50000032489E+02 0.  0.
        -12    1    1    2    0    0 -0.13336605060E+02 -0.28356361863E+02  0.58967055850E+01  0.31886038158E+02  0.00000000000E+00 0.  1.
         11    1    3    3    0    0  0.56647268066E+01  0.20397595760E+02 -0.15062793044E+01  0.21223098741E+02  0.51100000000E-03 0. -1.
        -11    1    3    3    0    0  0.56115901226E+01  0.11111316082E+02  0.14331036486E+02  0.18982357487E+02  0.51100000000E-03 0.  1.
        -12    1    3    3    0    0  0.20602881307E+01 -0.31525499778E+01 -0.18721462766E+02  0.19096505614E+02  0.00000000000E+00 0.  1.
</event>
<event>
 7    1  0.6198176E-013  0.5930195E+02  0.7816164E-02  0.1266605E+00
        -11   -1    0    0    0    0  0.00000000000E+00  0.00000000000E+00  0.45593999997E+02  0.45594000000E+02  0.51100000000E-03 0.  1.
         11   -1    0    0    0    0 -0.00000000000E+00 -0.00000000000E+00 -0.45593999997E+02  0.45594000000E+02  0.51100000000E-03 0. -1.
    9900012    2    1    2    0    0  0.53045347787E+00  0.87480077555E+01 -0.30657967712E+02  0.59301952820E+02  0.50000016034E+02 0.  0.
        -12    1    1    2    0    0 -0.53045347787E+00 -0.87480077555E+01  0.30657967712E+02  0.31886047180E+02  0.00000000000E+00 0.  1.
         11    1    3    3    0    0  0.95735786006E+01 -0.63777532513E+01 -0.41421886123E+01  0.12226482344E+02  0.51100000000E-03 0. -1.
        -11    1    3    3    0    0  0.35640972698E+01  0.91221344704E+01  0.61401752657E+01  0.11559320015E+02  0.51100000000E-03 0.  1.
         12    1    3    3    0    0 -0.12607222393E+02  0.60036265364E+01 -0.32655954365E+02  0.35516150461E+02  0.00000000000E+00 0. -1.
</event>
<event>
 7    1  0.6198176E-013  0.5930180E+02  0.7816164E-02  0.1266605E+00
        -11   -1    0    0    0    0  0.00000000000E+00  0.00000000000E+00  0.45593999997E+02  0.45594000000E+02  0.51100000000E-03 0.  1.
         11   -1    0    0    0    0 -0.00000000000E+00 -0.00000000000E+00 -0.45593999997E+02  0.45594000000E+02  0.51100000000E-03 0. -1.
    9900012    2    1    2    0    0  0.29017658110E+02  0.10345019052E+02  0.82271596636E+01  0.59301795185E+02  0.49999728546E+02 0.  0.
        -12    1    1    2    0    0 -0.29017658110E+02 -0.10345019052E+02 -0.82271596636E+01  0.31886204815E+02  0.00000000000E+00 0.  1.
         11    1    3    3    0    0  0.15846940370E+02  0.39524544104E+01  0.98055675392E+01  0.19049844356E+02  0.51100000000E-03 0.  1.
        -11    1    3    3    0    0 -0.21548995438E+01 -0.12401640751E+02  0.71522387967E+01  0.14477527600E+02  0.51100000000E-03 0. -1.
         12    1    3    3    0    0  0.15325617284E+02  0.18794205392E+02 -0.87306466722E+01  0.25774423229E+02  0.00000000000E+00 0. -1.
</event>
<event>
 7    1  0.6198176E-013  0.5930194E+02  0.7816164E-02  0.1266605E+00
        -11   -1    0    0    0    0  0.00000000000E+00  0.00000000000E+00  0.45593999997E+02  0.45594000000E+02  0.51100000000E-03 0.  1.
         11   -1    0    0    0    0 -0.00000000000E+00 -0.00000000000E+00 -0.45593999997E+02  0.45594000000E+02  0.51100000000E-03 0. -1.
    9900012    2    1    2    0    0  0.16063643435E+00 -0.14453475406E+02 -0.28421686140E+02  0.59301937239E+02  0.49999987619E+02 0.  0.
        -12    1    1    2    0    0 -0.16063643435E+00  0.14453475406E+02  0.28421686140E+02  0.31886062761E+02  0.00000000000E+00 0.  1.
         11    1    3    3    0    0  0.12709431732E+01 -0.20976242946E+01 -0.88331665612E+01  0.91673418170E+01  0.51100000000E-03 0. -1.
        -11    1    3    3    0    0 -0.96401999841E+00  0.14334625440E+02 -0.18497357683E+02  0.23421423154E+02  0.51100000000E-03 0.  1.
        -12    1    3    3    0    0 -0.14628674044E+00 -0.26690476551E+02 -0.10911618954E+01  0.26713172268E+02  0.00000000000E+00 0.  1.
</event>
<event>
 7    1  0.6198176E-013  0.5930195E+02  0.7816164E-02  0.1266605E+00
        -11   -1    0    0    0    0  0.00000000000E+00  0.00000000000E+00  0.45593999997E+02  0.45594000000E+02  0.51100000000E-03 0.  1.
         11   -1    0    0    0    0 -0.00000000000E+00 -0.00000000000E+00 -0.45593999997E+02  0.45594000000E+02  0.51100000000E-03 0. -1.
    9900012    2    1    2    0    0 -0.11264258067E+02  0.20319909478E+01 -0.29760836265E+02  0.59301954899E+02  0.50000019826E+02 0.  0.
        -12    1    1    2    0    0  0.11264258067E+02 -0.20319909478E+01  0.29760836265E+02  0.31886045101E+02  0.00000000000E+00 0.  1.
         11    1    3    3    0    0  0.70193490514E+01 -0.67298175880E+01 -0.17692106771E+02  0.20188421140E+02  0.51100000000E-03 0. -1.
        -11    1    3    3    0    0 -0.58958200203E+01 -0.40950411295E+01  0.89904794156E+01  0.11504728417E+02  0.51100000000E-03 0.  1.
        -12    1    3    3    0    0 -0.12387787098E+02  0.12856849665E+02 -0.21059208910E+02  0.27608805342E+02  0.00000000000E+00 0.  1.
</event>
<event>
 7    1  0.6198176E-013  0.5930195E+02  0.7816164E-02  0.1266605E+00
        -11   -1    0    0    0    0  0.00000000000E+00  0.00000000000E+00  0.45593999997E+02  0.45594000000E+02  0.51100000000E-03 0.  1.
         11   -1    0    0    0    0 -0.00000000000E+00 -0.00000000000E+00 -0.45593999997E+02  0.45594000000E+02  0.51100000000E-03 0. -1.
    9900012    2    1    2    0    0  0.13165463269E+02 -0.28985389692E+02 -0.17994585856E+01  0.59301948349E+02  0.50000007882E+02 0.  0.
        -12    1    1    2    0    0 -0.13165463269E+02  0.28985389692E+02  0.17994585856E+01  0.31886051651E+02  0.00000000000E+00 0.  1.
         11    1    3    3    0    0  0.40455012203E+01  0.88212152154E+01 -0.90039109119E+01  0.13238214758E+02  0.51100000000E-03 0. -1.
        -11    1    3    3    0    0  0.25905976551E+00  0.27729282883E+01  0.33398168420E+01  0.43486342745E+01  0.51100000000E-03 0.  1.
         12    1    3    3    0    0  0.88609022834E+01 -0.40579533195E+02  0.38646354843E+01  0.41715099317E+02  0.00000000000E+00 0. -1.
</event>
<event>
 7    1  0.6198176E-013  0.5930195E+02  0.7816164E-02  0.1266605E+00
        -11   -1    0    0    0    0  0.00000000000E+00  0.00000000000E+00  0.45593999997E+02  0.45594000000E+02  0.51100000000E-03 0.  1.
         11   -1    0    0    0    0 -0.00000000000E+00 -0.00000000000E+00 -0.45593999997E+02  0.45594000000E+02  0.51100000000E-03 0. -1.
    9900012    2    1    2    0    0 -0.20845417105E+02  0.77330498370E+01 -0.22855823122E+02  0.59301950940E+02  0.50000012606E+02 0.  0.
        -12    1    1    2    0    0  0.20845417105E+02 -0.77330498370E+01  0.22855823122E+02  0.31886049060E+02  0.00000000000E+00 0.  1.
         11    1    3    3    0    0  0.11521130815E+02  0.41831622429E+01  0.29753115940E+01  0.12613000474E+02  0.51100000000E-03 0. -1.
        -11    1    3    3    0    0 -0.71277187277E+01  0.10437028160E+02 -0.69308761573E+01  0.14414332300E+02  0.51100000000E-03 0.  1.
        -12    1    3    3    0    0 -0.25238829193E+02 -0.68871405662E+01 -0.18900258559E+02  0.32274618166E+02  0.00000000000E+00 0.  1.
</event>
<event>
 7    1  0.6198176E-013  0.5930195E+02  0.7816164E-02  0.1266605E+00
        -11   -1    0    0    0    0  0.00000000000E+00  0.00000000000E+00  0.45593999997E+02  0.45594000000E+02  0.51100000000E-03 0.  1.
         11   -1    0    0    0    0 -0.00000000000E+00 -0.00000000000E+00 -0.45593999997E+02  0.45594000000E+02  0.51100000000E-03 0. -1.
    9900012    2    1    2    0    0  0.41716191887E+01 -0.31516645870E+02 -0.24533467115E+01  0.59301948447E+02  0.50000008059E+02 0.  0.
        -12    1    1    2    0    0 -0.41716191887E+01  0.31516645870E+02  0.24533467115E+01  0.31886051553E+02  0.00000000000E+00 0.  1.
         11    1    3    3    0    0  0.27436281907E+01 -0.14552087624E+02 -0.88445592820E+01  0.17248680501E+02  0.51100000000E-03 0. -1.
        -11    1    3    3    0    0  0.85315141713E+01 -0.26413812302E+02 -0.15685430903E+01  0.27801736314E+02  0.51100000000E-03 0.  1.
        -12    1    3    3    0    0 -0.71035231732E+01  0.94492540558E+01  0.79597556608E+01  0.14251531632E+02  0.00000000000E+00 0.  1.
</event>
<event>
 7    1  0.6198176E-013  0.5930193E+02  0.7816164E-02  0.1266605E+00
        -11   -1    0    0    0    0  0.00000000000E+00  0.00000000000E+00  0.45593999997E+02  0.45594000000E+02  0.51100000000E-03 0.  1.
         11   -1    0    0    0    0 -0.00000000000E+00 -0.00000000000E+00 -0.45593999997E+02  0.45594000000E+02  0.51100000000E-03 0. -1.
    9900012    2    1    2    0    0 -0.23030292359E+02 -0.20621364357E+02 -0.78157791847E+01  0.59301930341E+02  0.49999975038E+02 0.  0.
        -12    1    1    2    0    0  0.23030292359E+02  0.20621364357E+02  0.78157791847E+01  0.31886069659E+02  0.00000000000E+00 0.  1.
         11    1    3    3    0    0 -0.54645725428E+01  0.48557461450E+01 -0.16045258441E+01  0.74842719850E+01  0.51100000000E-03 0. -1.
        -11    1    3    3    0    0 -0.31068980076E+02 -0.19295946348E+02 -0.50692825608E+01  0.36923064531E+02  0.51100000000E-03 0.  1.
        -12    1    3    3    0    0  0.13503260260E+02 -0.61811641538E+01 -0.11419707799E+01  0.14894593825E+02  0.00000000000E+00 0.  1.
</event>
<event>
 7    1  0.6198176E-013  0.5930194E+02  0.7816164E-02  0.1266605E+00
        -11   -1    0    0    0    0  0.00000000000E+00  0.00000000000E+00  0.45593999997E+02  0.45594000000E+02  0.51100000000E-03 0.  1.
         11   -1    0    0    0    0 -0.00000000000E+00 -0.00000000000E+00 -0.45593999997E+02  0.45594000000E+02  0.51100000000E-03 0. -1.
    9900012    2    1    2    0    0  0.28642888673E+02 -0.11616998919E+02 -0.78326874910E+01  0.59301941467E+02  0.49999995331E+02 0.  0.
        -12    1    1    2    0    0 -0.28642888673E+02  0.11616998919E+02  0.78326874910E+01  0.31886058533E+02  0.00000000000E+00 0.  1.
         11    1    3    3    0    0  0.20032107075E+02  0.47387565347E+01 -0.63533774900E+01  0.21543131925E+02  0.51100000000E-03 0. -1.
        -11    1    3    3    0    0 -0.12613636949E+02 -0.44237531610E+01 -0.24453183365E-01  0.13366900438E+02  0.51100000000E-03 0.  1.
         12    1    3    3    0    0  0.21224418547E+02 -0.11932002293E+02 -0.14548568176E+01  0.24391909104E+02  0.00000000000E+00 0. -1.
</event>
<event>
 7    1  0.6198176E-013  0.5930186E+02  0.7816164E-02  0.1266605E+00
        -11   -1    0    0    0    0  0.00000000000E+00  0.00000000000E+00  0.45593999997E+02  0.45594000000E+02  0.51100000000E-03 0. -1.
         11   -1    0    0    0    0 -0.00000000000E+00 -0.00000000000E+00 -0.45593999997E+02  0.45594000000E+02  0.51100000000E-03 0.  1.
    9900012    2    1    2    0    0  0.50341283371E+01 -0.17852291685E+02  0.25936054091E+02  0.59301864011E+02  0.49999854068E+02 0.  0.
        -12    1    1    2    0    0 -0.50341283371E+01  0.17852291685E+02 -0.25936054091E+02  0.31886135989E+02  0.00000000000E+00 0.  1.
         11    1    3    3    0    0 -0.61878596468E+01 -0.27252625286E+01 -0.45812413025E+01  0.81672783099E+01  0.51100000000E-03 0. -1.
        -11    1    3    3    0    0 -0.61930053338E+01  0.90304192710E+01  0.11046657059E+02  0.15554112630E+02  0.51100000000E-03 0.  1.
        -12    1    3    3    0    0  0.17414993318E+02 -0.24157448427E+02  0.19470638335E+02  0.35580473070E+02  0.00000000000E+00 0.  1.
</event>
<event>
 7    1  0.6198176E-013  0.5930196E+02  0.7816164E-02  0.1266605E+00
        -11   -1    0    0    0    0  0.00000000000E+00  0.00000000000E+00  0.45593999997E+02  0.45594000000E+02  0.51100000000E-03 0.  1.
         11   -1    0    0    0    0 -0.00000000000E+00 -0.00000000000E+00 -0.45593999997E+02  0.45594000000E+02  0.51100000000E-03 0. -1.
    9900012    2    1    2    0    0  0.10612371646E+02 -0.38394513170E+01 -0.29822070093E+02  0.59301957866E+02  0.50000025237E+02 0.  0.
        -12    1    1    2    0    0 -0.10612371646E+02  0.38394513170E+01  0.29822070093E+02  0.31886042134E+02  0.00000000000E+00 0.  1.
         11    1    3    3    0    0  0.11656227058E+02  0.38350223874E+01  0.39564544585E+00  0.12277278261E+02  0.51100000000E-03 0. -1.
        -11    1    3    3    0    0 -0.83215237822E+01  0.12034264980E+02 -0.15858816751E+02  0.21577149039E+02  0.51100000000E-03 0.  1.
         12    1    3    3    0    0  0.72776683702E+01 -0.19708738685E+02 -0.14358898788E+02  0.25447530565E+02  0.00000000000E+00 0. -1.
</event>
<event>
 7    1  0.6198176E-013  0.5930194E+02  0.7816164E-02  0.1266605E+00
        -11   -1    0    0    0    0  0.00000000000E+00  0.00000000000E+00  0.45593999997E+02  0.45594000000E+02  0.51100000000E-03 0. -1.
         11   -1    0    0    0    0 -0.00000000000E+00 -0.00000000000E+00 -0.45593999997E+02  0.45594000000E+02  0.51100000000E-03 0.  1.
    9900012    2    1    2    0    0  0.15651769172E+01  0.30092997230E+02 -0.10425085215E+02  0.59301942501E+02  0.49999997216E+02 0.  0.
        -12    1    1    2    0    0 -0.15651769172E+01 -0.30092997230E+02  0.10425085215E+02  0.31886057499E+02  0.00000000000E+00 0.  1.
         11    1    3    3    0    0  0.11241014680E+02  0.26022860545E+02 -0.12764371634E+01  0.28375675746E+02  0.51100000000E-03 0. -1.
        -11    1    3    3    0    0  0.50867029817E+01  0.11780028875E+02 -0.30383293846E+01  0.13186169771E+02  0.51100000000E-03 0.  1.
        -12    1    3    3    0    0 -0.14762540744E+02 -0.77098921893E+01 -0.61103186669E+01  0.17740096984E+02  0.00000000000E+00 0.  1.
</event>
<event>
 7    1  0.6198176E-013  0.5930195E+02  0.7816164E-02  0.1266605E+00
        -11   -1    0    0    0    0  0.00000000000E+00  0.00000000000E+00  0.45593999997E+02  0.45594000000E+02  0.51100000000E-03 0. -1.
         11   -1    0    0    0    0 -0.00000000000E+00 -0.00000000000E+00 -0.45593999997E+02  0.45594000000E+02  0.51100000000E-03 0.  1.
    9900012    2    1    2    0    0  0.59586685640E-01 -0.63663476837E+01  0.31243977883E+02  0.59301951525E+02  0.50000013672E+02 0.  0.
        -12    1    1    2    0    0 -0.59586685640E-01  0.63663476837E+01 -0.31243977883E+02  0.31886048475E+02  0.00000000000E+00 0.  1.
         11    1    3    3    0    0 -0.11254124710E+02 -0.88178518869E+01  0.26550232368E+01  0.14541629329E+02  0.51100000000E-03 0. -1.
        -11    1    3    3    0    0  0.73193580741E+01 -0.40163289014E+01 -0.53925016341E+01  0.99389624507E+01  0.51100000000E-03 0.  1.
         12    1    3    3    0    0  0.39943533217E+01  0.64678331046E+01  0.33981456281E+02  0.34821359745E+02  0.00000000000E+00 0. -1.
</event>
<event>
 7    1  0.6198176E-013  0.5930192E+02  0.7816164E-02  0.1266605E+00
        -11   -1    0    0    0    0  0.00000000000E+00  0.00000000000E+00  0.45593999997E+02  0.45594000000E+02  0.51100000000E-03 0. -1.
         11   -1    0    0    0    0 -0.00000000000E+00 -0.00000000000E+00 -0.45593999997E+02  0.45594000000E+02  0.51100000000E-03 0.  1.
    9900012    2    1    2    0    0  0.25875544544E+02  0.90368898938E+01  0.16294575192E+02  0.59301915808E+02  0.49999948534E+02 0.  0.
        -12    1    1    2    0    0 -0.25875544544E+02 -0.90368898938E+01 -0.16294575192E+02  0.31886084192E+02  0.00000000000E+00 0.  1.
         11    1    3    3    0    0 -0.49325499323E+01  0.23242793630E+00  0.13029575485E+02  0.13933912199E+02  0.51100000000E-03 0. -1.
        -11    1    3    3    0    0  0.55053996140E+00 -0.75958766278E+01  0.75038718068E+01  0.10691516653E+02  0.51100000000E-03 0.  1.
         12    1    3    3    0    0  0.30257554515E+02  0.16400338585E+02 -0.42388720994E+01  0.34676486956E+02  0.00000000000E+00 0. -1.
</event>
<event>
 7    1  0.6198176E-013  0.5930195E+02  0.7816164E-02  0.1266605E+00
        -11   -1    0    0    0    0  0.00000000000E+00  0.00000000000E+00  0.45593999997E+02  0.45594000000E+02  0.51100000000E-03 0.  1.
         11   -1    0    0    0    0 -0.00000000000E+00 -0.00000000000E+00 -0.45593999997E+02  0.45594000000E+02  0.51100000000E-03 0. -1.
    9900012    2    1    2    0    0 -0.30018384581E+02  0.47472231531E+01 -0.96478283132E+01  0.59301950830E+02  0.50000012406E+02 0.  0.
        -12    1    1    2    0    0  0.30018384581E+02 -0.47472231531E+01  0.96478283132E+01  0.31886049170E+02  0.00000000000E+00 0.  1.
         11    1    3    3    0    0 -0.30329463006E+01  0.20200413412E+02 -0.10827651475E+02  0.23119115511E+02  0.51100000000E-03 0. -1.
        -11    1    3    3    0    0 -0.11132625412E+02 -0.15011067511E+01  0.82227825701E+01  0.13921308254E+02  0.51100000000E-03 0.  1.
        -12    1    3    3    0    0 -0.15852812868E+02 -0.13952083508E+02 -0.70429594080E+01  0.22261527065E+02  0.00000000000E+00 0.  1.
</event>
<event>
 7    1  0.6198176E-013  0.5930193E+02  0.7816164E-02  0.1266605E+00
        -11   -1    0    0    0    0  0.00000000000E+00  0.00000000000E+00  0.45593999997E+02  0.45594000000E+02  0.51100000000E-03 0. -1.
         11   -1    0    0    0    0 -0.00000000000E+00 -0.00000000000E+00 -0.45593999997E+02  0.45594000000E+02  0.51100000000E-03 0.  1.
    9900012    2    1    2    0    0 -0.24915234393E+02 -0.19851129851E+02  0.13730542049E+01  0.59301928761E+02  0.49999972158E+02 0.  0.
        -12    1    1    2    0    0  0.24915234393E+02  0.19851129851E+02 -0.13730542049E+01  0.31886071239E+02  0.00000000000E+00 0.  1.
         11    1    3    3    0    0 -0.15778346173E+02 -0.34940392838E-01  0.12161619654E+02  0.19921406116E+02  0.51100000000E-03 0.  1.
        -11    1    3    3    0    0 -0.90646736753E+01  0.21958099915E+01  0.65187947080E+01  0.11379128924E+02  0.51100000000E-03 0. -1.
         12    1    3    3    0    0 -0.72214544693E-01 -0.22011999449E+02 -0.17307360157E+02  0.28001393721E+02  0.00000000000E+00 0. -1.
</event>
<event>
 7    1  0.6198176E-013  0.5930194E+02  0.7816164E-02  0.1266605E+00
        -11   -1    0    0    0    0  0.00000000000E+00  0.00000000000E+00  0.45593999997E+02  0.45594000000E+02  0.51100000000E-03 0.  1.
         11   -1    0    0    0    0 -0.00000000000E+00 -0.00000000000E+00 -0.45593999997E+02  0.45594000000E+02  0.51100000000E-03 0. -1.
    9900012    2    1    2    0    0  0.35869895614E+01  0.31398185512E+02  0.42436241791E+01  0.59301938881E+02  0.49999990613E+02 0.  0.
        -12    1    1    2    0    0 -0.35869895614E+01 -0.31398185512E+02 -0.42436241791E+01  0.31886061119E+02  0.00000000000E+00 0.  1.
         11    1    3    3    0    0 -0.49032781495E+01  0.32511546869E+02  0.97157805101E+01  0.34284678905E+02  0.51100000000E-03 0. -1.
        -11    1    3    3    0    0  0.91389568485E+01 -0.22770234521E+01  0.74611119272E+01  0.12015554899E+02  0.51100000000E-03 0.  1.
         12    1    3    3    0    0 -0.64868913762E+00  0.11636620947E+01 -0.12933268258E+02  0.13001705077E+02  0.00000000000E+00 0. -1.
</event>
<event>
 7    1  0.6198176E-013  0.5930194E+02  0.7816164E-02  0.1266605E+00
        -11   -1    0    0    0    0  0.00000000000E+00  0.00000000000E+00  0.45593999997E+02  0.45594000000E+02  0.51100000000E-03 0.  1.
         11   -1    0    0    0    0 -0.00000000000E+00 -0.00000000000E+00 -0.45593999997E+02  0.45594000000E+02  0.51100000000E-03 0. -1.
    9900012    2    1    2    0    0 -0.44062013824E+01  0.18550159747E+02 -0.25557738647E+02  0.59301936555E+02  0.49999986372E+02 0.  0.
        -12    1    1    2    0    0  0.44062013824E+01 -0.18550159747E+02  0.25557738647E+02  0.31886063445E+02  0.00000000000E+00 0.  1.
         11    1    3    3    0    0  0.39821689885E+01  0.15911977073E+02 -0.10550069532E+02  0.19502631915E+02  0.51100000000E-03 0. -1.
        -11    1    3    3    0    0 -0.22155408047E+01 -0.19704607416E+01 -0.26114596553E+02  0.26282379839E+02  0.51100000000E-03 0.  1.
        -12    1    3    3    0    0 -0.61728295662E+01  0.46086434154E+01  0.11106927438E+02  0.13516924802E+02  0.00000000000E+00 0.  1.
</event>
<event>
 7    1  0.6198176E-013  0.5930193E+02  0.7816164E-02  0.1266605E+00
        -11   -1    0    0    0    0  0.00000000000E+00  0.00000000000E+00  0.45593999997E+02  0.45594000000E+02  0.51100000000E-03 0. -1.
         11   -1    0    0    0    0 -0.00000000000E+00 -0.00000000000E+00 -0.45593999997E+02  0.45594000000E+02  0.51100000000E-03 0.  1.
    9900012    2    1    2    0    0  0.47071099477E+00 -0.20895281029E+02  0.24080843058E+02  0.59301931875E+02  0.49999977835E+02 0.  0.
        -12    1    1    2    0    0 -0.47071099477E+00  0.20895281029E+02 -0.24080843058E+02  0.31886068125E+02  0.00000000000E+00 0.  1.
         11    1    3    3    0    0 -0.84879125708E+01 -0.13360696763E+01  0.72694634668E+00  0.86231196931E+01  0.51100000000E-03 0. -1.
        -11    1    3    3    0    0 -0.53836478036E+01  0.10170243648E+02  0.93326387071E+01  0.14816061050E+02  0.51100000000E-03 0.  1.
         12    1    3    3    0    0  0.14342271369E+02 -0.29729455001E+02  0.14021258004E+02  0.35862751131E+02  0.00000000000E+00 0. -1.
</event>
<event>
 7    1  0.6198176E-013  0.5930192E+02  0.7816164E-02  0.1266605E+00
        -11   -1    0    0    0    0  0.00000000000E+00  0.00000000000E+00  0.45593999997E+02  0.45594000000E+02  0.51100000000E-03 0. -1.
         11   -1    0    0    0    0 -0.00000000000E+00 -0.00000000000E+00 -0.45593999997E+02  0.45594000000E+02  0.51100000000E-03 0.  1.
    9900012    2    1    2    0    0  0.18790398854E+02  0.11342996105E+02 -0.23129623440E+02  0.59301919491E+02  0.49999955252E+02 0.  0.
        -12    1    1    2    0    0 -0.18790398854E+02 -0.11342996105E+02  0.23129623440E+02  0.31886080509E+02  0.00000000000E+00 0.  1.
         11    1    3    3    0    0  0.76243326254E+01  0.76293629883E+00  0.65059980091E+01  0.10051891868E+02  0.51100000000E-03 0.  1.
        -11    1    3    3    0    0 -0.15998159026E+01 -0.57501148422E+01  0.57196425284E+01  0.82666524382E+01  0.51100000000E-03 0. -1.
        -12    1    3    3    0    0  0.12765882131E+02  0.16330174648E+02 -0.35355263978E+02  0.40983375185E+02  0.00000000000E+00 0.  1.
</event>
<event>
 7    1  0.6198176E-013  0.5930197E+02  0.7816164E-02  0.1266605E+00
        -11   -1    0    0    0    0  0.00000000000E+00  0.00000000000E+00  0.45593999997E+02  0.45594000000E+02  0.51100000000E-03 0.  1.
         11   -1    0    0    0    0 -0.00000000000E+00 -0.00000000000E+00 -0.45593999997E+02  0.45594000000E+02  0.51100000000E-03 0. -1.
    9900012    2    1    2    0    0  0.64017079994E+01 -0.29748896338E+02 -0.95257821663E+01  0.59301965055E+02  0.50000038348E+02 0.  0.
        -12    1    1    2    0    0 -0.64017079994E+01  0.29748896338E+02  0.95257821663E+01  0.31886034945E+02  0.00000000000E+00 0.  1.
         11    1    3    3    0    0  0.80844508018E+01 -0.16482869873E+02 -0.23739679338E+02  0.30010260234E+02  0.51100000000E-03 0. -1.
        -11    1    3    3    0    0 -0.70799958380E+00  0.49179908822E+01 -0.15514780068E+01  0.52052840455E+01  0.51100000000E-03 0.  1.
        -12    1    3    3    0    0 -0.97474321862E+00 -0.18184017347E+02  0.15765375178E+02  0.24086420775E+02  0.00000000000E+00 0.  1.
</event>
<event>
 7    1  0.6198176E-013  0.5930195E+02  0.7816164E-02  0.1266605E+00
        -11   -1    0    0    0    0  0.00000000000E+00  0.00000000000E+00  0.45593999997E+02  0.45594000000E+02  0.51100000000E-03 0.  1.
         11   -1    0    0    0    0 -0.00000000000E+00 -0.00000000000E+00 -0.45593999997E+02  0.45594000000E+02  0.51100000000E-03 0. -1.
    9900012    2    1    2    0    0 -0.27115693263E+02  0.36568031591E+01 -0.16373368127E+02  0.59301949534E+02  0.50000010042E+02 0.  0.
        -12    1    1    2    0    0  0.27115693263E+02 -0.36568031591E+01  0.16373368127E+02  0.31886050466E+02  0.00000000000E+00 0.  1.
         11    1    3    3    0    0 -0.15324355242E+02  0.21933747942E+00 -0.16324066856E+02  0.22391050255E+02  0.51100000000E-03 0. -1.
        -11    1    3    3    0    0  0.87264920712E+01 -0.75306116926E+00 -0.10361977371E+02  0.13567952693E+02  0.51100000000E-03 0.  1.
        -12    1    3    3    0    0 -0.20517830092E+02  0.41905268489E+01  0.10312676100E+02  0.23342946586E+02  0.00000000000E+00 0.  1.
</event>
<event>
 7    1  0.6198176E-013  0.5930194E+02  0.7816164E-02  0.1266605E+00
        -11   -1    0    0    0    0  0.00000000000E+00  0.00000000000E+00  0.45593999997E+02  0.45594000000E+02  0.51100000000E-03 0. -1.
         11   -1    0    0    0    0 -0.00000000000E+00 -0.00000000000E+00 -0.45593999997E+02  0.45594000000E+02  0.51100000000E-03 0.  1.
    9900012    2    1    2    0    0  0.37507216880E+01  0.30112932081E+02  0.97910240395E+01  0.59301941237E+02  0.49999994910E+02 0.  0.
        -12    1    1    2    0    0 -0.37507216880E+01 -0.30112932081E+02 -0.97910240395E+01  0.31886058763E+02  0.00000000000E+00 0.  1.
         11    1    3    3    0    0 -0.25585993078E+01 -0.89974231692E+01 -0.18117111584E+01  0.95279773134E+01  0.51100000000E-03 0. -1.
        -11    1    3    3    0    0 -0.87438638082E+01  0.62677038238E+01 -0.24077486549E+01  0.11024360270E+02  0.51100000000E-03 0.  1.
         12    1    3    3    0    0  0.15053184804E+02  0.32842651427E+02  0.14010483853E+02  0.38749603653E+02  0.00000000000E+00 0. -1.
</event>
<event>
 7    1  0.6198176E-013  0.5930196E+02  0.7816164E-02  0.1266605E+00
        -11   -1    0    0    0    0  0.00000000000E+00  0.00000000000E+00  0.45593999997E+02  0.45594000000E+02  0.51100000000E-03 0. -1.
         11   -1    0    0    0    0 -0.00000000000E+00 -0.00000000000E+00 -0.45593999997E+02  0.45594000000E+02  0.51100000000E-03 0.  1.
    9900012    2    1    2    0    0 -0.15134623225E+02  0.12366118790E+02  0.25194084208E+02  0.59301959274E+02  0.50000027805E+02 0.  0.
        -12    1    1    2    0    0  0.15134623225E+02 -0.12366118790E+02 -0.25194084208E+02  0.31886040726E+02  0.00000000000E+00 0.  1.
         11    1    3    3    0    0 -0.70556273801E+01 -0.40310963244E+01  0.65278690977E+00  0.81521620638E+01  0.51100000000E-03 0. -1.
        -11    1    3    3    0    0  0.13020689591E+01 -0.52681614081E+01 -0.87743603408E+01  0.10316894293E+02  0.51100000000E-03 0.  1.
         12    1    3    3    0    0 -0.93810648037E+01  0.21665376523E+02  0.33315657639E+02  0.40832902917E+02  0.00000000000E+00 0. -1.
</event>
<event>
 7    1  0.6198176E-013  0.5930191E+02  0.7816164E-02  0.1266605E+00
        -11   -1    0    0    0    0  0.00000000000E+00  0.00000000000E+00  0.45593999997E+02  0.45594000000E+02  0.51100000000E-03 0.  1.
         11   -1    0    0    0    0 -0.00000000000E+00 -0.00000000000E+00 -0.45593999997E+02  0.45594000000E+02  0.51100000000E-03 0. -1.
    9900012    2    1    2    0    0 -0.80160258869E+01 -0.30386290535E+02  0.53980809397E+01  0.59301912103E+02  0.49999941777E+02 0.  0.
        -12    1    1    2    0    0  0.80160258869E+01  0.30386290535E+02 -0.53980809397E+01  0.31886087897E+02  0.00000000000E+00 0.  1.
         11    1    3    3    0    0 -0.14815913069E+02 -0.23570827827E+02 -0.89679187704E+01  0.29249252501E+02  0.51100000000E-03 0. -1.
        -11    1    3    3    0    0 -0.63706248066E+01 -0.60780686757E+01  0.14379946605E+02  0.16861513689E+02  0.51100000000E-03 0.  1.
        -12    1    3    3    0    0  0.13170511989E+02 -0.73739403244E+00 -0.13946894769E-01  0.13191145914E+02  0.00000000000E+00 0.  1.
</event>
<event>
 7    1  0.6198176E-013  0.5930196E+02  0.7816164E-02  0.1266605E+00
        -11   -1    0    0    0    0  0.00000000000E+00  0.00000000000E+00  0.45593999997E+02  0.45594000000E+02  0.51100000000E-03 0.  1.
         11   -1    0    0    0    0 -0.00000000000E+00 -0.00000000000E+00 -0.45593999997E+02  0.45594000000E+02  0.51100000000E-03 0. -1.
    9900012    2    1    2    0    0 -0.55802031258E+01 -0.41578621567E+00 -0.31391211450E+02  0.59301957577E+02  0.50000024710E+02 0.  0.
        -12    1    1    2    0    0  0.55802031258E+01  0.41578621567E+00  0.31391211450E+02  0.31886042423E+02  0.00000000000E+00 0.  1.
         11    1    3    3    0    0  0.37782002292E+01 -0.53875259561E+01 -0.33225234650E+02  0.33870583855E+02  0.51100000000E-03 0. -1.
        -11    1    3    3    0    0 -0.22368879397E+01 -0.89902403990E+01  0.29384678987E+01  0.97191915270E+01  0.51100000000E-03 0.  1.
        -12    1    3    3    0    0 -0.71215154153E+01  0.13961980139E+02 -0.11044446996E+01  0.15712182195E+02  0.00000000000E+00 0.  1.
</event>
<event>
 7    1  0.6198176E-013  0.5930194E+02  0.7816164E-02  0.1266605E+00
        -11   -1    0    0    0    0  0.00000000000E+00  0.00000000000E+00  0.45593999997E+02  0.45594000000E+02  0.51100000000E-03 0. -1.
         11   -1    0    0    0    0 -0.00000000000E+00 -0.00000000000E+00 -0.45593999997E+02  0.45594000000E+02  0.51100000000E-03 0.  1.
    9900012    2    1    2    0    0 -0.93167706086E+01  0.28095029036E+02  0.11856981293E+02  0.59301939151E+02  0.49999991106E+02 0.  0.
        -12    1    1    2    0    0  0.93167706086E+01 -0.28095029036E+02 -0.11856981293E+02  0.31886060849E+02  0.00000000000E+00 0.  1.
         11    1    3    3    0    0  0.22447231154E+01  0.44550474989E+01  0.66754758288E+01  0.83335591366E+01  0.51100000000E-03 0. -1.
        -11    1    3    3    0    0  0.72730348588E+01 -0.74348262271E+01 -0.71213741186E+01  0.12605064327E+02  0.51100000000E-03 0.  1.
         12    1    3    3    0    0 -0.18834528583E+02  0.31074807764E+02  0.12302879583E+02  0.38363315687E+02  0.00000000000E+00 0. -1.
</event>
<event>
 7    1  0.6198176E-013  0.5930195E+02  0.7816164E-02  0.1266605E+00
        -11   -1    0    0    0    0  0.00000000000E+00  0.00000000000E+00  0.45593999997E+02  0.45594000000E+02  0.51100000000E-03 0.  1.
         11   -1    0    0    0    0 -0.00000000000E+00 -0.00000000000E+00 -0.45593999997E+02  0.45594000000E+02  0.51100000000E-03 0. -1.
    9900012    2    1    2    0    0  0.20047729671E+01 -0.18990457050E+02 -0.25535531171E+02  0.59301954059E+02  0.50000018294E+02 0.  0.
        -12    1    1    2    0    0 -0.20047729671E+01  0.18990457050E+02  0.25535531171E+02  0.31886045941E+02  0.00000000000E+00 0.  1.
         11    1    3    3    0    0  0.84898162913E+01 -0.10789327655E+02 -0.47333465601E+01  0.14522091510E+02  0.51100000000E-03 0. -1.
        -11    1    3    3    0    0  0.13211260434E+02  0.34791563354E+01  0.26455341646E+00  0.13664257017E+02  0.51100000000E-03 0.  1.
         12    1    3    3    0    0 -0.19696303758E+02 -0.11680285730E+02 -0.21066738027E+02  0.31115605531E+02  0.00000000000E+00 0. -1.
</event>
<event>
 7    1  0.6198176E-013  0.5930186E+02  0.7816164E-02  0.1266605E+00
        -11   -1    0    0    0    0  0.00000000000E+00  0.00000000000E+00  0.45593999997E+02  0.45594000000E+02  0.51100000000E-03 0. -1.
         11   -1    0    0    0    0 -0.00000000000E+00 -0.00000000000E+00 -0.45593999997E+02  0.45594000000E+02  0.51100000000E-03 0.  1.
    9900012    2    1    2    0    0  0.19530609960E+02 -0.20476629577E+02 -0.14696560139E+02  0.59301859372E+02  0.49999845609E+02 0.  0.
        -12    1    1    2    0    0 -0.19530609960E+02  0.20476629577E+02  0.14696560139E+02  0.31886140628E+02  0.00000000000E+00 0.  1.
         11    1    3    3    0    0  0.36176837436E+01 -0.17881469788E+01 -0.67575876097E+01  0.78708383194E+01  0.51100000000E-03 0. -1.
        -11    1    3    3    0    0  0.13606833545E+01  0.13330117718E+02 -0.91738366102E+01  0.16238927796E+02  0.51100000000E-03 0.  1.
         12    1    3    3    0    0  0.14552242861E+02 -0.32018600316E+02  0.12348640809E+01  0.35192093257E+02  0.00000000000E+00 0. -1.
</event>
<event>
 7    1  0.6198176E-013  0.5930195E+02  0.7816164E-02  0.1266605E+00
        -11   -1    0    0    0    0  0.00000000000E+00  0.00000000000E+00  0.45593999997E+02  0.45594000000E+02  0.51100000000E-03 0. -1.
         11   -1    0    0    0    0 -0.00000000000E+00 -0.00000000000E+00 -0.45593999997E+02  0.45594000000E+02  0.51100000000E-03 0.  1.
    9900012    2    1    2    0    0  0.16221748743E+02 -0.23151311758E+01 -0.27353524545E+02  0.59301948666E+02  0.50000008460E+02 0.  0.
        -12    1    1    2    0    0 -0.16221748743E+02  0.23151311758E+01  0.27353524545E+02  0.31886051334E+02  0.00000000000E+00 0.  1.
         11    1    3    3    0    0  0.22788055197E+02 -0.15774791486E+01 -0.47798448102E+01  0.23337326685E+02  0.51100000000E-03 0. -1.
        -11    1    3    3    0    0  0.39508960814E+00  0.12449032893E+02 -0.65368093443E+01  0.14066427849E+02  0.51100000000E-03 0.  1.
         12    1    3    3    0    0 -0.69613960630E+01 -0.13186684920E+02 -0.16036870390E+02  0.21898194132E+02  0.00000000000E+00 0. -1.
</event>
<event>
 7    1  0.6198176E-013  0.5930195E+02  0.7816164E-02  0.1266605E+00
        -11   -1    0    0    0    0  0.00000000000E+00  0.00000000000E+00  0.45593999997E+02  0.45594000000E+02  0.51100000000E-03 0.  1.
         11   -1    0    0    0    0 -0.00000000000E+00 -0.00000000000E+00 -0.45593999997E+02  0.45594000000E+02  0.51100000000E-03 0. -1.
    9900012    2    1    2    0    0  0.13850181558E+02  0.42432937882E+01 -0.28405762364E+02  0.59301946515E+02  0.50000004537E+02 0.  0.
        -12    1    1    2    0    0 -0.13850181558E+02 -0.42432937882E+01  0.28405762364E+02  0.31886053485E+02  0.00000000000E+00 0.  1.
         11    1    3    3    0    0  0.15461325353E+02  0.61610066686E+01 -0.23930903242E+01  0.16814799030E+02  0.51100000000E-03 0. -1.
        -11    1    3    3    0    0  0.51344157938E+01  0.25534312880E+01  0.66823348485E+01  0.88054435535E+01  0.51100000000E-03 0.  1.
         12    1    3    3    0    0 -0.67455595890E+01 -0.44711441683E+01 -0.32695006888E+02  0.33681703932E+02  0.00000000000E+00 0. -1.
</event>
<event>
 7    1  0.6198176E-013  0.5930191E+02  0.7816164E-02  0.1266605E+00
        -11   -1    0    0    0    0  0.00000000000E+00  0.00000000000E+00  0.45593999997E+02  0.45594000000E+02  0.51100000000E-03 0. -1.
         11   -1    0    0    0    0 -0.00000000000E+00 -0.00000000000E+00 -0.45593999997E+02  0.45594000000E+02  0.51100000000E-03 0.  1.
    9900012    2    1    2    0    0  0.17672077701E+02  0.19137877285E+01  0.26471827166E+02  0.59301912952E+02  0.49999943324E+02 0.  0.
        -12    1    1    2    0    0 -0.17672077701E+02 -0.19137877285E+01 -0.26471827166E+02  0.31886087048E+02  0.00000000000E+00 0.  1.
         11    1    3    3    0    0  0.81190485209E+01  0.53928067602E+01 -0.12072637131E+01  0.98213440817E+01  0.51100000000E-03 0. -1.
        -11    1    3    3    0    0  0.19905567268E+02 -0.15372393439E+02  0.18647085053E+02  0.31309038144E+02  0.51100000000E-03 0.  1.
        -12    1    3    3    0    0 -0.10352538088E+02  0.11893374407E+02  0.90320058268E+01  0.18171530726E+02  0.00000000000E+00 0.  1.
</event>
<event>
 7    1  0.6198176E-013  0.5930198E+02  0.7816164E-02  0.1266605E+00
        -11   -1    0    0    0    0  0.00000000000E+00  0.00000000000E+00  0.45593999997E+02  0.45594000000E+02  0.51100000000E-03 0.  1.
         11   -1    0    0    0    0 -0.00000000000E+00 -0.00000000000E+00 -0.45593999997E+02  0.45594000000E+02  0.51100000000E-03 0. -1.
    9900012    2    1    2    0    0 -0.25095681504E+02 -0.15596889181E+02 -0.11985917229E+02  0.59301978077E+02  0.50000062098E+02 0.  0.
        -12    1    1    2    0    0  0.25095681504E+02  0.15596889181E+02  0.11985917229E+02  0.31886021923E+02  0.00000000000E+00 0.  1.
         11    1    3    3    0    0 -0.12970139282E+02  0.41135722143E+01 -0.82890790659E+01  0.15932822141E+02  0.51100000000E-03 0. -1.
        -11    1    3    3    0    0  0.11622905928E+02  0.96318064064E+00 -0.20354686947E+01  0.11839036795E+02  0.51100000000E-03 0.  1.
        -12    1    3    3    0    0 -0.23748448150E+02 -0.20673642035E+02 -0.16613694687E+01  0.31530119141E+02  0.00000000000E+00 0.  1.
</event>
<event>
 7    1  0.6198176E-013  0.5930195E+02  0.7816164E-02  0.1266605E+00
        -11   -1    0    0    0    0  0.00000000000E+00  0.00000000000E+00  0.45593999997E+02  0.45594000000E+02  0.51100000000E-03 0. -1.
         11   -1    0    0    0    0 -0.00000000000E+00 -0.00000000000E+00 -0.45593999997E+02  0.45594000000E+02  0.51100000000E-03 0.  1.
    9900012    2    1    2    0    0  0.45702552947E+01 -0.31384558081E+02 -0.32928318687E+01  0.59301945664E+02  0.50000002984E+02 0.  0.
        -12    1    1    2    0    0 -0.45702552947E+01  0.31384558081E+02  0.32928318687E+01  0.31886054336E+02  0.00000000000E+00 0.  1.
         11    1    3    3    0    0 -0.40647918177E+01 -0.17152249734E+02 -0.18099534404E+02  0.25264903510E+02  0.51100000000E-03 0. -1.
        -11    1    3    3    0    0 -0.81676505366E+01 -0.98326155380E+01  0.32979599014E+01  0.13201037208E+02  0.51100000000E-03 0.  1.
         12    1    3    3    0    0  0.16802697649E+02 -0.43996928092E+01  0.11508742634E+02  0.20836004946E+02  0.00000000000E+00 0. -1.
</event>
<event>
 7    1  0.6198176E-013  0.5930192E+02  0.7816164E-02  0.1266605E+00
        -11   -1    0    0    0    0  0.00000000000E+00  0.00000000000E+00  0.45593999997E+02  0.45594000000E+02  0.51100000000E-03 0.  1.
         11   -1    0    0    0    0 -0.00000000000E+00 -0.00000000000E+00 -0.45593999997E+02  0.45594000000E+02  0.51100000000E-03 0. -1.
    9900012    2    1    2    0    0 -0.13027898545E+02  0.28683070979E+02 -0.49271900304E+01  0.59301923056E+02  0.49999961752E+02 0.  0.
        -12    1    1    2    0    0  0.13027898545E+02 -0.28683070979E+02  0.49271900304E+01  0.31886076944E+02  0.00000000000E+00 0.  1.
         11    1    3    3    0    0 -0.77292294242E+01  0.26875547907E+02 -0.15658234912E+01  0.28008710542E+02  0.51100000000E-03 0. -1.
        -11    1    3    3    0    0  0.10593118432E+02  0.48136832432E+01  0.54792611312E+01  0.12861104435E+02  0.51100000000E-03 0.  1.
         12    1    3    3    0    0 -0.15891787553E+02 -0.30061601705E+01 -0.88406276703E+01  0.18432108078E+02  0.00000000000E+00 0. -1.
</event>
<event>
 7    1  0.6198176E-013  0.5930193E+02  0.7816164E-02  0.1266605E+00
        -11   -1    0    0    0    0  0.00000000000E+00  0.00000000000E+00  0.45593999997E+02  0.45594000000E+02  0.51100000000E-03 0.  1.
         11   -1    0    0    0    0 -0.00000000000E+00 -0.00000000000E+00 -0.45593999997E+02  0.45594000000E+02  0.51100000000E-03 0. -1.
    9900012    2    1    2    0    0  0.21179104845E+02 -0.11758840302E+02  0.20733945428E+02  0.59301932505E+02  0.49999978985E+02 0.  0.
        -12    1    1    2    0    0 -0.21179104845E+02  0.11758840302E+02 -0.20733945428E+02  0.31886067495E+02  0.00000000000E+00 0.  1.
         11    1    3    3    0    0  0.18347451744E+02 -0.14586734569E+02 -0.81683278586E+01  0.24821832953E+02  0.51100000000E-03 0. -1.
        -11    1    3    3    0    0  0.67717664787E+01  0.19365456006E+01  0.20638847193E+01  0.73393903358E+01  0.51100000000E-03 0.  1.
        -12    1    3    3    0    0 -0.39401133779E+01  0.89134866606E+00  0.26838388567E+02  0.27140709216E+02  0.00000000000E+00 0.  1.
</event>
<event>
 7    1  0.6198176E-013  0.5930194E+02  0.7816164E-02  0.1266605E+00
        -11   -1    0    0    0    0  0.00000000000E+00  0.00000000000E+00  0.45593999997E+02  0.45594000000E+02  0.51100000000E-03 0.  1.
         11   -1    0    0    0    0 -0.00000000000E+00 -0.00000000000E+00 -0.45593999997E+02  0.45594000000E+02  0.51100000000E-03 0. -1.
    9900012    2    1    2    0    0  0.44176138281E+01 -0.30083846514E+02 -0.96004097601E+01  0.59301937205E+02  0.49999987557E+02 0.  0.
        -12    1    1    2    0    0 -0.44176138281E+01  0.30083846514E+02  0.96004097601E+01  0.31886062795E+02  0.00000000000E+00 0.  1.
         11    1    3    3    0    0  0.96558516684E+01 -0.45375989526E+01 -0.17652234558E+01  0.10813939606E+02  0.51100000000E-03 0.  1.
        -11    1    3    3    0    0  0.72939520621E+01  0.12801042911E+01 -0.16121579797E+02  0.17741074914E+02  0.51100000000E-03 0. -1.
         12    1    3    3    0    0 -0.12532189902E+02 -0.26826351853E+02  0.82863934928E+01  0.30746922685E+02  0.00000000000E+00 0. -1.
</event>
<event>
 7    1  0.6198176E-013  0.5930194E+02  0.7816164E-02  0.1266605E+00
        -11   -1    0    0    0    0  0.00000000000E+00  0.00000000000E+00  0.45593999997E+02  0.45594000000E+02  0.51100000000E-03 0. -1.
         11   -1    0    0    0    0 -0.00000000000E+00 -0.00000000000E+00 -0.45593999997E+02  0.45594000000E+02  0.51100000000E-03 0.  1.
    9900012    2    1    2    0    0 -0.18237549758E+02  0.25113199510E+02  0.73102368415E+01  0.59301943902E+02  0.49999999770E+02 0.  0.
        -12    1    1    2    0    0  0.18237549758E+02 -0.25113199510E+02 -0.73102368415E+01  0.31886056098E+02  0.00000000000E+00 0.  1.
         11    1    3    3    0    0  0.62336144474E+01  0.27306338275E+01 -0.11981960526E+01  0.69101363388E+01  0.51100000000E-03 0. -1.
        -11    1    3    3    0    0 -0.22195000154E+00 -0.10100909558E+02 -0.24583026605E+01  0.10398119442E+02  0.51100000000E-03 0.  1.
         12    1    3    3    0    0 -0.24249214204E+02  0.32483475241E+02  0.10966735555E+02  0.41993688121E+02  0.00000000000E+00 0. -1.
</event>
<event>
 7    1  0.6198176E-013  0.5930192E+02  0.7816164E-02  0.1266605E+00
        -11   -1    0    0    0    0  0.00000000000E+00  0.00000000000E+00  0.45593999997E+02  0.45594000000E+02  0.51100000000E-03 0.  1.
         11   -1    0    0    0    0 -0.00000000000E+00 -0.00000000000E+00 -0.45593999997E+02  0.45594000000E+02  0.51100000000E-03 0. -1.
    9900012    2    1    2    0    0  0.25327817053E+02 -0.18983484515E+02 -0.38537515160E+01  0.59301915233E+02  0.49999947486E+02 0.  0.
        -12    1    1    2    0    0 -0.25327817053E+02  0.18983484515E+02  0.38537515160E+01  0.31886084767E+02  0.00000000000E+00 0.  1.
         11    1    3    3    0    0 -0.14504099271E+01  0.36390336253E+00 -0.25434673247E+01  0.29504814704E+01  0.51100000000E-03 0. -1.
        -11    1    3    3    0    0  0.10569732533E+01 -0.17546885543E+02  0.17213478747E+02  0.24603134669E+02  0.51100000000E-03 0.  1.
         12    1    3    3    0    0  0.25721253727E+02 -0.18005023342E+01 -0.18523762939E+02  0.31748299094E+02  0.00000000000E+00 0. -1.
</event>
<event>
 7    1  0.6198176E-013  0.5930191E+02  0.7816164E-02  0.1266605E+00
        -11   -1    0    0    0    0  0.00000000000E+00  0.00000000000E+00  0.45593999997E+02  0.45594000000E+02  0.51100000000E-03 0. -1.
         11   -1    0    0    0    0 -0.00000000000E+00 -0.00000000000E+00 -0.45593999997E+02  0.45594000000E+02  0.51100000000E-03 0.  1.
    9900012    2    1    2    0    0  0.10368221398E+02 -0.96812651737E+01  0.28556888359E+02  0.59301909254E+02  0.49999936581E+02 0.  0.
        -12    1    1    2    0    0 -0.10368221398E+02  0.96812651737E+01 -0.28556888359E+02  0.31886090746E+02  0.00000000000E+00 0.  1.
         11    1    3    3    0    0 -0.55233882351E+01 -0.74631556054E+01  0.10827105811E+02  0.14262984599E+02  0.51100000000E-03 0. -1.
        -11    1    3    3    0    0 -0.24602958144E+01  0.15560688394E+02  0.82684305985E+01  0.17791993245E+02  0.51100000000E-03 0.  1.
        -12    1    3    3    0    0  0.18351905447E+02 -0.17778797963E+02  0.94613519496E+01  0.27246931410E+02  0.00000000000E+00 0.  1.
</event>
<event>
 7    1  0.6198176E-013  0.5930193E+02  0.7816164E-02  0.1266605E+00
        -11   -1    0    0    0    0  0.00000000000E+00  0.00000000000E+00  0.45593999997E+02  0.45594000000E+02  0.51100000000E-03 0. -1.
         11   -1    0    0    0    0 -0.00000000000E+00 -0.00000000000E+00 -0.45593999997E+02  0.45594000000E+02  0.51100000000E-03 0.  1.
    9900012    2    1    2    0    0  0.22707470231E+02  0.21165730075E+02  0.72872375681E+01  0.59301934623E+02  0.49999982847E+02 0.  0.
        -12    1    1    2    0    0 -0.22707470231E+02 -0.21165730075E+02 -0.72872375681E+01  0.31886065377E+02  0.00000000000E+00 0.  1.
         11    1    3    3    0    0  0.92292356134E+01 -0.43188087434E+01  0.77674193208E+01  0.12812638375E+02  0.51100000000E-03 0. -1.
        -11    1    3    3    0    0  0.51153861156E+01  0.33058613363E+01  0.16331094327E+02  0.17429874826E+02  0.51100000000E-03 0.  1.
        -12    1    3    3    0    0  0.83628485016E+01  0.22178677482E+02 -0.16811276079E+02  0.29059421421E+02  0.00000000000E+00 0.  1.
</event>
<event>
 7    1  0.6198176E-013  0.5930193E+02  0.7816164E-02  0.1266605E+00
        -11   -1    0    0    0    0  0.00000000000E+00  0.00000000000E+00  0.45593999997E+02  0.45594000000E+02  0.51100000000E-03 0.  1.
         11   -1    0    0    0    0 -0.00000000000E+00 -0.00000000000E+00 -0.45593999997E+02  0.45594000000E+02  0.51100000000E-03 0. -1.
    9900012    2    1    2    0    0  0.31387869481E+02 -0.53613873472E+01 -0.16668750545E+01  0.59301932552E+02  0.49999979070E+02 0.  0.
        -12    1    1    2    0    0 -0.31387869481E+02  0.53613873472E+01  0.16668750545E+01  0.31886067448E+02  0.00000000000E+00 0.  1.
         11    1    3    3    0    0  0.21769780905E+01 -0.20093885593E+02 -0.98177015282E+01  0.22469773817E+02  0.51100000000E-03 0. -1.
        -11    1    3    3    0    0 -0.69466761931E-01  0.28562788389E+01 -0.21747025315E+01  0.35906107834E+01  0.51100000000E-03 0.  1.
        -12    1    3    3    0    0  0.29280358153E+02  0.11876219407E+02  0.10325529005E+02  0.33241547951E+02  0.00000000000E+00 0.  1.
</event>
<event>
 7    1  0.6198176E-013  0.5930193E+02  0.7816164E-02  0.1266605E+00
        -11   -1    0    0    0    0  0.00000000000E+00  0.00000000000E+00  0.45593999997E+02  0.45594000000E+02  0.51100000000E-03 0.  1.
         11   -1    0    0    0    0 -0.00000000000E+00 -0.00000000000E+00 -0.45593999997E+02  0.45594000000E+02  0.51100000000E-03 0. -1.
    9900012    2    1    2    0    0  0.46245544996E+00  0.13828088269E+02 -0.28727884850E+02  0.59301933165E+02  0.49999980190E+02 0.  0.
        -12    1    1    2    0    0 -0.46245544996E+00 -0.13828088269E+02  0.28727884850E+02  0.31886066835E+02  0.00000000000E+00 0.  1.
         11    1    3    3    0    0  0.14087781053E+02  0.17536947357E+02 -0.24798635877E+02  0.33481075837E+02  0.51100000000E-03 0. -1.
        -11    1    3    3    0    0  0.54080199018E+01 -0.18898674932E+01 -0.34650898747E+01  0.66951569437E+01  0.51100000000E-03 0.  1.
         12    1    3    3    0    0 -0.19033345505E+02 -0.18189915947E+01 -0.46415909851E+00  0.19125700385E+02  0.00000000000E+00 0. -1.
</event>
<event>
 7    1  0.6198176E-013  0.5930212E+02  0.7816164E-02  0.1266604E+00
        -11   -1    0    0    0    0  0.00000000000E+00  0.00000000000E+00  0.45593999997E+02  0.45594000000E+02  0.51100000000E-03 0.  1.
         11   -1    0    0    0    0 -0.00000000000E+00 -0.00000000000E+00 -0.45593999997E+02  0.45594000000E+02  0.51100000000E-03 0. -1.
    9900012    2    1    2    0    0 -0.19867779069E+02  0.12866929356E+01 -0.24906331277E+02  0.59302116579E+02  0.50000314692E+02 0.  0.
        -12    1    1    2    0    0  0.19867779069E+02 -0.12866929356E+01  0.24906331277E+02  0.31885883421E+02  0.00000000000E+00 0.  1.
         11    1    3    3    0    0 -0.15894724715E+02 -0.22030529008E+02 -0.94466821042E+01  0.28761541773E+02  0.51100000000E-03 0. -1.
        -11    1    3    3    0    0 -0.37199869900E+01  0.98578602459E+01 -0.13201603049E+02  0.16890767749E+02  0.51100000000E-03 0.  1.
        -12    1    3    3    0    0 -0.25306736399E+00  0.13459361698E+02 -0.22580461238E+01  0.13649807057E+02  0.00000000000E+00 0.  1.
</event>
<event>
 7    1  0.6198176E-013  0.5930197E+02  0.7816164E-02  0.1266605E+00
        -11   -1    0    0    0    0  0.00000000000E+00  0.00000000000E+00  0.45593999997E+02  0.45594000000E+02  0.51100000000E-03 0. -1.
         11   -1    0    0    0    0 -0.00000000000E+00 -0.00000000000E+00 -0.45593999997E+02  0.45594000000E+02  0.51100000000E-03 0.  1.
    9900012    2    1    2    0    0 -0.19312917583E+02 -0.25272403547E+02 -0.22440192456E+01  0.59301971884E+02  0.50000050804E+02 0.  0.
        -12    1    1    2    0    0  0.19312917583E+02  0.25272403547E+02  0.22440192456E+01  0.31886028116E+02  0.00000000000E+00 0.  1.
         11    1    3    3    0    0 -0.22217719263E+02 -0.22674694957E+02  0.95914628713E+01  0.33162704970E+02  0.51100000000E-03 0. -1.
        -11    1    3    3    0    0  0.17194439705E+01 -0.48007612051E+01  0.61451675611E+01  0.79854167287E+01  0.51100000000E-03 0.  1.
        -12    1    3    3    0    0  0.11853577088E+01  0.22030526156E+01 -0.17980649678E+02  0.18153850186E+02  0.00000000000E+00 0.  1.
</event>
<event>
 7    1  0.6198176E-013  0.5930195E+02  0.7816164E-02  0.1266605E+00
        -11   -1    0    0    0    0  0.00000000000E+00  0.00000000000E+00  0.45593999997E+02  0.45594000000E+02  0.51100000000E-03 0.  1.
         11   -1    0    0    0    0 -0.00000000000E+00 -0.00000000000E+00 -0.45593999997E+02  0.45594000000E+02  0.51100000000E-03 0. -1.
    9900012    2    1    2    0    0  0.18644146809E+02 -0.25832666677E+02 -0.13377208162E+01  0.59301947016E+02  0.50000005450E+02 0.  0.
        -12    1    1    2    0    0 -0.18644146809E+02  0.25832666677E+02  0.13377208162E+01  0.31886052984E+02  0.00000000000E+00 0.  1.
         11    1    3    3    0    0  0.26453291311E+02 -0.20014838481E+02  0.14302713783E+02  0.36123925623E+02  0.51100000000E-03 0.  1.
        -11    1    3    3    0    0  0.38429941350E+00 -0.48166819859E+01  0.68901903864E+00  0.48808666125E+01  0.51100000000E-03 0. -1.
        -12    1    3    3    0    0 -0.81934439152E+01 -0.10011462101E+01 -0.16329453638E+02  0.18297154780E+02  0.00000000000E+00 0.  1.
</event>
<event>
 7    1  0.6198176E-013  0.5930195E+02  0.7816164E-02  0.1266605E+00
        -11   -1    0    0    0    0  0.00000000000E+00  0.00000000000E+00  0.45593999997E+02  0.45594000000E+02  0.51100000000E-03 0.  1.
         11   -1    0    0    0    0 -0.00000000000E+00 -0.00000000000E+00 -0.45593999997E+02  0.45594000000E+02  0.51100000000E-03 0. -1.
    9900012    2    1    2    0    0 -0.69380697302E+01 -0.21405292650E+02 -0.22591958239E+02  0.59301953803E+02  0.50000017827E+02 0.  0.
        -12    1    1    2    0    0  0.69380697302E+01  0.21405292650E+02  0.22591958239E+02  0.31886046197E+02  0.00000000000E+00 0.  1.
         11    1    3    3    0    0  0.10699464217E+02 -0.16854571463E+02 -0.64745616427E+01  0.20987497766E+02  0.51100000000E-03 0. -1.
        -11    1    3    3    0    0 -0.10385705559E+02  0.24916194270E+01  0.72132380397E+01  0.12888050691E+02  0.51100000000E-03 0.  1.
         12    1    3    3    0    0 -0.72518283878E+01 -0.70423406143E+01 -0.23330634636E+02  0.25426405346E+02  0.00000000000E+00 0. -1.
</event>
<event>
 7    1  0.6198176E-013  0.5930195E+02  0.7816164E-02  0.1266605E+00
        -11   -1    0    0    0    0  0.00000000000E+00  0.00000000000E+00  0.45593999997E+02  0.45594000000E+02  0.51100000000E-03 0.  1.
         11   -1    0    0    0    0 -0.00000000000E+00 -0.00000000000E+00 -0.45593999997E+02  0.45594000000E+02  0.51100000000E-03 0. -1.
    9900012    2    1    2    0    0  0.10731469498E+02  0.64814657516E+01 -0.29318021262E+02  0.59301949655E+02  0.50000010264E+02 0.  0.
        -12    1    1    2    0    0 -0.10731469498E+02 -0.64814657516E+01  0.29318021262E+02  0.31886050345E+02  0.00000000000E+00 0.  1.
         11    1    3    3    0    0  0.11966878390E+02  0.11226509402E+02 -0.49506227558E+01  0.17139117763E+02  0.51100000000E-03 0. -1.
        -11    1    3    3    0    0 -0.42432498750E+01  0.91905360641E+01  0.36224111401E+01  0.10751417831E+02  0.51100000000E-03 0.  1.
        -12    1    3    3    0    0  0.30078409825E+01 -0.13935579714E+02 -0.27989809646E+02  0.31411414062E+02  0.00000000000E+00 0.  1.
</event>
<event>
 7    1  0.6198176E-013  0.5930195E+02  0.7816164E-02  0.1266605E+00
        -11   -1    0    0    0    0  0.00000000000E+00  0.00000000000E+00  0.45593999997E+02  0.45594000000E+02  0.51100000000E-03 0.  1.
         11   -1    0    0    0    0 -0.00000000000E+00 -0.00000000000E+00 -0.45593999997E+02  0.45594000000E+02  0.51100000000E-03 0. -1.
    9900012    2    1    2    0    0  0.25104282348E+02  0.15294224666E+02 -0.12352400712E+02  0.59301951269E+02  0.50000013206E+02 0.  0.
        -12    1    1    2    0    0 -0.25104282348E+02 -0.15294224666E+02  0.12352400712E+02  0.31886048731E+02  0.00000000000E+00 0.  1.
         11    1    3    3    0    0  0.19309299190E+02 -0.60999098839E+01 -0.15744728282E+02  0.25650621918E+02  0.51100000000E-03 0. -1.
        -11    1    3    3    0    0 -0.83543359001E+01  0.53521181276E+01 -0.44429403231E+01  0.10871054032E+02  0.51100000000E-03 0.  1.
         12    1    3    3    0    0  0.14149319057E+02  0.16042016423E+02  0.78352678931E+01  0.22780275320E+02  0.00000000000E+00 0. -1.
</event>
<event>
 7    1  0.6198176E-013  0.5930188E+02  0.7816164E-02  0.1266605E+00
        -11   -1    0    0    0    0  0.00000000000E+00  0.00000000000E+00  0.45593999997E+02  0.45594000000E+02  0.51100000000E-03 0.  1.
         11   -1    0    0    0    0 -0.00000000000E+00 -0.00000000000E+00 -0.45593999997E+02  0.45594000000E+02  0.51100000000E-03 0. -1.
    9900012    2    1    2    0    0  0.28300012381E+02  0.14586597884E+02  0.17507922637E+01  0.59301877436E+02  0.49999878553E+02 0.  0.
        -12    1    1    2    0    0 -0.28300012381E+02 -0.14586597884E+02 -0.17507922637E+01  0.31886122564E+02  0.00000000000E+00 0.  1.
         11    1    3    3    0    0  0.47565627978E+01 -0.18140361952E+01 -0.10866620272E+01  0.52054252074E+01  0.51100000000E-03 0. -1.
        -11    1    3    3    0    0  0.18821882605E+02  0.18855515898E+02 -0.18285563614E+02  0.32313396317E+02  0.51100000000E-03 0.  1.
        -12    1    3    3    0    0  0.47215669777E+01 -0.24548818183E+01  0.21123017905E+02  0.21783055912E+02  0.00000000000E+00 0.  1.
</event>
<event>
 7    1  0.6198176E-013  0.5930195E+02  0.7816164E-02  0.1266605E+00
        -11   -1    0    0    0    0  0.00000000000E+00  0.00000000000E+00  0.45593999997E+02  0.45594000000E+02  0.51100000000E-03 0.  1.
         11   -1    0    0    0    0 -0.00000000000E+00 -0.00000000000E+00 -0.45593999997E+02  0.45594000000E+02  0.51100000000E-03 0. -1.
    9900012    2    1    2    0    0 -0.17768608159E+02  0.19993687704E+02 -0.17356527294E+02  0.59301952524E+02  0.50000015496E+02 0.  0.
        -12    1    1    2    0    0  0.17768608159E+02 -0.19993687704E+02  0.17356527294E+02  0.31886047476E+02  0.00000000000E+00 0.  1.
         11    1    3    3    0    0 -0.22810144088E+02  0.13629109657E+02 -0.12944361797E+02  0.29556924840E+02  0.51100000000E-03 0. -1.
        -11    1    3    3    0    0  0.42886827537E+01 -0.19732941456E+01 -0.15299387810E+02  0.16011182254E+02  0.51100000000E-03 0.  1.
        -12    1    3    3    0    0  0.75285317577E+00  0.83378721926E+01  0.10887222313E+02  0.13733845430E+02  0.00000000000E+00 0.  1.
</event>
<event>
 7    1  0.6198176E-013  0.5930195E+02  0.7816164E-02  0.1266605E+00
        -11   -1    0    0    0    0  0.00000000000E+00  0.00000000000E+00  0.45593999997E+02  0.45594000000E+02  0.51100000000E-03 0. -1.
         11   -1    0    0    0    0 -0.00000000000E+00 -0.00000000000E+00 -0.45593999997E+02  0.45594000000E+02  0.51100000000E-03 0.  1.
    9900012    2    1    2    0    0 -0.12734629152E+02  0.10678763093E+02  0.27212381768E+02  0.59301945331E+02  0.50000002377E+02 0.  0.
        -12    1    1    2    0    0  0.12734629152E+02 -0.10678763093E+02 -0.27212381768E+02  0.31886054669E+02  0.00000000000E+00 0.  1.
         11    1    3    3    0    0 -0.84843822092E+01 -0.12229516936E+02  0.10511508920E+02  0.18221900175E+02  0.51100000000E-03 0. -1.
        -11    1    3    3    0    0 -0.59781534474E+01 -0.59803477568E+01  0.52722033427E+01  0.99648886737E+01  0.51100000000E-03 0.  1.
        -12    1    3    3    0    0  0.17279065050E+01  0.28888627786E+02  0.11428669505E+02  0.31115156482E+02  0.00000000000E+00 0.  1.
</event>
<event>
 7    1  0.6198176E-013  0.5930185E+02  0.7816164E-02  0.1266605E+00
        -11   -1    0    0    0    0  0.00000000000E+00  0.00000000000E+00  0.45593999997E+02  0.45594000000E+02  0.51100000000E-03 0.  1.
         11   -1    0    0    0    0 -0.00000000000E+00 -0.00000000000E+00 -0.45593999997E+02  0.45594000000E+02  0.51100000000E-03 0. -1.
    9900012    2    1    2    0    0  0.13188513126E+02  0.45099070461E+01 -0.28678399333E+02  0.59301847389E+02  0.49999823754E+02 0.  0.
        -12    1    1    2    0    0 -0.13188513126E+02 -0.45099070461E+01  0.28678399333E+02  0.31886152611E+02  0.00000000000E+00 0.  1.
         11    1    3    3    0    0  0.57827961770E+01 -0.50866658775E+01 -0.21880283363E+01  0.80063955457E+01  0.51100000000E-03 0. -1.
        -11    1    3    3    0    0 -0.11188907393E+02 -0.61883162386E+01  0.28912717618E+01  0.13109018239E+02  0.51100000000E-03 0.  1.
         12    1    3    3    0    0  0.18594624342E+02  0.15784889162E+02 -0.29381642758E+02  0.38186433605E+02  0.00000000000E+00 0. -1.
</event>
<event>
 7    1  0.6198176E-013  0.5930196E+02  0.7816164E-02  0.1266605E+00
        -11   -1    0    0    0    0  0.00000000000E+00  0.00000000000E+00  0.45593999997E+02  0.45594000000E+02  0.51100000000E-03 0. -1.
         11   -1    0    0    0    0 -0.00000000000E+00 -0.00000000000E+00 -0.45593999997E+02  0.45594000000E+02  0.51100000000E-03 0.  1.
    9900012    2    1    2    0    0  0.49821671226E+00 -0.18448152202E+02  0.26002629559E+02  0.59301964130E+02  0.50000036661E+02 0.  0.
        -12    1    1    2    0    0 -0.49821671226E+00  0.18448152202E+02 -0.26002629559E+02  0.31886035870E+02  0.00000000000E+00 0.  1.
         11    1    3    3    0    0 -0.10674629293E+02 -0.15136417033E+02  0.82559863684E+01  0.20278563616E+02  0.51100000000E-03 0. -1.
        -11    1    3    3    0    0  0.20843177280E+02 -0.18276373678E+01  0.27294938643E+01  0.21100436832E+02  0.51100000000E-03 0.  1.
         12    1    3    3    0    0 -0.96703312745E+01 -0.14840978009E+01  0.15017149326E+02  0.17922963681E+02  0.00000000000E+00 0. -1.
</event>
<event>
 7    1  0.9751780E-013  0.5930195E+02  0.7816164E-02  0.1266605E+00
        -11   -1    0    0    0    0  0.00000000000E+00  0.00000000000E+00  0.45593999997E+02  0.45594000000E+02  0.51100000000E-03 0.  1.
         11   -1    0    0    0    0 -0.00000000000E+00 -0.00000000000E+00 -0.45593999997E+02  0.45594000000E+02  0.51100000000E-03 0. -1.
    9900012    2    1    2    0    0 -0.29703307868E+02 -0.62195529616E+01 -0.97852291367E+01  0.59301952164E+02  0.50000014838E+02 0.  0.
        -12    1    1    2    0    0  0.29703307868E+02  0.62195529616E+01  0.97852291367E+01  0.31886047836E+02  0.00000000000E+00 0.  1.
         11    1    3    3    0    0 -0.20586255059E+02 -0.15491885808E+02 -0.55261837766E+00  0.25770095277E+02  0.51100000000E-03 0. -1.
        -11    1    3    3    0    0 -0.15173321935E+02  0.87192098014E+00  0.49380370012E+01  0.15980430358E+02  0.51100000000E-03 0.  1.
        -12    1    3    3    0    0  0.60562691260E+01  0.84004118666E+01 -0.14170647760E+02  0.17551426529E+02  0.00000000000E+00 0.  1.
</event>
<event>
 7    1  0.6198176E-013  0.5930191E+02  0.7816164E-02  0.1266605E+00
        -11   -1    0    0    0    0  0.00000000000E+00  0.00000000000E+00  0.45593999997E+02  0.45594000000E+02  0.51100000000E-03 0.  1.
         11   -1    0    0    0    0 -0.00000000000E+00 -0.00000000000E+00 -0.45593999997E+02  0.45594000000E+02  0.51100000000E-03 0. -1.
    9900012    2    1    2    0    0  0.20268438428E+02 -0.23476078125E+02 -0.74018178712E+01  0.59301909800E+02  0.49999937576E+02 0.  0.
        -12    1    1    2    0    0 -0.20268438428E+02  0.23476078125E+02  0.74018178712E+01  0.31886090200E+02  0.00000000000E+00 0.  1.
         11    1    3    3    0    0 -0.27989579657E+01 -0.20370175057E+02 -0.10277344761E+02  0.22986996610E+02  0.51100000000E-03 0. -1.
        -11    1    3    3    0    0  0.26589659869E+01 -0.13177032149E+02  0.10179041843E+01  0.13481112920E+02  0.51100000000E-03 0.  1.
         12    1    3    3    0    0  0.20408430407E+02  0.10071129081E+02  0.18576227051E+01  0.22833800270E+02  0.00000000000E+00 0. -1.
</event>
<event>
 7    1  0.6198176E-013  0.5930194E+02  0.7816164E-02  0.1266605E+00
        -11   -1    0    0    0    0  0.00000000000E+00  0.00000000000E+00  0.45593999997E+02  0.45594000000E+02  0.51100000000E-03 0.  1.
         11   -1    0    0    0    0 -0.00000000000E+00 -0.00000000000E+00 -0.45593999997E+02  0.45594000000E+02  0.51100000000E-03 0. -1.
    9900012    2    1    2    0    0  0.22301332210E+02 -0.72807744613E+01 -0.21595402920E+02  0.59301944704E+02  0.50000001233E+02 0.  0.
        -12    1    1    2    0    0 -0.22301332210E+02  0.72807744613E+01  0.21595402920E+02  0.31886055296E+02  0.00000000000E+00 0.  1.
         11    1    3    3    0    0  0.37114804525E+00  0.16313762992E+02 -0.18839490201E+02  0.24923944413E+02  0.51100000000E-03 0. -1.
        -11    1    3    3    0    0  0.93505416872E+01 -0.28225466654E+01 -0.25428879390E+01  0.10092852860E+02  0.51100000000E-03 0.  1.
        -12    1    3    3    0    0  0.12579642477E+02 -0.20771990788E+02 -0.21302478017E+00  0.24285147430E+02  0.00000000000E+00 0.  1.
</event>
<event>
 7    1  0.6198176E-013  0.5930193E+02  0.7816164E-02  0.1266605E+00
        -11   -1    0    0    0    0  0.00000000000E+00  0.00000000000E+00  0.45593999997E+02  0.45594000000E+02  0.51100000000E-03 0. -1.
         11   -1    0    0    0    0 -0.00000000000E+00 -0.00000000000E+00 -0.45593999997E+02  0.45594000000E+02  0.51100000000E-03 0.  1.
    9900012    2    1    2    0    0 -0.77371755136E+01 -0.80290762157E+01  0.29872925833E+02  0.59301927059E+02  0.49999969052E+02 0.  0.
        -12    1    1    2    0    0  0.77371755136E+01  0.80290762157E+01 -0.29872925833E+02  0.31886072941E+02  0.00000000000E+00 0.  1.
         11    1    3    3    0    0 -0.80155404429E+01 -0.11354963652E+02  0.30276919826E+02  0.33314800953E+02  0.51100000000E-03 0. -1.
        -11    1    3    3    0    0  0.55721308678E+01 -0.58494402906E+01  0.88059294990E+01  0.11950271492E+02  0.51100000000E-03 0.  1.
        -12    1    3    3    0    0 -0.52937659385E+01  0.91753277268E+01 -0.92099234925E+01  0.14036854614E+02  0.00000000000E+00 0.  1.
</event>
<event>
 7    1  0.6198176E-013  0.5930192E+02  0.7816164E-02  0.1266605E+00
        -11   -1    0    0    0    0  0.00000000000E+00  0.00000000000E+00  0.45593999997E+02  0.45594000000E+02  0.51100000000E-03 0.  1.
         11   -1    0    0    0    0 -0.00000000000E+00 -0.00000000000E+00 -0.45593999997E+02  0.45594000000E+02  0.51100000000E-03 0. -1.
    9900012    2    1    2    0    0  0.15497881941E+02 -0.48963702753E+01 -0.27432884814E+02  0.59301922227E+02  0.49999960240E+02 0.  0.
        -12    1    1    2    0    0 -0.15497881941E+02  0.48963702753E+01  0.27432884814E+02  0.31886077773E+02  0.00000000000E+00 0.  1.
         11    1    3    3    0    0  0.19890938752E+02 -0.26763199465E+01 -0.13601263083E+02  0.24244720881E+02  0.51100000000E-03 0. -1.
        -11    1    3    3    0    0  0.86506979645E+01  0.95154778738E+01 -0.11693315088E+02  0.17381384077E+02  0.51100000000E-03 0.  1.
        -12    1    3    3    0    0 -0.13043754775E+02 -0.11735528203E+02 -0.21383066439E+01  0.17675817269E+02  0.00000000000E+00 0.  1.
</event>
<event>
 7    1  0.6198176E-013  0.5930191E+02  0.7816164E-02  0.1266605E+00
        -11   -1    0    0    0    0  0.00000000000E+00  0.00000000000E+00  0.45593999997E+02  0.45594000000E+02  0.51100000000E-03 0. -1.
         11   -1    0    0    0    0 -0.00000000000E+00 -0.00000000000E+00 -0.45593999997E+02  0.45594000000E+02  0.51100000000E-03 0.  1.
    9900012    2    1    2    0    0  0.52304192472E+00 -0.25758131511E+02  0.18787431665E+02  0.59301913687E+02  0.49999944667E+02 0.  0.
        -12    1    1    2    0    0 -0.52304192472E+00  0.25758131511E+02 -0.18787431665E+02  0.31886086313E+02  0.00000000000E+00 0.  1.
         11    1    3    3    0    0  0.60083353588E+01  0.22722093377E+01 -0.10667081167E+01  0.65115970026E+01  0.51100000000E-03 0. -1.
        -11    1    3    3    0    0 -0.10866830502E+02 -0.21797584183E+02 -0.64761252230E+01  0.25202437968E+02  0.51100000000E-03 0.  1.
         12    1    3    3    0    0  0.53815370684E+01 -0.62327566654E+01  0.26330265005E+02  0.27587878717E+02  0.00000000000E+00 0. -1.
</event>
<event>
 7    1  0.6198176E-013  0.5930188E+02  0.7816164E-02  0.1266605E+00
        -11   -1    0    0    0    0  0.00000000000E+00  0.00000000000E+00  0.45593999997E+02  0.45594000000E+02  0.51100000000E-03 0.  1.
         11   -1    0    0    0    0 -0.00000000000E+00 -0.00000000000E+00 -0.45593999997E+02  0.45594000000E+02  0.51100000000E-03 0. -1.
    9900012    2    1    2    0    0 -0.22374910717E+02  0.21548896293E+02 -0.71925741731E+01  0.59301879441E+02  0.49999882210E+02 0.  0.
        -12    1    1    2    0    0  0.22374910717E+02 -0.21548896293E+02  0.71925741731E+01  0.31886120559E+02  0.00000000000E+00 0.  1.
         11    1    3    3    0    0 -0.60385924817E+01  0.31136687029E+01 -0.80199291158E+00  0.68412517014E+01  0.51100000000E-03 0. -1.
        -11    1    3    3    0    0 -0.10198912588E+02  0.29320294957E+02 -0.17589736126E+02  0.35680475495E+02  0.51100000000E-03 0.  1.
         12    1    3    3    0    0 -0.61374056479E+01 -0.10885067367E+02  0.11199154864E+02  0.16780152245E+02  0.00000000000E+00 0. -1.
</event>
<event>
 7    1  0.6198176E-013  0.5930195E+02  0.7816164E-02  0.1266605E+00
        -11   -1    0    0    0    0  0.00000000000E+00  0.00000000000E+00  0.45593999997E+02  0.45594000000E+02  0.51100000000E-03 0.  1.
         11   -1    0    0    0    0 -0.00000000000E+00 -0.00000000000E+00 -0.45593999997E+02  0.45594000000E+02  0.51100000000E-03 0. -1.
    9900012    2    1    2    0    0 -0.31289717230E+02 -0.57723399487E+01 -0.20866603552E+01  0.59301945614E+02  0.50000002894E+02 0.  0.
        -12    1    1    2    0    0  0.31289717230E+02  0.57723399487E+01  0.20866603552E+01  0.31886054386E+02  0.00000000000E+00 0.  1.
         11    1    3    3    0    0 -0.59783313383E+00  0.12892370935E+02 -0.82261156388E-01  0.12906486738E+02  0.51100000000E-03 0. -1.
        -11    1    3    3    0    0 -0.24046102254E+02 -0.88298362632E+00  0.74488023943E+01  0.25188873557E+02  0.51100000000E-03 0.  1.
         12    1    3    3    0    0 -0.66457818428E+01 -0.17781727257E+02 -0.94532015931E+01  0.21206585319E+02  0.00000000000E+00 0. -1.
</event>
<event>
 7    1  0.6198176E-013  0.5930173E+02  0.7816164E-02  0.1266606E+00
        -11   -1    0    0    0    0  0.00000000000E+00  0.00000000000E+00  0.45593999997E+02  0.45594000000E+02  0.51100000000E-03 0. -1.
         11   -1    0    0    0    0 -0.00000000000E+00 -0.00000000000E+00 -0.45593999997E+02  0.45594000000E+02  0.51100000000E-03 0.  1.
    9900012    2    1    2    0    0  0.24781675375E+02 -0.17585804762E+02 -0.96613860084E+01  0.59301727983E+02  0.49999605985E+02 0.  0.
        -12    1    1    2    0    0 -0.24781675375E+02  0.17585804762E+02  0.96613860084E+01  0.31886272017E+02  0.00000000000E+00 0.  1.
         11    1    3    3    0    0  0.10513386307E+02  0.62358136428E+01  0.40434011543E+00  0.12230296588E+02  0.51100000000E-03 0. -1.
        -11    1    3    3    0    0 -0.85756246207E+01  0.40102597463E+01 -0.50128945959E+01  0.10712265557E+02  0.51100000000E-03 0.  1.
         12    1    3    3    0    0  0.22843913689E+02 -0.27831878151E+02 -0.50528315279E+01  0.36359165839E+02  0.00000000000E+00 0. -1.
</event>
<event>
 7    1  0.6198176E-013  0.5930189E+02  0.7816164E-02  0.1266605E+00
        -11   -1    0    0    0    0  0.00000000000E+00  0.00000000000E+00  0.45593999997E+02  0.45594000000E+02  0.51100000000E-03 0.  1.
         11   -1    0    0    0    0 -0.00000000000E+00 -0.00000000000E+00 -0.45593999997E+02  0.45594000000E+02  0.51100000000E-03 0. -1.
    9900012    2    1    2    0    0 -0.16799974996E+02  0.25021376372E+02 -0.10412274120E+02  0.59301891932E+02  0.49999904989E+02 0.  0.
        -12    1    1    2    0    0  0.16799974996E+02 -0.25021376372E+02  0.10412274120E+02  0.31886108068E+02  0.00000000000E+00 0.  1.
         11    1    3    3    0    0  0.14095707667E+01  0.62443792465E+01  0.75563506844E+01  0.99034134442E+01  0.51100000000E-03 0.  1.
        -11    1    3    3    0    0 -0.28597639274E+02  0.95312743863E+01 -0.18698624059E+02  0.35472647285E+02  0.51100000000E-03 0. -1.
         12    1    3    3    0    0  0.10388093511E+02  0.92457227389E+01  0.72999925460E+00  0.13925831202E+02  0.00000000000E+00 0. -1.
</event>
<event>
 7    1  0.6198176E-013  0.5930195E+02  0.7816164E-02  0.1266605E+00
        -11   -1    0    0    0    0  0.00000000000E+00  0.00000000000E+00  0.45593999997E+02  0.45594000000E+02  0.51100000000E-03 0.  1.
         11   -1    0    0    0    0 -0.00000000000E+00 -0.00000000000E+00 -0.45593999997E+02  0.45594000000E+02  0.51100000000E-03 0. -1.
    9900012    2    1    2    0    0 -0.30969417721E+02 -0.13392609897E+01 -0.74714059781E+01  0.59301947229E+02  0.50000005839E+02 0.  0.
        -12    1    1    2    0    0  0.30969417721E+02  0.13392609897E+01  0.74714059781E+01  0.31886052771E+02  0.00000000000E+00 0.  1.
         11    1    3    3    0    0 -0.11050680826E+02 -0.13919190568E+02 -0.50410687835E+01  0.18473597038E+02  0.51100000000E-03 0. -1.
        -11    1    3    3    0    0 -0.25196108559E+02  0.55299398163E+00  0.50652072279E+01  0.25706147385E+02  0.51100000000E-03 0.  1.
        -12    1    3    3    0    0  0.52773716631E+01  0.12026935597E+02 -0.74955444225E+01  0.15122202806E+02  0.00000000000E+00 0.  1.
</event>
<event>
 7    1  0.6198176E-013  0.5930195E+02  0.7816164E-02  0.1266605E+00
        -11   -1    0    0    0    0  0.00000000000E+00  0.00000000000E+00  0.45593999997E+02  0.45594000000E+02  0.51100000000E-03 0. -1.
         11   -1    0    0    0    0 -0.00000000000E+00 -0.00000000000E+00 -0.45593999997E+02  0.45594000000E+02  0.51100000000E-03 0.  1.
    9900012    2    1    2    0    0  0.28588969149E+02  0.34143142697E+01  0.13701590012E+02  0.59301948696E+02  0.50000008513E+02 0.  0.
        -12    1    1    2    0    0 -0.28588969149E+02 -0.34143142697E+01 -0.13701590012E+02  0.31886051304E+02  0.00000000000E+00 0.  1.
         11    1    3    3    0    0  0.29911025108E+02  0.10805831670E+02 -0.16737022053E+01  0.31847083076E+02  0.51100000000E-03 0. -1.
        -11    1    3    3    0    0  0.95176827734E+01 -0.55935309735E+01  0.42821081728E+01  0.11841044075E+02  0.51100000000E-03 0.  1.
        -12    1    3    3    0    0 -0.10839738733E+02 -0.17979864272E+01  0.11093184044E+02  0.15613821544E+02  0.00000000000E+00 0.  1.
</event>
<event>
 7    1  0.6198176E-013  0.5930194E+02  0.7816164E-02  0.1266605E+00
        -11   -1    0    0    0    0  0.00000000000E+00  0.00000000000E+00  0.45593999997E+02  0.45594000000E+02  0.51100000000E-03 0. -1.
         11   -1    0    0    0    0 -0.00000000000E+00 -0.00000000000E+00 -0.45593999997E+02  0.45594000000E+02  0.51100000000E-03 0.  1.
    9900012    2    1    2    0    0  0.78025132900E+01  0.30914639565E+02 -0.35569705890E+00  0.59301942334E+02  0.49999996911E+02 0.  0.
        -12    1    1    2    0    0 -0.78025132900E+01 -0.30914639565E+02  0.35569705890E+00  0.31886057666E+02  0.00000000000E+00 0.  1.
         11    1    3    3    0    0 -0.17062001513E+01  0.29006248089E+02  0.12059584286E+02  0.31459610941E+02  0.51100000000E-03 0. -1.
        -11    1    3    3    0    0 -0.48842711248E+01  0.67477148240E+01 -0.90290035919E+01  0.12284570236E+02  0.51100000000E-03 0.  1.
         12    1    3    3    0    0  0.14392984566E+02 -0.48393233475E+01 -0.33862777533E+01  0.15557761156E+02  0.00000000000E+00 0. -1.
</event>
<event>
 7    1  0.6198176E-013  0.5930196E+02  0.7816164E-02  0.1266605E+00
        -11   -1    0    0    0    0  0.00000000000E+00  0.00000000000E+00  0.45593999997E+02  0.45594000000E+02  0.51100000000E-03 0.  1.
         11   -1    0    0    0    0 -0.00000000000E+00 -0.00000000000E+00 -0.45593999997E+02  0.45594000000E+02  0.51100000000E-03 0. -1.
    9900012    2    1    2    0    0 -0.28997869812E+02  0.16596626400E+01  0.13156320728E+02  0.59301957461E+02  0.50000024500E+02 0.  0.
        -12    1    1    2    0    0  0.28997869812E+02 -0.16596626400E+01 -0.13156320728E+02  0.31886042539E+02  0.00000000000E+00 0.  1.
         11    1    3    3    0    0  0.43200006681E+01  0.94935051873E+01 -0.22871938591E+01  0.10678028962E+02  0.51100000000E-03 0. -1.
        -11    1    3    3    0    0 -0.22506305665E+01  0.29581524065E+01  0.15289950508E+02  0.15735265820E+02  0.51100000000E-03 0.  1.
         12    1    3    3    0    0 -0.31067239913E+02 -0.10791994954E+02  0.15356407837E+00  0.32888662679E+02  0.00000000000E+00 0. -1.
</event>
<event>
 7    1  0.6198176E-013  0.5930192E+02  0.7816164E-02  0.1266605E+00
        -11   -1    0    0    0    0  0.00000000000E+00  0.00000000000E+00  0.45593999997E+02  0.45594000000E+02  0.51100000000E-03 0.  1.
         11   -1    0    0    0    0 -0.00000000000E+00 -0.00000000000E+00 -0.45593999997E+02  0.45594000000E+02  0.51100000000E-03 0. -1.
    9900012    2    1    2    0    0 -0.23483255919E+02 -0.10360096456E+02 -0.18918959747E+02  0.59301922395E+02  0.49999960547E+02 0.  0.
        -12    1    1    2    0    0  0.23483255919E+02  0.10360096456E+02  0.18918959747E+02  0.31886077605E+02  0.00000000000E+00 0.  1.
         11    1    3    3    0    0 -0.13613366073E+02 -0.57180070376E+00 -0.11814696958E+02  0.18034349346E+02  0.51100000000E-03 0. -1.
        -11    1    3    3    0    0 -0.76539490584E+01  0.55347169099E+01 -0.19346983178E+02  0.21529556099E+02  0.51100000000E-03 0.  1.
        -12    1    3    3    0    0 -0.22159407877E+01 -0.15323012662E+02  0.12242720389E+02  0.19738016950E+02  0.00000000000E+00 0.  1.
</event>
<event>
 7    1  0.6198176E-013  0.5930195E+02  0.7816164E-02  0.1266605E+00
        -11   -1    0    0    0    0  0.00000000000E+00  0.00000000000E+00  0.45593999997E+02  0.45594000000E+02  0.51100000000E-03 0. -1.
         11   -1    0    0    0    0 -0.00000000000E+00 -0.00000000000E+00 -0.45593999997E+02  0.45594000000E+02  0.51100000000E-03 0.  1.
    9900012    2    1    2    0    0  0.14732351066E+02 -0.26994793911E+02 -0.84237358858E+01  0.59301946740E+02  0.50000004947E+02 0.  0.
        -12    1    1    2    0    0 -0.14732351066E+02  0.26994793911E+02  0.84237358858E+01  0.31886053260E+02  0.00000000000E+00 0.  1.
         11    1    3    3    0    0 -0.10468237973E+02 -0.15928656897E+02 -0.11082296818E+02  0.22048206726E+02  0.51100000000E-03 0. -1.
        -11    1    3    3    0    0  0.68214694619E+01 -0.13440610714E+01 -0.10539765326E+02  0.12626385039E+02  0.51100000000E-03 0.  1.
         12    1    3    3    0    0  0.18379119577E+02 -0.97220759420E+01  0.13198326257E+02  0.24627354975E+02  0.00000000000E+00 0. -1.
</event>
<event>
 7    1  0.6198176E-013  0.5930197E+02  0.7816164E-02  0.1266605E+00
        -11   -1    0    0    0    0  0.00000000000E+00  0.00000000000E+00  0.45593999997E+02  0.45594000000E+02  0.51100000000E-03 0. -1.
         11   -1    0    0    0    0 -0.00000000000E+00 -0.00000000000E+00 -0.45593999997E+02  0.45594000000E+02  0.51100000000E-03 0.  1.
    9900012    2    1    2    0    0 -0.16437204786E+02 -0.87644972515E+00  0.27308772028E+02  0.59301970223E+02  0.50000047773E+02 0.  0.
        -12    1    1    2    0    0  0.16437204786E+02  0.87644972515E+00 -0.27308772028E+02  0.31886029777E+02  0.00000000000E+00 0.  1.
         11    1    3    3    0    0 -0.90690594418E+01 -0.10319958303E+02  0.22027436980E+01  0.13914074119E+02  0.51100000000E-03 0. -1.
        -11    1    3    3    0    0 -0.19153994435E+02  0.70430083144E+01  0.26313236245E+02  0.33299637699E+02  0.51100000000E-03 0.  1.
         12    1    3    3    0    0  0.11785849091E+02  0.24005002632E+01 -0.12072079146E+01  0.12088258405E+02  0.00000000000E+00 0. -1.
</event>
<event>
 7    1  0.6198176E-013  0.5930197E+02  0.7816164E-02  0.1266605E+00
        -11   -1    0    0    0    0  0.00000000000E+00  0.00000000000E+00  0.45593999997E+02  0.45594000000E+02  0.51100000000E-03 0.  1.
         11   -1    0    0    0    0 -0.00000000000E+00 -0.00000000000E+00 -0.45593999997E+02  0.45594000000E+02  0.51100000000E-03 0. -1.
    9900012    2    1    2    0    0 -0.11339743346E+02  0.28394940939E+02 -0.90474656980E+01  0.59301967233E+02  0.50000042321E+02 0.  0.
        -12    1    1    2    0    0  0.11339743346E+02 -0.28394940939E+02  0.90474656980E+01  0.31886032767E+02  0.00000000000E+00 0.  1.
         11    1    3    3    0    0 -0.58726393795E+01  0.35072507607E+02 -0.13407623779E+02  0.38004382099E+02  0.51100000000E-03 0. -1.
        -11    1    3    3    0    0 -0.46773130551E+01  0.46577260437E+01  0.70112875467E+01  0.96296325287E+01  0.51100000000E-03 0.  1.
        -12    1    3    3    0    0 -0.78979091181E+00 -0.11335292712E+02 -0.26511294661E+01  0.11667952605E+02  0.00000000000E+00 0.  1.
</event>
<event>
 7    1  0.6198176E-013  0.5930195E+02  0.7816164E-02  0.1266605E+00
        -11   -1    0    0    0    0  0.00000000000E+00  0.00000000000E+00  0.45593999997E+02  0.45594000000E+02  0.51100000000E-03 0. -1.
         11   -1    0    0    0    0 -0.00000000000E+00 -0.00000000000E+00 -0.45593999997E+02  0.45594000000E+02  0.51100000000E-03 0.  1.
    9900012    2    1    2    0    0 -0.30709133183E+02 -0.85812091874E+01 -0.17907565105E+00  0.59301951639E+02  0.50000013881E+02 0.  0.
        -12    1    1    2    0    0  0.30709133183E+02  0.85812091874E+01  0.17907565105E+00  0.31886048361E+02  0.00000000000E+00 0.  1.
         11    1    3    3    0    0 -0.13808135719E+02 -0.24037910709E+01  0.99674621303E+01  0.17198637304E+02  0.51100000000E-03 0. -1.
        -11    1    3    3    0    0 -0.45884672302E+01  0.12648886664E+02  0.56732279766E+01  0.14602529962E+02  0.51100000000E-03 0.  1.
        -12    1    3    3    0    0 -0.12312530234E+02 -0.18826304781E+02 -0.15819765758E+02  0.27500784373E+02  0.00000000000E+00 0.  1.
</event>
<event>
 7    1  0.6198176E-013  0.5930194E+02  0.7816164E-02  0.1266605E+00
        -11   -1    0    0    0    0  0.00000000000E+00  0.00000000000E+00  0.45593999997E+02  0.45594000000E+02  0.51100000000E-03 0.  1.
         11   -1    0    0    0    0 -0.00000000000E+00 -0.00000000000E+00 -0.45593999997E+02  0.45594000000E+02  0.51100000000E-03 0. -1.
    9900012    2    1    2    0    0  0.30273840717E+02 -0.10009811542E+02  0.13727559968E+00  0.59301943432E+02  0.49999998913E+02 0.  0.
        -12    1    1    2    0    0 -0.30273840717E+02  0.10009811542E+02 -0.13727559968E+00  0.31886056568E+02  0.00000000000E+00 0.  1.
         11    1    3    3    0    0  0.54280400662E+00  0.10274475356E+01 -0.18964643295E+02  0.19000210004E+02  0.51100000000E-03 0. -1.
        -11    1    3    3    0    0  0.80668880056E+01  0.68353260780E+00  0.12340469354E+02  0.14759033947E+02  0.51100000000E-03 0.  1.
        -12    1    3    3    0    0  0.21664148705E+02 -0.11720791686E+02  0.67614495411E+01  0.25542699480E+02  0.00000000000E+00 0.  1.
</event>
<event>
 7    1  0.6198176E-013  0.5930194E+02  0.7816164E-02  0.1266605E+00
        -11   -1    0    0    0    0  0.00000000000E+00  0.00000000000E+00  0.45593999997E+02  0.45594000000E+02  0.51100000000E-03 0.  1.
         11   -1    0    0    0    0 -0.00000000000E+00 -0.00000000000E+00 -0.45593999997E+02  0.45594000000E+02  0.51100000000E-03 0. -1.
    9900012    2    1    2    0    0 -0.87870084559E+01 -0.14512570238E+02 -0.26998042537E+02  0.59301944844E+02  0.50000001490E+02 0.  0.
        -12    1    1    2    0    0  0.87870084559E+01  0.14512570238E+02  0.26998042537E+02  0.31886055156E+02  0.00000000000E+00 0.  1.
         11    1    3    3    0    0 -0.93544331930E+01 -0.22939663914E+01 -0.39929543482E+01  0.10426475284E+02  0.51100000000E-03 0. -1.
        -11    1    3    3    0    0 -0.18966835031E+02 -0.93149669298E+01 -0.40768499385E+01  0.21520458770E+02  0.51100000000E-03 0.  1.
        -12    1    3    3    0    0  0.19534259768E+02 -0.29036369171E+01 -0.18928238251E+02  0.27355010790E+02  0.00000000000E+00 0.  1.
</event>
<event>
 7    1  0.6198176E-013  0.5930196E+02  0.7816164E-02  0.1266605E+00
        -11   -1    0    0    0    0  0.00000000000E+00  0.00000000000E+00  0.45593999997E+02  0.45594000000E+02  0.51100000000E-03 0. -1.
         11   -1    0    0    0    0 -0.00000000000E+00 -0.00000000000E+00 -0.45593999997E+02  0.45594000000E+02  0.51100000000E-03 0.  1.
    9900012    2    1    2    0    0 -0.23972706769E+01  0.17628487891E+02  0.26461468056E+02  0.59301956286E+02  0.50000022356E+02 0.  0.
        -12    1    1    2    0    0  0.23972706769E+01 -0.17628487891E+02 -0.26461468056E+02  0.31886043714E+02  0.00000000000E+00 0.  1.
         11    1    3    3    0    0 -0.23061275849E+01  0.31214296763E+02  0.20522022158E+02  0.37427315433E+02  0.51100000000E-03 0. -1.
        -11    1    3    3    0    0 -0.60031078256E+01 -0.11074212664E+02  0.82393147371E+01  0.15051969881E+02  0.51100000000E-03 0.  1.
        -12    1    3    3    0    0  0.59119647337E+01 -0.25115962079E+01 -0.22998688383E+01  0.68226709724E+01  0.00000000000E+00 0.  1.
</event>
<event>
 7    1  0.6198176E-013  0.5930190E+02  0.7816164E-02  0.1266605E+00
        -11   -1    0    0    0    0  0.00000000000E+00  0.00000000000E+00  0.45593999997E+02  0.45594000000E+02  0.51100000000E-03 0. -1.
         11   -1    0    0    0    0 -0.00000000000E+00 -0.00000000000E+00 -0.45593999997E+02  0.45594000000E+02  0.51100000000E-03 0.  1.
    9900012    2    1    2    0    0  0.13852152663E+02 -0.18329240001E+02  0.22110633394E+02  0.59301901438E+02  0.49999922327E+02 0.  0.
        -12    1    1    2    0    0 -0.13852152663E+02  0.18329240001E+02 -0.22110633394E+02  0.31886098562E+02  0.00000000000E+00 0.  1.
         11    1    3    3    0    0  0.22225271117E+02 -0.18365939867E+02  0.23407359843E+02  0.37137244358E+02  0.51100000000E-03 0. -1.
        -11    1    3    3    0    0  0.38908079468E+01 -0.44621220227E+01 -0.58576078834E+01  0.83282945314E+01  0.51100000000E-03 0.  1.
        -12    1    3    3    0    0 -0.12263926400E+02  0.44988218884E+01  0.45608814338E+01  0.13836362549E+02  0.00000000000E+00 0.  1.
</event>
<event>
 7    1  0.6198176E-013  0.5930204E+02  0.7816164E-02  0.1266604E+00
        -11   -1    0    0    0    0  0.00000000000E+00  0.00000000000E+00  0.45593999997E+02  0.45594000000E+02  0.51100000000E-03 0.  1.
         11   -1    0    0    0    0 -0.00000000000E+00 -0.00000000000E+00 -0.45593999997E+02  0.45594000000E+02  0.51100000000E-03 0. -1.
    9900012    2    1    2    0    0 -0.22941565022E+02  0.29826828400E+01 -0.21943171399E+02  0.59302037985E+02  0.50000171355E+02 0.  0.
        -12    1    1    2    0    0  0.22941565022E+02 -0.29826828400E+01  0.21943171399E+02  0.31885962015E+02  0.00000000000E+00 0.  1.
         11    1    3    3    0    0 -0.23384644832E+02  0.25914413543E+01 -0.16696112629E+02  0.28849910908E+02  0.51100000000E-03 0. -1.
        -11    1    3    3    0    0 -0.13997291739E+02 -0.45174399202E+01 -0.18242861007E+01  0.14820912910E+02  0.51100000000E-03 0.  1.
        -12    1    3    3    0    0  0.14440371548E+02  0.49086814060E+01 -0.34227726688E+01  0.15631214167E+02  0.00000000000E+00 0.  1.
</event>
<event>
 7    1  0.6198176E-013  0.5930193E+02  0.7816164E-02  0.1266605E+00
        -11   -1    0    0    0    0  0.00000000000E+00  0.00000000000E+00  0.45593999997E+02  0.45594000000E+02  0.51100000000E-03 0.  1.
         11   -1    0    0    0    0 -0.00000000000E+00 -0.00000000000E+00 -0.45593999997E+02  0.45594000000E+02  0.51100000000E-03 0. -1.
    9900012    2    1    2    0    0 -0.11462729429E+02 -0.72148958015E+01 -0.28866456243E+02  0.59301934338E+02  0.49999982328E+02 0.  0.
        -12    1    1    2    0    0  0.11462729429E+02  0.72148958015E+01  0.28866456243E+02  0.31886065662E+02  0.00000000000E+00 0.  1.
         11    1    3    3    0    0  0.73935680250E+01  0.97390825072E+01  0.12188927474E+00  0.12228222826E+02  0.51100000000E-03 0. -1.
        -11    1    3    3    0    0 -0.75385802904E+01  0.39396028598E+00  0.36753810246E+01  0.83960599950E+01  0.51100000000E-03 0.  1.
         12    1    3    3    0    0 -0.11317717163E+02 -0.17347938595E+02 -0.32663726542E+02  0.38677651517E+02  0.00000000000E+00 0. -1.
</event>
<event>
 7    1  0.6198176E-013  0.5930194E+02  0.7816164E-02  0.1266605E+00
        -11   -1    0    0    0    0  0.00000000000E+00  0.00000000000E+00  0.45593999997E+02  0.45594000000E+02  0.51100000000E-03 0.  1.
         11   -1    0    0    0    0 -0.00000000000E+00 -0.00000000000E+00 -0.45593999997E+02  0.45594000000E+02  0.51100000000E-03 0. -1.
    9900012    2    1    2    0    0 -0.29325614448E+02 -0.55961611455E+01 -0.11198751657E+02  0.59301941589E+02  0.49999995553E+02 0.  0.
        -12    1    1    2    0    0  0.29325614448E+02  0.55961611455E+01  0.11198751657E+02  0.31886058411E+02  0.00000000000E+00 0.  1.
         11    1    3    3    0    0 -0.14935196731E+02  0.33596962325E+01 -0.12832180305E+02  0.19975297540E+02  0.51100000000E-03 0. -1.
        -11    1    3    3    0    0 -0.22718958426E+01  0.75203843658E+01 -0.12288487915E+02  0.14585082352E+02  0.51100000000E-03 0.  1.
         12    1    3    3    0    0 -0.12118521874E+02 -0.16476241744E+02  0.13921916563E+02  0.24741561697E+02  0.00000000000E+00 0. -1.
</event>
<event>
 7    1  0.6198176E-013  0.5930192E+02  0.7816164E-02  0.1266605E+00
        -11   -1    0    0    0    0  0.00000000000E+00  0.00000000000E+00  0.45593999997E+02  0.45594000000E+02  0.51100000000E-03 0.  1.
         11   -1    0    0    0    0 -0.00000000000E+00 -0.00000000000E+00 -0.45593999997E+02  0.45594000000E+02  0.51100000000E-03 0. -1.
    9900012    2    1    2    0    0 -0.88355250592E+01  0.15711909982E+02 -0.26301923835E+02  0.59301924422E+02  0.49999964243E+02 0.  0.
        -12    1    1    2    0    0  0.88355250592E+01 -0.15711909982E+02  0.26301923835E+02  0.31886075578E+02  0.00000000000E+00 0.  1.
         11    1    3    3    0    0 -0.68483604936E+01  0.33276597481E+01 -0.11706865039E+02  0.13965101151E+02  0.51100000000E-03 0. -1.
        -11    1    3    3    0    0 -0.13127206734E+02 -0.10890570623E+02 -0.46081639526E+01  0.17668142528E+02  0.51100000000E-03 0.  1.
        -12    1    3    3    0    0  0.11140042168E+02  0.23274820857E+02 -0.99868948436E+01  0.27668680743E+02  0.00000000000E+00 0.  1.
</event>
<event>
 7    1  0.6198176E-013  0.5930196E+02  0.7816164E-02  0.1266605E+00
        -11   -1    0    0    0    0  0.00000000000E+00  0.00000000000E+00  0.45593999997E+02  0.45594000000E+02  0.51100000000E-03 0.  1.
         11   -1    0    0    0    0 -0.00000000000E+00 -0.00000000000E+00 -0.45593999997E+02  0.45594000000E+02  0.51100000000E-03 0. -1.
    9900012    2    1    2    0    0  0.22507067870E+02 -0.13900160091E+02 -0.17802726369E+02  0.59301958841E+02  0.50000027015E+02 0.  0.
        -12    1    1    2    0    0 -0.22507067870E+02  0.13900160091E+02  0.17802726369E+02  0.31886041159E+02  0.00000000000E+00 0.  1.
         11    1    3    3    0    0  0.34712545735E+00 -0.48962634656E+01 -0.16882892156E+02  0.17581977700E+02  0.51100000000E-03 0. -1.
        -11    1    3    3    0    0 -0.77589587814E+01 -0.28140004860E+01 -0.66937461507E+01  0.10626677651E+02  0.51100000000E-03 0.  1.
        -12    1    3    3    0    0  0.29918901194E+02 -0.61898961396E+01  0.57739119380E+01  0.31093303490E+02  0.00000000000E+00 0.  1.
</event>
<event>
 7    1  0.6198176E-013  0.5930194E+02  0.7816164E-02  0.1266605E+00
        -11   -1    0    0    0    0  0.00000000000E+00  0.00000000000E+00  0.45593999997E+02  0.45594000000E+02  0.51100000000E-03 0.  1.
         11   -1    0    0    0    0 -0.00000000000E+00 -0.00000000000E+00 -0.45593999997E+02  0.45594000000E+02  0.51100000000E-03 0. -1.
    9900012    2    1    2    0    0  0.13242013930E+01 -0.18272215905E+02 -0.26097765241E+02  0.59301941386E+02  0.49999995181E+02 0.  0.
        -12    1    1    2    0    0 -0.13242013930E+01  0.18272215905E+02  0.26097765241E+02  0.31886058614E+02  0.00000000000E+00 0.  1.
         11    1    3    3    0    0  0.40088897870E+01 -0.17721597050E+02 -0.21550554218E+02  0.28187809186E+02  0.51100000000E-03 0. -1.
        -11    1    3    3    0    0 -0.89474563417E+01  0.12317193997E+02 -0.67164228445E+01  0.16639728935E+02  0.51100000000E-03 0.  1.
         12    1    3    3    0    0  0.62627679478E+01 -0.12867812851E+02  0.21692118218E+01  0.14474403265E+02  0.00000000000E+00 0. -1.
</event>
<event>
 7    1  0.6198176E-013  0.5930194E+02  0.7816164E-02  0.1266605E+00
        -11   -1    0    0    0    0  0.00000000000E+00  0.00000000000E+00  0.45593999997E+02  0.45594000000E+02  0.51100000000E-03 0. -1.
         11   -1    0    0    0    0 -0.00000000000E+00 -0.00000000000E+00 -0.45593999997E+02  0.45594000000E+02  0.51100000000E-03 0.  1.
    9900012    2    1    2    0    0  0.11784274062E+02  0.21409792729E+02  0.20481021177E+02  0.59301943983E+02  0.49999999918E+02 0.  0.
        -12    1    1    2    0    0 -0.11784274062E+02 -0.21409792729E+02 -0.20481021177E+02  0.31886056017E+02  0.00000000000E+00 0.  1.
         11    1    3    3    0    0  0.84810055780E+01  0.17174018738E+02  0.19810097707E+02  0.27555659067E+02  0.51100000000E-03 0. -1.
        -11    1    3    3    0    0 -0.38847469960E+01 -0.12675010134E+02 -0.10048067166E+01  0.13294990708E+02  0.51100000000E-03 0.  1.
         12    1    3    3    0    0  0.71880154803E+01  0.16910784125E+02  0.16757301867E+01  0.18451294208E+02  0.00000000000E+00 0. -1.
</event>
<event>
 7    1  0.6198176E-013  0.5930194E+02  0.7816164E-02  0.1266605E+00
        -11   -1    0    0    0    0  0.00000000000E+00  0.00000000000E+00  0.45593999997E+02  0.45594000000E+02  0.51100000000E-03 0.  1.
         11   -1    0    0    0    0 -0.00000000000E+00 -0.00000000000E+00 -0.45593999997E+02  0.45594000000E+02  0.51100000000E-03 0. -1.
    9900012    2    1    2    0    0  0.15124778085E+02  0.26432041974E+02 -0.94503320810E+01  0.59301944561E+02  0.50000000972E+02 0.  0.
        -12    1    1    2    0    0 -0.15124778085E+02 -0.26432041974E+02  0.94503320810E+01  0.31886055439E+02  0.00000000000E+00 0.  1.
         11    1    3    3    0    0  0.20566302364E+02 -0.37914617896E+01 -0.11668270171E+01  0.20945392357E+02  0.51100000000E-03 0. -1.
        -11    1    3    3    0    0  0.11142678043E+01  0.12331429619E+01  0.53895677847E+01  0.56400066907E+01  0.51100000000E-03 0.  1.
        -12    1    3    3    0    0 -0.65557920827E+01  0.28990360801E+02 -0.13673072849E+02  0.32716545514E+02  0.00000000000E+00 0.  1.
</event>
<event>
 7    1  0.6198176E-013  0.5930193E+02  0.7816164E-02  0.1266605E+00
        -11   -1    0    0    0    0  0.00000000000E+00  0.00000000000E+00  0.45593999997E+02  0.45594000000E+02  0.51100000000E-03 0.  1.
         11   -1    0    0    0    0 -0.00000000000E+00 -0.00000000000E+00 -0.45593999997E+02  0.45594000000E+02  0.51100000000E-03 0. -1.
    9900012    2    1    2    0    0 -0.20890119655E+02  0.24089335349E+02  0.16779762213E+00  0.59301931995E+02  0.49999978055E+02 0.  0.
        -12    1    1    2    0    0  0.20890119655E+02 -0.24089335349E+02 -0.16779762213E+00  0.31886068005E+02  0.00000000000E+00 0.  1.
         11    1    3    3    0    0 -0.55565203562E-01  0.15689426254E+02 -0.46355727376E+01  0.16360003623E+02  0.51100000000E-03 0.  1.
        -11    1    3    3    0    0 -0.29239309582E+01  0.79608667799E+01 -0.14379259864E+02  0.16693947605E+02  0.51100000000E-03 0. -1.
        -12    1    3    3    0    0 -0.17910623494E+02  0.43904231480E+00  0.19182630223E+02  0.26247980768E+02  0.00000000000E+00 0.  1.
</event>
<event>
 7    1  0.6198176E-013  0.5930200E+02  0.7816164E-02  0.1266605E+00
        -11   -1    0    0    0    0  0.00000000000E+00  0.00000000000E+00  0.45593999997E+02  0.45594000000E+02  0.51100000000E-03 0.  1.
         11   -1    0    0    0    0 -0.00000000000E+00 -0.00000000000E+00 -0.45593999997E+02  0.45594000000E+02  0.51100000000E-03 0. -1.
    9900012    2    1    2    0    0  0.11405767532E+02 -0.29766624105E+02  0.75714142658E+00  0.59302004536E+02  0.50000110352E+02 0.  0.
        -12    1    1    2    0    0 -0.11405767532E+02  0.29766624105E+02 -0.75714142658E+00  0.31885995464E+02  0.00000000000E+00 0.  1.
         11    1    3    3    0    0 -0.23153260198E+01 -0.29620467077E+01 -0.59826031400E+01  0.70658329919E+01  0.51100000000E-03 0. -1.
        -11    1    3    3    0    0 -0.40201321233E+01 -0.24099721766E+02  0.18615526186E+02  0.30716377829E+02  0.51100000000E-03 0.  1.
         12    1    3    3    0    0  0.17741225676E+02 -0.27048556310E+01 -0.11875781619E+02  0.21519793715E+02  0.00000000000E+00 0. -1.
</event>
<event>
 7    1  0.6198176E-013  0.5930195E+02  0.7816164E-02  0.1266605E+00
        -11   -1    0    0    0    0  0.00000000000E+00  0.00000000000E+00  0.45593999997E+02  0.45594000000E+02  0.51100000000E-03 0. -1.
         11   -1    0    0    0    0 -0.00000000000E+00 -0.00000000000E+00 -0.45593999997E+02  0.45594000000E+02  0.51100000000E-03 0.  1.
    9900012    2    1    2    0    0  0.15752328760E+02 -0.12230494184E+02  0.24879697359E+02  0.59301949915E+02  0.50000010737E+02 0.  0.
        -12    1    1    2    0    0 -0.15752328760E+02  0.12230494184E+02 -0.24879697359E+02  0.31886050085E+02  0.00000000000E+00 0.  1.
         11    1    3    3    0    0  0.79330754807E+01  0.18184850991E+02  0.64236659567E+01  0.20853919937E+02  0.51100000000E-03 0.  1.
        -11    1    3    3    0    0  0.11052250810E+02 -0.21990079820E+02  0.12214636624E+02  0.27475683915E+02  0.51100000000E-03 0. -1.
        -12    1    3    3    0    0 -0.32329975306E+01 -0.84252653558E+01  0.62413947780E+01  0.10972346063E+02  0.00000000000E+00 0.  1.
</event>
<event>
 7    1  0.6198176E-013  0.5930194E+02  0.7816164E-02  0.1266605E+00
        -11   -1    0    0    0    0  0.00000000000E+00  0.00000000000E+00  0.45593999997E+02  0.45594000000E+02  0.51100000000E-03 0.  1.
         11   -1    0    0    0    0 -0.00000000000E+00 -0.00000000000E+00 -0.45593999997E+02  0.45594000000E+02  0.51100000000E-03 0. -1.
    9900012    2    1    2    0    0  0.25328659545E+02 -0.24938126161E+01 -0.19208351723E+02  0.59301939227E+02  0.49999991245E+02 0.  0.
        -12    1    1    2    0    0 -0.25328659545E+02  0.24938126161E+01  0.19208351723E+02  0.31886060773E+02  0.00000000000E+00 0.  1.
         11    1    3    3    0    0  0.27151737334E+01  0.33476904532E+01  0.16004808563E+01  0.45979059370E+01  0.51100000000E-03 0. -1.
        -11    1    3    3    0    0  0.35508431922E+01 -0.14993883323E+02  0.92353845260E+01  0.17964335559E+02  0.51100000000E-03 0.  1.
         12    1    3    3    0    0  0.19062642620E+02  0.91523802532E+01 -0.30044217105E+02  0.36739697731E+02  0.00000000000E+00 0. -1.
</event>
<event>
 7    1  0.6198176E-013  0.5930194E+02  0.7816164E-02  0.1266605E+00
        -11   -1    0    0    0    0  0.00000000000E+00  0.00000000000E+00  0.45593999997E+02  0.45594000000E+02  0.51100000000E-03 0. -1.
         11   -1    0    0    0    0 -0.00000000000E+00 -0.00000000000E+00 -0.45593999997E+02  0.45594000000E+02  0.51100000000E-03 0.  1.
    9900012    2    1    2    0    0 -0.22340085544E+02  0.71333203899E+00  0.22740548316E+02  0.59301940313E+02  0.49999993225E+02 0.  0.
        -12    1    1    2    0    0  0.22340085544E+02 -0.71333203899E+00 -0.22740548316E+02  0.31886059687E+02  0.00000000000E+00 0.  1.
         11    1    3    3    0    0 -0.97346782784E+01 -0.58809819845E+01  0.17273090683E+02  0.20681140498E+02  0.51100000000E-03 0. -1.
        -11    1    3    3    0    0 -0.91246607029E+01  0.19650828377E+02  0.10658131363E+02  0.24145605257E+02  0.51100000000E-03 0.  1.
         12    1    3    3    0    0 -0.34807465622E+01 -0.13056514353E+02 -0.51906737310E+01  0.14475194557E+02  0.00000000000E+00 0. -1.
</event>
<event>
 7    1  0.6198176E-013  0.5930191E+02  0.7816164E-02  0.1266605E+00
        -11   -1    0    0    0    0  0.00000000000E+00  0.00000000000E+00  0.45593999997E+02  0.45594000000E+02  0.51100000000E-03 0.  1.
         11   -1    0    0    0    0 -0.00000000000E+00 -0.00000000000E+00 -0.45593999997E+02  0.45594000000E+02  0.51100000000E-03 0. -1.
    9900012    2    1    2    0    0 -0.44046553619E+01  0.31560719593E+02 -0.11146928817E+01  0.59301912904E+02  0.49999943237E+02 0.  0.
        -12    1    1    2    0    0  0.44046553619E+01 -0.31560719593E+02  0.11146928817E+01  0.31886087096E+02  0.00000000000E+00 0.  1.
         11    1    3    3    0    0 -0.11807128394E+02  0.31812727006E+02 -0.10863816548E+02  0.35629768323E+02  0.51100000000E-03 0. -1.
        -11    1    3    3    0    0 -0.68229105157E+01  0.81731493709E+00  0.10177227806E+01  0.69466446239E+01  0.51100000000E-03 0.  1.
         12    1    3    3    0    0  0.14225383548E+02 -0.10693223498E+01  0.87314008860E+01  0.16725499957E+02  0.00000000000E+00 0. -1.
</event>
<event>
 7    1  0.6198176E-013  0.5930195E+02  0.7816164E-02  0.1266605E+00
        -11   -1    0    0    0    0  0.00000000000E+00  0.00000000000E+00  0.45593999997E+02  0.45594000000E+02  0.51100000000E-03 0.  1.
         11   -1    0    0    0    0 -0.00000000000E+00 -0.00000000000E+00 -0.45593999997E+02  0.45594000000E+02  0.51100000000E-03 0. -1.
    9900012    2    1    2    0    0  0.12525198900E+02  0.30724574328E+01 -0.29161614257E+02  0.59301947434E+02  0.50000006213E+02 0.  0.
        -12    1    1    2    0    0 -0.12525198900E+02 -0.30724574328E+01  0.29161614257E+02  0.31886052566E+02  0.00000000000E+00 0.  1.
         11    1    3    3    0    0 -0.62812813715E+01  0.92869214211E+00  0.65351752863E+01  0.91118319260E+01  0.51100000000E-03 0. -1.
        -11    1    3    3    0    0 -0.79383158429E+01 -0.18821122927E+01 -0.69141860875E+01  0.10694165447E+02  0.51100000000E-03 0.  1.
         12    1    3    3    0    0  0.26744796115E+02  0.40258775834E+01 -0.28782603455E+02  0.39495950061E+02  0.00000000000E+00 0. -1.
</event>
<event>
 7    1  0.6198176E-013  0.5930197E+02  0.7816164E-02  0.1266605E+00
        -11   -1    0    0    0    0  0.00000000000E+00  0.00000000000E+00  0.45593999997E+02  0.45594000000E+02  0.51100000000E-03 0.  1.
         11   -1    0    0    0    0 -0.00000000000E+00 -0.00000000000E+00 -0.45593999997E+02  0.45594000000E+02  0.51100000000E-03 0. -1.
    9900012    2    1    2    0    0  0.63719310153E+01  0.18764527193E+02  0.24980191056E+02  0.59301969661E+02  0.50000046748E+02 0.  0.
        -12    1    1    2    0    0 -0.63719310153E+01 -0.18764527193E+02 -0.24980191056E+02  0.31886030339E+02  0.00000000000E+00 0.  1.
         11    1    3    3    0    0  0.99547509748E+01  0.37398847873E+01 -0.67105437276E+01  0.12574386767E+02  0.51100000000E-03 0. -1.
        -11    1    3    3    0    0 -0.93420608484E+01  0.96928864949E+01 -0.62100512354E+00  0.13476342127E+02  0.51100000000E-03 0.  1.
        -12    1    3    3    0    0  0.57592408889E+01  0.53317559106E+01  0.32311739907E+02  0.33251240766E+02  0.00000000000E+00 0.  1.
</event>
<event>
 7    1  0.6198176E-013  0.5930212E+02  0.7816164E-02  0.1266604E+00
        -11   -1    0    0    0    0  0.00000000000E+00  0.00000000000E+00  0.45593999997E+02  0.45594000000E+02  0.51100000000E-03 0.  1.
         11   -1    0    0    0    0 -0.00000000000E+00 -0.00000000000E+00 -0.45593999997E+02  0.45594000000E+02  0.51100000000E-03 0. -1.
    9900012    2    1    2    0    0 -0.20369372189E+01 -0.21962345633E+02 -0.23026410098E+02  0.59302120665E+02  0.50000322143E+02 0.  0.
        -12    1    1    2    0    0  0.20369372189E+01  0.21962345633E+02  0.23026410098E+02  0.31885879335E+02  0.00000000000E+00 0.  1.
         11    1    3    3    0    0  0.12118684306E+02 -0.56112467314E+00  0.90226960452E+00  0.12165174101E+02  0.51100000000E-03 0. -1.
        -11    1    3    3    0    0  0.38940526521E+01 -0.17185987546E+02 -0.99534711873E+00  0.17649717565E+02  0.51100000000E-03 0.  1.
         12    1    3    3    0    0 -0.18049674177E+02 -0.42152334143E+01 -0.22933332584E+02  0.29487228999E+02  0.00000000000E+00 0. -1.
</event>
<event>
 7    1  0.6198176E-013  0.5930195E+02  0.7816164E-02  0.1266605E+00
        -11   -1    0    0    0    0  0.00000000000E+00  0.00000000000E+00  0.45593999997E+02  0.45594000000E+02  0.51100000000E-03 0. -1.
         11   -1    0    0    0    0 -0.00000000000E+00 -0.00000000000E+00 -0.45593999997E+02  0.45594000000E+02  0.51100000000E-03 0.  1.
    9900012    2    1    2    0    0  0.31589013812E+02  0.34811754099E+01  0.25953553883E+01  0.59301949046E+02  0.50000009152E+02 0.  0.
        -12    1    1    2    0    0 -0.31589013812E+02 -0.34811754099E+01 -0.25953553883E+01  0.31886050954E+02  0.00000000000E+00 0.  1.
         11    1    3    3    0    0  0.10091056828E+02  0.36995619981E+01 -0.31762297534E+01  0.11207346814E+02  0.51100000000E-03 0. -1.
        -11    1    3    3    0    0  0.92950248303E+01 -0.18677844256E+02 -0.76417279996E+01  0.22218356369E+02  0.51100000000E-03 0.  1.
         12    1    3    3    0    0  0.12202932154E+02  0.18459457668E+02  0.13413313141E+02  0.25876245863E+02  0.00000000000E+00 0. -1.
</event>
<event>
 7    1  0.6198176E-013  0.5930196E+02  0.7816164E-02  0.1266605E+00
        -11   -1    0    0    0    0  0.00000000000E+00  0.00000000000E+00  0.45593999997E+02  0.45594000000E+02  0.51100000000E-03 0.  1.
         11   -1    0    0    0    0 -0.00000000000E+00 -0.00000000000E+00 -0.45593999997E+02  0.45594000000E+02  0.51100000000E-03 0. -1.
    9900012    2    1    2    0    0  0.22234360688E+02  0.16076627304E+02 -0.16244845179E+02  0.59301957041E+02  0.50000023733E+02 0.  0.
        -12    1    1    2    0    0 -0.22234360688E+02 -0.16076627304E+02  0.16244845179E+02  0.31886042959E+02  0.00000000000E+00 0.  1.
         11    1    3    3    0    0  0.20547258501E+01  0.17901553352E+02 -0.10722187949E+02  0.20967899881E+02  0.51100000000E-03 0. -1.
        -11    1    3    3    0    0  0.21383239326E+02  0.93862147653E+01 -0.10982468485E+02  0.25806173020E+02  0.51100000000E-03 0.  1.
        -12    1    3    3    0    0 -0.12036044878E+01 -0.11211140813E+02  0.54598112547E+01  0.12527884140E+02  0.00000000000E+00 0.  1.
</event>
<event>
 7    1  0.6198176E-013  0.5930194E+02  0.7816164E-02  0.1266605E+00
        -11   -1    0    0    0    0  0.00000000000E+00  0.00000000000E+00  0.45593999997E+02  0.45594000000E+02  0.51100000000E-03 0.  1.
         11   -1    0    0    0    0 -0.00000000000E+00 -0.00000000000E+00 -0.45593999997E+02  0.45594000000E+02  0.51100000000E-03 0. -1.
    9900012    2    1    2    0    0  0.83465184900E+01  0.26843857411E+02  0.15048718287E+02  0.59301937626E+02  0.49999988325E+02 0.  0.
        -12    1    1    2    0    0 -0.83465184900E+01 -0.26843857411E+02 -0.15048718287E+02  0.31886062374E+02  0.00000000000E+00 0.  1.
         11    1    3    3    0    0  0.14287227000E+01  0.13627372679E+02  0.61053131272E+01  0.15000712761E+02  0.51100000000E-03 0. -1.
        -11    1    3    3    0    0 -0.16588828079E+02  0.98559319518E+01  0.68004524164E+01  0.20459099809E+02  0.51100000000E-03 0.  1.
         12    1    3    3    0    0  0.23506623869E+02  0.33605527801E+01  0.21429527438E+01  0.23842125056E+02  0.00000000000E+00 0. -1.
</event>
<event>
 7    1  0.6198176E-013  0.5930196E+02  0.7816164E-02  0.1266605E+00
        -11   -1    0    0    0    0  0.00000000000E+00  0.00000000000E+00  0.45593999997E+02  0.45594000000E+02  0.51100000000E-03 0. -1.
         11   -1    0    0    0    0 -0.00000000000E+00 -0.00000000000E+00 -0.45593999997E+02  0.45594000000E+02  0.51100000000E-03 0.  1.
    9900012    2    1    2    0    0  0.19511126426E+02 -0.19651202269E+02  0.15807146128E+02  0.59301958011E+02  0.50000025502E+02 0.  0.
        -12    1    1    2    0    0 -0.19511126426E+02  0.19651202269E+02 -0.15807146128E+02  0.31886041989E+02  0.00000000000E+00 0.  1.
         11    1    3    3    0    0  0.19785398117E+02 -0.11117725340E+02  0.14237860085E+02  0.26791462361E+02  0.51100000000E-03 0. -1.
        -11    1    3    3    0    0  0.10955759298E+02 -0.98748357144E+01 -0.87929239152E+01  0.17171387638E+02  0.51100000000E-03 0.  1.
         12    1    3    3    0    0 -0.11230030988E+02  0.13413587852E+01  0.10362209958E+02  0.15339108012E+02  0.00000000000E+00 0. -1.
</event>
<event>
 7    1  0.6198176E-013  0.5930195E+02  0.7816164E-02  0.1266605E+00
        -11   -1    0    0    0    0  0.00000000000E+00  0.00000000000E+00  0.45593999997E+02  0.45594000000E+02  0.51100000000E-03 0. -1.
         11   -1    0    0    0    0 -0.00000000000E+00 -0.00000000000E+00 -0.45593999997E+02  0.45594000000E+02  0.51100000000E-03 0.  1.
    9900012    2    1    2    0    0 -0.18666016177E+01  0.89107383518E+01  0.30558709206E+02  0.59301950262E+02  0.50000011369E+02 0.  0.
        -12    1    1    2    0    0  0.18666016177E+01 -0.89107383518E+01 -0.30558709206E+02  0.31886049738E+02  0.00000000000E+00 0.  1.
         11    1    3    3    0    0  0.31755190607E+01  0.24685765433E+02  0.69561673571E+01  0.25842971983E+02  0.51100000000E-03 0. -1.
        -11    1    3    3    0    0 -0.41552178492E+01  0.27671089423E+01  0.66838708713E+01  0.83424730961E+01  0.51100000000E-03 0.  1.
         12    1    3    3    0    0 -0.88690282919E+00 -0.18542136024E+02  0.16918670978E+02  0.25116505183E+02  0.00000000000E+00 0. -1.
</event>
<event>
 7    1  0.6198176E-013  0.5930189E+02  0.7816164E-02  0.1266605E+00
        -11   -1    0    0    0    0  0.00000000000E+00  0.00000000000E+00  0.45593999997E+02  0.45594000000E+02  0.51100000000E-03 0.  1.
         11   -1    0    0    0    0 -0.00000000000E+00 -0.00000000000E+00 -0.45593999997E+02  0.45594000000E+02  0.51100000000E-03 0. -1.
    9900012    2    1    2    0    0 -0.49704688616E+01  0.13342196570E+02 -0.28530764074E+02  0.59301885959E+02  0.49999894096E+02 0.  0.
        -12    1    1    2    0    0  0.49704688616E+01 -0.13342196570E+02  0.28530764074E+02  0.31886114041E+02  0.00000000000E+00 0.  1.
         11    1    3    3    0    0 -0.12120193995E+02  0.34151674296E+01 -0.20229794977E+02  0.23828702779E+02  0.51100000000E-03 0. -1.
        -11    1    3    3    0    0 -0.34051948641E+01  0.17099883454E+02 -0.13132104930E+02  0.21827815886E+02  0.51100000000E-03 0.  1.
        -12    1    3    3    0    0  0.10554919997E+02 -0.71728543130E+01  0.48311358334E+01  0.13645367294E+02  0.00000000000E+00 0.  1.
</event>
<event>
 7    1  0.6198176E-013  0.5930195E+02  0.7816164E-02  0.1266605E+00
        -11   -1    0    0    0    0  0.00000000000E+00  0.00000000000E+00  0.45593999997E+02  0.45594000000E+02  0.51100000000E-03 0.  1.
         11   -1    0    0    0    0 -0.00000000000E+00 -0.00000000000E+00 -0.45593999997E+02  0.45594000000E+02  0.51100000000E-03 0. -1.
    9900012    2    1    2    0    0 -0.21795551036E+02 -0.16502028261E+02 -0.16412109299E+02  0.59301947981E+02  0.50000007210E+02 0.  0.
        -12    1    1    2    0    0  0.21795551036E+02  0.16502028261E+02  0.16412109299E+02  0.31886052019E+02  0.00000000000E+00 0.  1.
         11    1    3    3    0    0 -0.18325255552E+01 -0.12102765147E+02 -0.15919107597E+02  0.20081161846E+02  0.51100000000E-03 0. -1.
        -11    1    3    3    0    0 -0.30605532529E+01  0.31510025621E+01 -0.15045405546E+02  0.15673545600E+02  0.51100000000E-03 0.  1.
         12    1    3    3    0    0 -0.16902472228E+02 -0.75502656762E+01  0.14552403844E+02  0.23547240535E+02  0.00000000000E+00 0. -1.
</event>
<event>
 7    1  0.6198176E-013  0.5930196E+02  0.7816164E-02  0.1266605E+00
        -11   -1    0    0    0    0  0.00000000000E+00  0.00000000000E+00  0.45593999997E+02  0.45594000000E+02  0.51100000000E-03 0.  1.
         11   -1    0    0    0    0 -0.00000000000E+00 -0.00000000000E+00 -0.45593999997E+02  0.45594000000E+02  0.51100000000E-03 0. -1.
    9900012    2    1    2    0    0  0.73718289129E+01  0.73481944499E+00 -0.31013479441E+02  0.59301957157E+02  0.50000023944E+02 0.  0.
        -12    1    1    2    0    0 -0.73718289129E+01 -0.73481944499E+00  0.31013479441E+02  0.31886042843E+02  0.00000000000E+00 0.  1.
         11    1    3    3    0    0 -0.92860902220E+01  0.14420082324E+02 -0.23375659775E+02  0.28992959767E+02  0.51100000000E-03 0. -1.
        -11    1    3    3    0    0 -0.43629452700E+01 -0.26241474973E+00 -0.75257778777E+00  0.44351467301E+01  0.51100000000E-03 0.  1.
         12    1    3    3    0    0  0.21020864405E+02 -0.13422848130E+02 -0.68852418782E+01  0.25873850660E+02  0.00000000000E+00 0. -1.
</event>
<event>
 7    1  0.6198176E-013  0.5930201E+02  0.7816164E-02  0.1266605E+00
        -11   -1    0    0    0    0  0.00000000000E+00  0.00000000000E+00  0.45593999997E+02  0.45594000000E+02  0.51100000000E-03 0.  1.
         11   -1    0    0    0    0 -0.00000000000E+00 -0.00000000000E+00 -0.45593999997E+02  0.45594000000E+02  0.51100000000E-03 0. -1.
    9900012    2    1    2    0    0 -0.16470771920E+02  0.13588375532E+02  0.23680919982E+02  0.59302011723E+02  0.50000123460E+02 0.  0.
        -12    1    1    2    0    0  0.16470771920E+02 -0.13588375532E+02 -0.23680919982E+02  0.31885988277E+02  0.00000000000E+00 0.  1.
         11    1    3    3    0    0 -0.25594375562E+02  0.35485947430E+01 -0.26251300479E+01  0.25972213866E+02  0.51100000000E-03 0. -1.
        -11    1    3    3    0    0 -0.29449529681E+01  0.71704765851E+01  0.13019854066E+02  0.15152725254E+02  0.51100000000E-03 0.  1.
        -12    1    3    3    0    0  0.12068556610E+02  0.28693042037E+01  0.13286195963E+02  0.18177072604E+02  0.00000000000E+00 0.  1.
</event>
<event>
 7    1  0.6198176E-013  0.5930193E+02  0.7816164E-02  0.1266605E+00
        -11   -1    0    0    0    0  0.00000000000E+00  0.00000000000E+00  0.45593999997E+02  0.45594000000E+02  0.51100000000E-03 0. -1.
         11   -1    0    0    0    0 -0.00000000000E+00 -0.00000000000E+00 -0.45593999997E+02  0.45594000000E+02  0.51100000000E-03 0.  1.
    9900012    2    1    2    0    0 -0.19567932053E+02  0.12388758917E+02  0.21916568951E+02  0.59301932401E+02  0.49999978795E+02 0.  0.
        -12    1    1    2    0    0  0.19567932053E+02 -0.12388758917E+02 -0.21916568951E+02  0.31886067599E+02  0.00000000000E+00 0.  1.
         11    1    3    3    0    0 -0.12773405569E+02  0.10701963508E+02  0.10929119381E+01  0.16699891302E+02  0.51100000000E-03 0. -1.
        -11    1    3    3    0    0  0.10996243260E+02 -0.66763373795E+01 -0.13896848537E+01  0.12939168091E+02  0.51100000000E-03 0.  1.
         12    1    3    3    0    0 -0.17790769744E+02  0.83631327890E+01  0.22213341867E+02  0.29662873007E+02  0.00000000000E+00 0. -1.
</event>
<event>
 7    1  0.6198176E-013  0.5930193E+02  0.7816164E-02  0.1266605E+00
        -11   -1    0    0    0    0  0.00000000000E+00  0.00000000000E+00  0.45593999997E+02  0.45594000000E+02  0.51100000000E-03 0.  1.
         11   -1    0    0    0    0 -0.00000000000E+00 -0.00000000000E+00 -0.45593999997E+02  0.45594000000E+02  0.51100000000E-03 0. -1.
    9900012    2    1    2    0    0 -0.16567270432E+02  0.16521217891E+02 -0.21663246945E+02  0.59301931594E+02  0.49999977324E+02 0.  0.
        -12    1    1    2    0    0  0.16567270432E+02 -0.16521217891E+02  0.21663246945E+02  0.31886068406E+02  0.00000000000E+00 0.  1.
         11    1    3    3    0    0  0.40621266901E+00  0.10483091923E+02 -0.22997431575E+02  0.25277303739E+02  0.51100000000E-03 0. -1.
        -11    1    3    3    0    0 -0.25573212193E+01 -0.31845474048E+01 -0.11777391678E+02  0.12465479894E+02  0.51100000000E-03 0.  1.
        -12    1    3    3    0    0 -0.14416161882E+02  0.92226733730E+01  0.13111576308E+02  0.21559147962E+02  0.00000000000E+00 0.  1.
</event>
<event>
 7    1  0.6198176E-013  0.5930194E+02  0.7816164E-02  0.1266605E+00
        -11   -1    0    0    0    0  0.00000000000E+00  0.00000000000E+00  0.45593999997E+02  0.45594000000E+02  0.51100000000E-03 0.  1.
         11   -1    0    0    0    0 -0.00000000000E+00 -0.00000000000E+00 -0.45593999997E+02  0.45594000000E+02  0.51100000000E-03 0. -1.
    9900012    2    1    2    0    0  0.48860191066E+01 -0.26218957494E+02 -0.17476098987E+02  0.59301937989E+02  0.49999988987E+02 0.  0.
        -12    1    1    2    0    0 -0.48860191066E+01  0.26218957494E+02  0.17476098987E+02  0.31886062011E+02  0.00000000000E+00 0.  1.
         11    1    3    3    0    0  0.22931580864E+01 -0.28687495769E+01  0.81080407236E+01  0.89010461622E+01  0.51100000000E-03 0. -1.
        -11    1    3    3    0    0  0.64038776210E+01 -0.17896370350E+02  0.45469832209E+01  0.19543919182E+02  0.51100000000E-03 0.  1.
         12    1    3    3    0    0 -0.38110166008E+01 -0.54538375664E+01 -0.30131122931E+02  0.30856972645E+02  0.00000000000E+00 0. -1.
</event>
<event>
 7    1  0.6198176E-013  0.5930194E+02  0.7816164E-02  0.1266605E+00
        -11   -1    0    0    0    0  0.00000000000E+00  0.00000000000E+00  0.45593999997E+02  0.45594000000E+02  0.51100000000E-03 0. -1.
         11   -1    0    0    0    0 -0.00000000000E+00 -0.00000000000E+00 -0.45593999997E+02  0.45594000000E+02  0.51100000000E-03 0.  1.
    9900012    2    1    2    0    0 -0.72308404097E+01  0.30656119563E+02  0.49637073593E+01  0.59301935482E+02  0.49999984414E+02 0.  0.
        -12    1    1    2    0    0  0.72308404097E+01 -0.30656119563E+02 -0.49637073593E+01  0.31886064518E+02  0.00000000000E+00 0.  1.
         11    1    3    3    0    0  0.42271154110E+00  0.27128967696E+02 -0.45549815758E+01  0.27511950689E+02  0.51100000000E-03 0. -1.
        -11    1    3    3    0    0 -0.15370520302E+02  0.24226671806E+01 -0.41058530711E+01  0.16092863024E+02  0.51100000000E-03 0.  1.
        -12    1    3    3    0    0  0.77169683508E+01  0.11044846868E+01  0.13624542006E+02  0.15697121769E+02  0.00000000000E+00 0.  1.
</event>
<event>
 7    1  0.6198176E-013  0.5930195E+02  0.7816164E-02  0.1266605E+00
        -11   -1    0    0    0    0  0.00000000000E+00  0.00000000000E+00  0.45593999997E+02  0.45594000000E+02  0.51100000000E-03 0. -1.
         11   -1    0    0    0    0 -0.00000000000E+00 -0.00000000000E+00 -0.45593999997E+02  0.45594000000E+02  0.51100000000E-03 0.  1.
    9900012    2    1    2    0    0  0.16670999899E+00 -0.20808895853E+01  0.31817639742E+02  0.59301951446E+02  0.50000013528E+02 0.  0.
        -12    1    1    2    0    0 -0.16670999899E+00  0.20808895853E+01 -0.31817639742E+02  0.31886048554E+02  0.00000000000E+00 0.  1.
         11    1    3    3    0    0 -0.46324133154E+01 -0.17040740871E+02  0.51682702408E+01  0.18399921742E+02  0.51100000000E-03 0. -1.
        -11    1    3    3    0    0  0.62539994494E+01  0.30733124315E+00 -0.36261394887E+01  0.72357342032E+01  0.51100000000E-03 0.  1.
         12    1    3    3    0    0 -0.14548761350E+01  0.14652520043E+02  0.30275508990E+02  0.33666295501E+02  0.00000000000E+00 0. -1.
</event>
<event>
 7    1  0.7099201E-013  0.5930196E+02  0.7816164E-02  0.1266605E+00
        -11   -1    0    0    0    0  0.00000000000E+00  0.00000000000E+00  0.45593999997E+02  0.45594000000E+02  0.51100000000E-03 0.  1.
         11   -1    0    0    0    0 -0.00000000000E+00 -0.00000000000E+00 -0.45593999997E+02  0.45594000000E+02  0.51100000000E-03 0. -1.
    9900012    2    1    2    0    0  0.19400315069E+02  0.16218652411E+02 -0.19424273989E+02  0.59301963388E+02  0.50000035308E+02 0.  0.
        -12    1    1    2    0    0 -0.19400315069E+02 -0.16218652411E+02  0.19424273989E+02  0.31886036612E+02  0.00000000000E+00 0.  1.
         11    1    3    3    0    0  0.68267172714E+01  0.13038749655E+02 -0.22656170654E+02  0.27016941541E+02  0.51100000000E-03 0. -1.
        -11    1    3    3    0    0  0.18038090880E+02  0.11998190059E+02  0.10856731291E+01  0.21691195765E+02  0.51100000000E-03 0.  1.
        -12    1    3    3    0    0 -0.54644930818E+01 -0.88182873033E+01  0.21462235353E+01  0.10593826083E+02  0.00000000000E+00 0.  1.
</event>
<event>
 7    1  0.6198176E-013  0.5930195E+02  0.7816164E-02  0.1266605E+00
        -11   -1    0    0    0    0  0.00000000000E+00  0.00000000000E+00  0.45593999997E+02  0.45594000000E+02  0.51100000000E-03 0.  1.
         11   -1    0    0    0    0 -0.00000000000E+00 -0.00000000000E+00 -0.45593999997E+02  0.45594000000E+02  0.51100000000E-03 0. -1.
    9900012    2    1    2    0    0 -0.30319068374E+01 -0.31595620561E+02 -0.30404507807E+01  0.59301952288E+02  0.50000015066E+02 0.  0.
        -12    1    1    2    0    0  0.30319068374E+01  0.31595620561E+02  0.30404507807E+01  0.31886047712E+02  0.00000000000E+00 0.  1.
         11    1    3    3    0    0  0.28320233371E+01 -0.21727008688E+02 -0.80327108893E+01  0.23336831558E+02  0.51100000000E-03 0. -1.
        -11    1    3    3    0    0 -0.14610710103E+02 -0.21934726980E+01 -0.93586690551E+01  0.17489106865E+02  0.51100000000E-03 0.  1.
         12    1    3    3    0    0  0.87467799285E+01 -0.76751391755E+01  0.14350929164E+02  0.18476013865E+02  0.00000000000E+00 0. -1.
</event>
<event>
 7    1  0.6198176E-013  0.5930198E+02  0.7816164E-02  0.1266605E+00
        -11   -1    0    0    0    0  0.00000000000E+00  0.00000000000E+00  0.45593999997E+02  0.45594000000E+02  0.51100000000E-03 0. -1.
         11   -1    0    0    0    0 -0.00000000000E+00 -0.00000000000E+00 -0.45593999997E+02  0.45594000000E+02  0.51100000000E-03 0.  1.
    9900012    2    1    2    0    0  0.26449212217E+01 -0.18540697283E+02  0.25806306665E+02  0.59301975982E+02  0.50000058277E+02 0.  0.
        -12    1    1    2    0    0 -0.26449212217E+01  0.18540697283E+02 -0.25806306665E+02  0.31886024018E+02  0.00000000000E+00 0.  1.
         11    1    3    3    0    0  0.54988840095E+01  0.87096221676E+01  0.36347217182E+01  0.10922749008E+02  0.51100000000E-03 0. -1.
        -11    1    3    3    0    0  0.94040654664E+01 -0.21477762072E+02  0.12833472495E+01  0.23481432906E+02  0.51100000000E-03 0.  1.
         12    1    3    3    0    0 -0.12258028254E+02 -0.57725573794E+01  0.20888237697E+02  0.24897794068E+02  0.00000000000E+00 0. -1.
</event>
<event>
 7    1  0.6198176E-013  0.5930196E+02  0.7816164E-02  0.1266605E+00
        -11   -1    0    0    0    0  0.00000000000E+00  0.00000000000E+00  0.45593999997E+02  0.45594000000E+02  0.51100000000E-03 0.  1.
         11   -1    0    0    0    0 -0.00000000000E+00 -0.00000000000E+00 -0.45593999997E+02  0.45594000000E+02  0.51100000000E-03 0. -1.
    9900012    2    1    2    0    0  0.18874470326E+02  0.17169689284E+02 -0.19122646411E+02  0.59301961269E+02  0.50000031444E+02 0.  0.
        -12    1    1    2    0    0 -0.18874470326E+02 -0.17169689284E+02  0.19122646411E+02  0.31886038731E+02  0.00000000000E+00 0.  1.
         11    1    3    3    0    0  0.55045750635E+01 -0.20276656143E+01  0.96660541141E+01  0.11306828772E+02  0.51100000000E-03 0. -1.
        -11    1    3    3    0    0 -0.53181866335E+01  0.13961512346E+02 -0.22369878940E+01  0.15106655856E+02  0.51100000000E-03 0.  1.
         12    1    3    3    0    0  0.18688081896E+02  0.52358425530E+01 -0.26551712631E+02  0.32888476642E+02  0.00000000000E+00 0. -1.
</event>
<event>
 7    1  0.6198176E-013  0.5930195E+02  0.7816164E-02  0.1266605E+00
        -11   -1    0    0    0    0  0.00000000000E+00  0.00000000000E+00  0.45593999997E+02  0.45594000000E+02  0.51100000000E-03 0. -1.
         11   -1    0    0    0    0 -0.00000000000E+00 -0.00000000000E+00 -0.45593999997E+02  0.45594000000E+02  0.51100000000E-03 0.  1.
    9900012    2    1    2    0    0 -0.93430397603E+01  0.14111179289E+02  0.27024103570E+02  0.59301953732E+02  0.50000017697E+02 0.  0.
        -12    1    1    2    0    0  0.93430397603E+01 -0.14111179289E+02 -0.27024103570E+02  0.31886046268E+02  0.00000000000E+00 0.  1.
         11    1    3    3    0    0 -0.15614109942E+02  0.10143377892E+02 -0.71796360903E+01  0.19955844232E+02  0.51100000000E-03 0. -1.
        -11    1    3    3    0    0 -0.63909493109E+00 -0.55838844223E+01  0.39304980087E+01  0.68583542071E+01  0.51100000000E-03 0.  1.
        -12    1    3    3    0    0  0.69101651131E+01  0.95516858193E+01  0.30273241651E+02  0.32487755292E+02  0.00000000000E+00 0.  1.
</event>
<event>
 7    1  0.6198176E-013  0.5930195E+02  0.7816164E-02  0.1266605E+00
        -11   -1    0    0    0    0  0.00000000000E+00  0.00000000000E+00  0.45593999997E+02  0.45594000000E+02  0.51100000000E-03 0.  1.
         11   -1    0    0    0    0 -0.00000000000E+00 -0.00000000000E+00 -0.45593999997E+02  0.45594000000E+02  0.51100000000E-03 0. -1.
    9900012    2    1    2    0    0  0.49561424219E+01 -0.20485916990E+02 -0.23926633503E+02  0.59301953939E+02  0.50000018076E+02 0.  0.
        -12    1    1    2    0    0 -0.49561424219E+01  0.20485916990E+02  0.23926633503E+02  0.31886046061E+02  0.00000000000E+00 0.  1.
         11    1    3    3    0    0  0.73269797296E+01 -0.32846580985E+01  0.46967652484E+01  0.93023230884E+01  0.51100000000E-03 0.  1.
        -11    1    3    3    0    0  0.98579039683E+01  0.79487178346E+01 -0.59204926934E+01  0.13979006397E+02  0.51100000000E-03 0. -1.
        -12    1    3    3    0    0 -0.12228741276E+02 -0.25149976726E+02 -0.22702906058E+02  0.36020624453E+02  0.00000000000E+00 0.  1.
</event>
<event>
 7    1  0.6198176E-013  0.5930199E+02  0.7816164E-02  0.1266605E+00
        -11   -1    0    0    0    0  0.00000000000E+00  0.00000000000E+00  0.45593999997E+02  0.45594000000E+02  0.51100000000E-03 0. -1.
         11   -1    0    0    0    0 -0.00000000000E+00 -0.00000000000E+00 -0.45593999997E+02  0.45594000000E+02  0.51100000000E-03 0.  1.
    9900012    2    1    2    0    0 -0.13318542016E+02 -0.28922584182E+02  0.16788333880E+01  0.59301985531E+02  0.50000075692E+02 0.  0.
        -12    1    1    2    0    0  0.13318542016E+02  0.28922584182E+02 -0.16788333880E+01  0.31886014469E+02  0.00000000000E+00 0.  1.
         11    1    3    3    0    0  0.12555554301E+02 -0.16428246492E+02  0.12079064521E+02  0.23946461671E+02  0.51100000000E-03 0. -1.
        -11    1    3    3    0    0  0.16461206062E+01  0.19468015380E+01 -0.17593834523E+01  0.30976087022E+01  0.51100000000E-03 0.  1.
         12    1    3    3    0    0 -0.27520216923E+02 -0.14441139228E+02 -0.86408476804E+01  0.32257915158E+02  0.00000000000E+00 0. -1.
</event>
<event>
 7    1  0.6198176E-013  0.5930195E+02  0.7816164E-02  0.1266605E+00
        -11   -1    0    0    0    0  0.00000000000E+00  0.00000000000E+00  0.45593999997E+02  0.45594000000E+02  0.51100000000E-03 0.  1.
         11   -1    0    0    0    0 -0.00000000000E+00 -0.00000000000E+00 -0.45593999997E+02  0.45594000000E+02  0.51100000000E-03 0. -1.
    9900012    2    1    2    0    0 -0.75381874523E+01  0.25901079584E+02 -0.17000873237E+02  0.59301954706E+02  0.50000019474E+02 0.  0.
        -12    1    1    2    0    0  0.75381874523E+01 -0.25901079584E+02  0.17000873237E+02  0.31886045294E+02  0.00000000000E+00 0.  1.
         11    1    3    3    0    0 -0.81801037165E+01 -0.37830443197E+01 -0.16957374426E+02  0.19203595206E+02  0.51100000000E-03 0. -1.
        -11    1    3    3    0    0  0.29881297768E+01  0.30452750836E+02 -0.81157574130E+01  0.31656981405E+02  0.51100000000E-03 0.  1.
        -12    1    3    3    0    0 -0.23462135126E+01 -0.76862693206E+00  0.80722586017E+01  0.84413780949E+01  0.00000000000E+00 0.  1.
</event>
<event>
 7    1  0.6198176E-013  0.5930195E+02  0.7816164E-02  0.1266605E+00
        -11   -1    0    0    0    0  0.00000000000E+00  0.00000000000E+00  0.45593999997E+02  0.45594000000E+02  0.51100000000E-03 0.  1.
         11   -1    0    0    0    0 -0.00000000000E+00 -0.00000000000E+00 -0.45593999997E+02  0.45594000000E+02  0.51100000000E-03 0. -1.
    9900012    2    1    2    0    0 -0.14888070193E+02 -0.52433545088E+01 -0.27705100924E+02  0.59301952616E+02  0.50000015663E+02 0.  0.
        -12    1    1    2    0    0  0.14888070193E+02  0.52433545088E+01  0.27705100924E+02  0.31886047384E+02  0.00000000000E+00 0.  1.
         11    1    3    3    0    0 -0.55307618133E+01 -0.81873967292E+01 -0.24118257770E+02  0.26063636538E+02  0.51100000000E-03 0. -1.
        -11    1    3    3    0    0 -0.90350193566E+00  0.10683939486E+02 -0.14080676927E+02  0.17698258153E+02  0.51100000000E-03 0.  1.
        -12    1    3    3    0    0 -0.84538064436E+01 -0.77398972655E+01  0.10493833773E+02  0.15540057925E+02  0.00000000000E+00 0.  1.
</event>
<event>
 7    1  0.6198176E-013  0.5930205E+02  0.7816164E-02  0.1266604E+00
        -11   -1    0    0    0    0  0.00000000000E+00  0.00000000000E+00  0.45593999997E+02  0.45594000000E+02  0.51100000000E-03 0. -1.
         11   -1    0    0    0    0 -0.00000000000E+00 -0.00000000000E+00 -0.45593999997E+02  0.45594000000E+02  0.51100000000E-03 0.  1.
    9900012    2    1    2    0    0 -0.25589303370E+02  0.17443169582E+02  0.75919145786E+01  0.59302050446E+02  0.50000194080E+02 0.  0.
        -12    1    1    2    0    0  0.25589303370E+02 -0.17443169582E+02 -0.75919145786E+01  0.31885949554E+02  0.00000000000E+00 0.  1.
         11    1    3    3    0    0 -0.11480128147E+02  0.19270856089E+02 -0.13214728934E+02  0.26034367627E+02  0.51100000000E-03 0. -1.
        -11    1    3    3    0    0  0.32614982781E+01 -0.46792862867E+01 -0.38707805894E+00  0.57168978350E+01  0.51100000000E-03 0.  1.
        -12    1    3    3    0    0 -0.17370673501E+02  0.28515997795E+01  0.21193721571E+02  0.27550784984E+02  0.00000000000E+00 0.  1.
</event>
<event>
 7    1  0.6198176E-013  0.5930195E+02  0.7816164E-02  0.1266605E+00
        -11   -1    0    0    0    0  0.00000000000E+00  0.00000000000E+00  0.45593999997E+02  0.45594000000E+02  0.51100000000E-03 0.  1.
         11   -1    0    0    0    0 -0.00000000000E+00 -0.00000000000E+00 -0.45593999997E+02  0.45594000000E+02  0.51100000000E-03 0. -1.
    9900012    2    1    2    0    0  0.21794390858E+02 -0.15293305203E+02 -0.17545355374E+02  0.59301950509E+02  0.50000011820E+02 0.  0.
        -12    1    1    2    0    0 -0.21794390858E+02  0.15293305203E+02  0.17545355374E+02  0.31886049491E+02  0.00000000000E+00 0.  1.
         11    1    3    3    0    0  0.22684135501E+02 -0.13155301823E+02 -0.22371906076E+01  0.26317997484E+02  0.51100000000E-03 0. -1.
        -11    1    3    3    0    0 -0.13400193168E+02 -0.71861953235E+01 -0.50018351873E+01  0.16007027696E+02  0.51100000000E-03 0.  1.
         12    1    3    3    0    0  0.12510448525E+02  0.50481919437E+01 -0.10306329580E+02  0.16976925328E+02  0.00000000000E+00 0. -1.
</event>
<event>
 7    1  0.6198176E-013  0.5930217E+02  0.7816164E-02  0.1266604E+00
        -11   -1    0    0    0    0  0.00000000000E+00  0.00000000000E+00  0.45593999997E+02  0.45594000000E+02  0.51100000000E-03 0.  1.
         11   -1    0    0    0    0 -0.00000000000E+00 -0.00000000000E+00 -0.45593999997E+02  0.45594000000E+02  0.51100000000E-03 0. -1.
    9900012    2    1    2    0    0 -0.18952448065E+02  0.24000280237E+02 -0.90275831687E+01  0.59302172474E+02  0.50000416630E+02 0.  0.
        -12    1    1    2    0    0  0.18952448065E+02 -0.24000280237E+02  0.90275831687E+01  0.31885827526E+02  0.00000000000E+00 0.  1.
         11    1    3    3    0    0 -0.47708260740E+01  0.12243670172E+02  0.86194224398E+01  0.15715046426E+02  0.51100000000E-03 0.  1.
        -11    1    3    3    0    0 -0.16496216316E+02  0.19547117072E+01  0.61760879694E+01  0.17722587663E+02  0.51100000000E-03 0. -1.
        -12    1    3    3    0    0  0.23145943245E+01  0.98018983584E+01 -0.23823093578E+02  0.25864538386E+02  0.00000000000E+00 0.  1.
</event>
<event>
 7    1  0.6198176E-013  0.5930194E+02  0.7816164E-02  0.1266605E+00
        -11   -1    0    0    0    0  0.00000000000E+00  0.00000000000E+00  0.45593999997E+02  0.45594000000E+02  0.51100000000E-03 0.  1.
         11   -1    0    0    0    0 -0.00000000000E+00 -0.00000000000E+00 -0.45593999997E+02  0.45594000000E+02  0.51100000000E-03 0. -1.
    9900012    2    1    2    0    0  0.23520111827E+02 -0.16719356185E+02 -0.13564226950E+02  0.59301940595E+02  0.49999993740E+02 0.  0.
        -12    1    1    2    0    0 -0.23520111827E+02  0.16719356185E+02  0.13564226950E+02  0.31886059405E+02  0.00000000000E+00 0.  1.
         11    1    3    3    0    0 -0.12327546806E+02 -0.33037356370E+01 -0.10760911559E+02  0.16693720294E+02  0.51100000000E-03 0.  1.
        -11    1    3    3    0    0  0.38717799338E+01 -0.84660607595E+01  0.29044626741E+01  0.97519622808E+01  0.51100000000E-03 0. -1.
         12    1    3    3    0    0  0.31975878699E+02 -0.49495597887E+01 -0.57077780652E+01  0.32856258021E+02  0.00000000000E+00 0. -1.
</event>
<event>
 7    1  0.6198176E-013  0.5930198E+02  0.7816164E-02  0.1266605E+00
        -11   -1    0    0    0    0  0.00000000000E+00  0.00000000000E+00  0.45593999997E+02  0.45594000000E+02  0.51100000000E-03 0. -1.
         11   -1    0    0    0    0 -0.00000000000E+00 -0.00000000000E+00 -0.45593999997E+02  0.45594000000E+02  0.51100000000E-03 0.  1.
    9900012    2    1    2    0    0  0.47236802602E+01  0.26216549599E+02 -0.17524193355E+02  0.59301984558E+02  0.50000073917E+02 0.  0.
        -12    1    1    2    0    0 -0.47236802602E+01 -0.26216549599E+02  0.17524193355E+02  0.31886015442E+02  0.00000000000E+00 0.  1.
         11    1    3    3    0    0  0.12192508628E+02 -0.24680840782E+01 -0.82354589448E+01  0.14918830046E+02  0.51100000000E-03 0. -1.
        -11    1    3    3    0    0  0.10593699836E+01  0.20723387593E+01  0.10103695552E+02  0.10368293822E+02  0.51100000000E-03 0.  1.
         12    1    3    3    0    0 -0.85281983512E+01  0.26612294917E+02 -0.19392429962E+02  0.34014860690E+02  0.00000000000E+00 0. -1.
</event>
<event>
 7    1  0.6198176E-013  0.5930193E+02  0.7816164E-02  0.1266605E+00
        -11   -1    0    0    0    0  0.00000000000E+00  0.00000000000E+00  0.45593999997E+02  0.45594000000E+02  0.51100000000E-03 0. -1.
         11   -1    0    0    0    0 -0.00000000000E+00 -0.00000000000E+00 -0.45593999997E+02  0.45594000000E+02  0.51100000000E-03 0.  1.
    9900012    2    1    2    0    0  0.71885737689E+01 -0.70198338553E+01  0.30261653257E+02  0.59301932227E+02  0.49999978478E+02 0.  0.
        -12    1    1    2    0    0 -0.71885737689E+01  0.70198338553E+01 -0.30261653257E+02  0.31886067773E+02  0.00000000000E+00 0.  1.
         11    1    3    3    0    0 -0.46979260318E+01 -0.14770979184E+01 -0.42902815090E+01  0.65313737413E+01  0.51100000000E-03 0. -1.
        -11    1    3    3    0    0  0.16067031554E+02  0.87766382146E+01  0.39539036619E+01  0.18729982267E+02  0.51100000000E-03 0.  1.
         12    1    3    3    0    0 -0.41805317531E+01 -0.14319374151E+02  0.30598031104E+02  0.34040576218E+02  0.00000000000E+00 0. -1.
</event>
<event>
 7    1  0.6198176E-013  0.5930198E+02  0.7816164E-02  0.1266605E+00
        -11   -1    0    0    0    0  0.00000000000E+00  0.00000000000E+00  0.45593999997E+02  0.45594000000E+02  0.51100000000E-03 0.  1.
         11   -1    0    0    0    0 -0.00000000000E+00 -0.00000000000E+00 -0.45593999997E+02  0.45594000000E+02  0.51100000000E-03 0. -1.
    9900012    2    1    2    0    0 -0.17103303753E+01  0.16949312954E+02 -0.26953925163E+02  0.59301976082E+02  0.50000058460E+02 0.  0.
        -12    1    1    2    0    0  0.17103303753E+01 -0.16949312954E+02  0.26953925163E+02  0.31886023918E+02  0.00000000000E+00 0.  1.
         11    1    3    3    0    0  0.33483328143E-01 -0.19935543873E+01 -0.11441026772E+01  0.22987717210E+01  0.51100000000E-03 0. -1.
        -11    1    3    3    0    0  0.13861796054E+02  0.96866833297E+01  0.79423620732E+01  0.18683210092E+02  0.51100000000E-03 0.  1.
         12    1    3    3    0    0 -0.15605609757E+02  0.92561840111E+01 -0.33752184559E+02  0.38319994270E+02  0.00000000000E+00 0. -1.
</event>
<event>
 7    1  0.6198176E-013  0.5930189E+02  0.7816164E-02  0.1266605E+00
        -11   -1    0    0    0    0  0.00000000000E+00  0.00000000000E+00  0.45593999997E+02  0.45594000000E+02  0.51100000000E-03 0. -1.
         11   -1    0    0    0    0 -0.00000000000E+00 -0.00000000000E+00 -0.45593999997E+02  0.45594000000E+02  0.51100000000E-03 0.  1.
    9900012    2    1    2    0    0 -0.24017250132E+02  0.19294516788E+02  0.82229659556E+01  0.59301892506E+02  0.49999906037E+02 0.  0.
        -12    1    1    2    0    0  0.24017250132E+02 -0.19294516788E+02 -0.82229659556E+01  0.31886107494E+02  0.00000000000E+00 0.  1.
         11    1    3    3    0    0 -0.11409780374E+02  0.77470422073E+00  0.43151361676E+01  0.12223078794E+02  0.51100000000E-03 0. -1.
        -11    1    3    3    0    0  0.15413258382E+01 -0.59381207084E+01 -0.12841654936E+02  0.14231832793E+02  0.51100000000E-03 0.  1.
         12    1    3    3    0    0 -0.14148795597E+02  0.24457933276E+02  0.16749484724E+02  0.32846980919E+02  0.00000000000E+00 0. -1.
</event>
<event>
 7    1  0.6198176E-013  0.5930194E+02  0.7816164E-02  0.1266605E+00
        -11   -1    0    0    0    0  0.00000000000E+00  0.00000000000E+00  0.45593999997E+02  0.45594000000E+02  0.51100000000E-03 0.  1.
         11   -1    0    0    0    0 -0.00000000000E+00 -0.00000000000E+00 -0.45593999997E+02  0.45594000000E+02  0.51100000000E-03 0. -1.
    9900012    2    1    2    0    0 -0.22796663934E+02 -0.16922490907E+02 -0.14514201750E+02  0.59301942899E+02  0.49999997941E+02 0.  0.
        -12    1    1    2    0    0  0.22796663934E+02  0.16922490907E+02  0.14514201750E+02  0.31886057101E+02  0.00000000000E+00 0.  1.
         11    1    3    3    0    0 -0.12246897570E+02  0.56448873089E+01 -0.10452534311E+02  0.17061850034E+02  0.51100000000E-03 0. -1.
        -11    1    3    3    0    0 -0.82793611696E+01  0.60959988448E+01  0.58466596804E+01  0.11827614002E+02  0.51100000000E-03 0.  1.
         12    1    3    3    0    0 -0.22704051943E+01 -0.28663377061E+02 -0.99083271193E+01  0.30412478863E+02  0.00000000000E+00 0. -1.
</event>
<event>
 7    1  0.6198176E-013  0.5930194E+02  0.7816164E-02  0.1266605E+00
        -11   -1    0    0    0    0  0.00000000000E+00  0.00000000000E+00  0.45593999997E+02  0.45594000000E+02  0.51100000000E-03 0.  1.
         11   -1    0    0    0    0 -0.00000000000E+00 -0.00000000000E+00 -0.45593999997E+02  0.45594000000E+02  0.51100000000E-03 0. -1.
    9900012    2    1    2    0    0 -0.13446546162E+01  0.27152846286E+02 -0.16662402840E+02  0.59301939944E+02  0.49999992553E+02 0.  0.
        -12    1    1    2    0    0  0.13446546162E+01 -0.27152846286E+02  0.16662402840E+02  0.31886060056E+02  0.00000000000E+00 0.  1.
         11    1    3    3    0    0 -0.30331609122E+01  0.11995508662E+02 -0.92221987410E+01  0.15431825656E+02  0.51100000000E-03 0. -1.
        -11    1    3    3    0    0 -0.62336722899E+01  0.96386673268E+01  0.15322033568E+02  0.19144902480E+02  0.51100000000E-03 0.  1.
         12    1    3    3    0    0  0.79221785859E+01  0.55186702971E+01 -0.22762237667E+02  0.24725211809E+02  0.00000000000E+00 0. -1.
</event>
<event>
 7    1  0.6198176E-013  0.5930193E+02  0.7816164E-02  0.1266605E+00
        -11   -1    0    0    0    0  0.00000000000E+00  0.00000000000E+00  0.45593999997E+02  0.45594000000E+02  0.51100000000E-03 0. -1.
         11   -1    0    0    0    0 -0.00000000000E+00 -0.00000000000E+00 -0.45593999997E+02  0.45594000000E+02  0.51100000000E-03 0.  1.
    9900012    2    1    2    0    0  0.19173722730E+02  0.10768308973E+02  0.23089683968E+02  0.59301927378E+02  0.49999969635E+02 0.  0.
        -12    1    1    2    0    0 -0.19173722730E+02 -0.10768308973E+02 -0.23089683968E+02  0.31886072622E+02  0.00000000000E+00 0.  1.
         11    1    3    3    0    0  0.10816336615E+02  0.18039632035E+01  0.97658758064E+01  0.14683996443E+02  0.51100000000E-03 0. -1.
        -11    1    3    3    0    0 -0.20097776968E+01 -0.15533096936E+02  0.23304307022E+01  0.15834999664E+02  0.51100000000E-03 0.  1.
        -12    1    3    3    0    0  0.10367163812E+02  0.24497442706E+02  0.10993377460E+02  0.28782931272E+02  0.00000000000E+00 0.  1.
</event>
<event>
 7    1  0.6198176E-013  0.5930190E+02  0.7816164E-02  0.1266605E+00
        -11   -1    0    0    0    0  0.00000000000E+00  0.00000000000E+00  0.45593999997E+02  0.45594000000E+02  0.51100000000E-03 0. -1.
         11   -1    0    0    0    0 -0.00000000000E+00 -0.00000000000E+00 -0.45593999997E+02  0.45594000000E+02  0.51100000000E-03 0.  1.
    9900012    2    1    2    0    0 -0.14112630445E+02 -0.26144074467E+02 -0.11577765422E+02  0.59301896130E+02  0.49999912646E+02 0.  0.
        -12    1    1    2    0    0  0.14112630445E+02  0.26144074467E+02  0.11577765422E+02  0.31886103870E+02  0.00000000000E+00 0.  1.
         11    1    3    3    0    0 -0.46840443800E+01 -0.13403318922E+02 -0.60542086412E+00  0.14211114122E+02  0.51100000000E-03 0. -1.
        -11    1    3    3    0    0 -0.87060547881E+01 -0.26862587130E+02 -0.12474696862E+02  0.30870893077E+02  0.51100000000E-03 0.  1.
         12    1    3    3    0    0 -0.72253127669E+00  0.14121831586E+02  0.15023523041E+01  0.14219888931E+02  0.00000000000E+00 0. -1.
</event>
<event>
 7    1  0.6198176E-013  0.5930195E+02  0.7816164E-02  0.1266605E+00
        -11   -1    0    0    0    0  0.00000000000E+00  0.00000000000E+00  0.45593999997E+02  0.45594000000E+02  0.51100000000E-03 0.  1.
         11   -1    0    0    0    0 -0.00000000000E+00 -0.00000000000E+00 -0.45593999997E+02  0.45594000000E+02  0.51100000000E-03 0. -1.
    9900012    2    1    2    0    0 -0.15306798039E+02  0.42982727570E+01 -0.27639590119E+02  0.59301950436E+02  0.50000011687E+02 0.  0.
        -12    1    1    2    0    0  0.15306798039E+02 -0.42982727570E+01  0.27639590119E+02  0.31886049564E+02  0.00000000000E+00 0.  1.
         11    1    3    3    0    0 -0.10191486477E+02 -0.18753250703E+01 -0.12231953073E+02  0.16031341709E+02  0.51100000000E-03 0. -1.
        -11    1    3    3    0    0 -0.10532146899E+02 -0.96680135517E+01 -0.21186640510E+02  0.25559153756E+02  0.51100000000E-03 0.  1.
        -12    1    3    3    0    0  0.54168353372E+01  0.15841611379E+02  0.57790034651E+01  0.17711454971E+02  0.00000000000E+00 0.  1.
</event>
<event>
 7    1  0.6198176E-013  0.5930193E+02  0.7816164E-02  0.1266605E+00
        -11   -1    0    0    0    0  0.00000000000E+00  0.00000000000E+00  0.45593999997E+02  0.45594000000E+02  0.51100000000E-03 0.  1.
         11   -1    0    0    0    0 -0.00000000000E+00 -0.00000000000E+00 -0.45593999997E+02  0.45594000000E+02  0.51100000000E-03 0. -1.
    9900012    2    1    2    0    0  0.30436726779E+02 -0.11733632119E+01  0.94313406006E+01  0.59301932450E+02  0.49999978886E+02 0.  0.
        -12    1    1    2    0    0 -0.30436726779E+02  0.11733632119E+01 -0.94313406006E+01  0.31886067550E+02  0.00000000000E+00 0.  1.
         11    1    3    3    0    0 -0.96165534107E+01  0.51739458397E+01  0.24770818775E+01  0.11197488555E+02  0.51100000000E-03 0. -1.
        -11    1    3    3    0    0  0.17048023768E+01  0.67519140644E+01  0.21969779833E+01  0.73021508610E+01  0.51100000000E-03 0.  1.
         12    1    3    3    0    0  0.38348477813E+02 -0.13099223116E+02  0.47572807398E+01  0.40802293034E+02  0.00000000000E+00 0. -1.
</event>
<event>
 7    1  0.6198176E-013  0.5930196E+02  0.7816164E-02  0.1266605E+00
        -11   -1    0    0    0    0  0.00000000000E+00  0.00000000000E+00  0.45593999997E+02  0.45594000000E+02  0.51100000000E-03 0.  1.
         11   -1    0    0    0    0 -0.00000000000E+00 -0.00000000000E+00 -0.45593999997E+02  0.45594000000E+02  0.51100000000E-03 0. -1.
    9900012    2    1    2    0    0  0.25002270060E+02  0.15134004683E+02 -0.12750208480E+02  0.59301961955E+02  0.50000032695E+02 0.  0.
        -12    1    1    2    0    0 -0.25002270060E+02 -0.15134004683E+02  0.12750208480E+02  0.31886038045E+02  0.00000000000E+00 0.  1.
         11    1    3    3    0    0 -0.19746556220E+01 -0.54745411034E+01 -0.22520627578E+01  0.62403246746E+01  0.51100000000E-03 0. -1.
        -11    1    3    3    0    0  0.52814468712E+01  0.11096500887E+02  0.14240480977E+02  0.18810032209E+02  0.51100000000E-03 0.  1.
         12    1    3    3    0    0  0.21695478811E+02  0.95120448996E+01 -0.24738626699E+02  0.34251605071E+02  0.00000000000E+00 0. -1.
</event>
<event>
 7    1  0.6198176E-013  0.5930200E+02  0.7816164E-02  0.1266605E+00
        -11   -1    0    0    0    0  0.00000000000E+00  0.00000000000E+00  0.45593999997E+02  0.45594000000E+02  0.51100000000E-03 0. -1.
         11   -1    0    0    0    0 -0.00000000000E+00 -0.00000000000E+00 -0.45593999997E+02  0.45594000000E+02  0.51100000000E-03 0.  1.
    9900012    2    1    2    0    0 -0.29270877622E+02 -0.94734503359E+00  0.12610907109E+02  0.59302004367E+02  0.50000110045E+02 0.  0.
        -12    1    1    2    0    0  0.29270877622E+02  0.94734503359E+00 -0.12610907109E+02  0.31885995633E+02  0.00000000000E+00 0.  1.
         11    1    3    3    0    0  0.44023807585E+01 -0.22486790782E+01 -0.13111687759E+01  0.51143599560E+01  0.51100000000E-03 0. -1.
        -11    1    3    3    0    0 -0.12273050805E+02  0.13761058352E+02  0.21468630430E+02  0.28300116534E+02  0.51100000000E-03 0.  1.
         12    1    3    3    0    0 -0.21400207575E+02 -0.12459724308E+02 -0.75465545452E+01  0.25887527877E+02  0.00000000000E+00 0. -1.
</event>
<event>
 7    1  0.6198176E-013  0.5930194E+02  0.7816164E-02  0.1266605E+00
        -11   -1    0    0    0    0  0.00000000000E+00  0.00000000000E+00  0.45593999997E+02  0.45594000000E+02  0.51100000000E-03 0.  1.
         11   -1    0    0    0    0 -0.00000000000E+00 -0.00000000000E+00 -0.45593999997E+02  0.45594000000E+02  0.51100000000E-03 0. -1.
    9900012    2    1    2    0    0  0.17786891856E+02  0.28038487713E+01 -0.26315124877E+02  0.59301938984E+02  0.49999990801E+02 0.  0.
        -12    1    1    2    0    0 -0.17786891856E+02 -0.28038487713E+01  0.26315124877E+02  0.31886061016E+02  0.00000000000E+00 0.  1.
         11    1    3    3    0    0  0.12320608053E+02 -0.15911578607E+02 -0.18842147538E+02  0.27568138142E+02  0.51100000000E-03 0. -1.
        -11    1    3    3    0    0  0.55419930229E+01  0.37002887376E+01 -0.13889198288E+02  0.15405052832E+02  0.51100000000E-03 0.  1.
        -12    1    3    3    0    0 -0.75709219442E-01  0.15015138640E+02  0.64162209489E+01  0.16328748009E+02  0.00000000000E+00 0.  1.
</event>
<event>
 7    1  0.6198176E-013  0.5930192E+02  0.7816164E-02  0.1266605E+00
        -11   -1    0    0    0    0  0.00000000000E+00  0.00000000000E+00  0.45593999997E+02  0.45594000000E+02  0.51100000000E-03 0.  1.
         11   -1    0    0    0    0 -0.00000000000E+00 -0.00000000000E+00 -0.45593999997E+02  0.45594000000E+02  0.51100000000E-03 0. -1.
    9900012    2    1    2    0    0  0.29205048201E+02  0.12710804258E+02  0.14908562047E+01  0.59301920945E+02  0.49999957902E+02 0.  0.
        -12    1    1    2    0    0 -0.29205048201E+02 -0.12710804258E+02 -0.14908562047E+01  0.31886079055E+02  0.00000000000E+00 0.  1.
         11    1    3    3    0    0  0.87719066709E+01 -0.45344605385E+01 -0.11388557812E+02  0.15073384766E+02  0.51100000000E-03 0. -1.
        -11    1    3    3    0    0 -0.23170765079E+01  0.35794270236E+01 -0.89182690286E+01  0.98851739534E+01  0.51100000000E-03 0.  1.
         12    1    3    3    0    0  0.22750218038E+02  0.13665837773E+02  0.21797683045E+02  0.34343362225E+02  0.00000000000E+00 0. -1.
</event>
<event>
 7    1  0.6198176E-013  0.5930199E+02  0.7816164E-02  0.1266605E+00
        -11   -1    0    0    0    0  0.00000000000E+00  0.00000000000E+00  0.45593999997E+02  0.45594000000E+02  0.51100000000E-03 0. -1.
         11   -1    0    0    0    0 -0.00000000000E+00 -0.00000000000E+00 -0.45593999997E+02  0.45594000000E+02  0.51100000000E-03 0.  1.
    9900012    2    1    2    0    0 -0.22236207707E+02  0.39422316714E+01  0.22510611404E+02  0.59301988184E+02  0.50000080530E+02 0.  0.
        -12    1    1    2    0    0  0.22236207707E+02 -0.39422316714E+01 -0.22510611404E+02  0.31886011816E+02  0.00000000000E+00 0.  1.
         11    1    3    3    0    0 -0.10004393326E+02 -0.71394722004E+00  0.49601918917E+01  0.11189330199E+02  0.51100000000E-03 0. -1.
        -11    1    3    3    0    0 -0.14275763906E+02 -0.11502342485E+02  0.24335743719E+02  0.30468504072E+02  0.51100000000E-03 0.  1.
         12    1    3    3    0    0  0.20439495248E+01  0.16158521376E+02 -0.67853242067E+01  0.17644153913E+02  0.00000000000E+00 0. -1.
</event>
<event>
 7    1  0.6198176E-013  0.5930194E+02  0.7816164E-02  0.1266605E+00
        -11   -1    0    0    0    0  0.00000000000E+00  0.00000000000E+00  0.45593999997E+02  0.45594000000E+02  0.51100000000E-03 0. -1.
         11   -1    0    0    0    0 -0.00000000000E+00 -0.00000000000E+00 -0.45593999997E+02  0.45594000000E+02  0.51100000000E-03 0.  1.
    9900012    2    1    2    0    0  0.12760192736E+02 -0.12870563892E+02  0.26234463779E+02  0.59301936848E+02  0.49999986906E+02 0.  0.
        -12    1    1    2    0    0 -0.12760192736E+02  0.12870563892E+02 -0.26234463779E+02  0.31886063152E+02  0.00000000000E+00 0.  1.
         11    1    3    3    0    0  0.28568507634E+01 -0.17459926212E+02 -0.21613509588E+01  0.17823637615E+02  0.51100000000E-03 0. -1.
        -11    1    3    3    0    0 -0.54313475616E+01 -0.43125607610E+01 -0.11405638148E+01  0.70284139555E+01  0.51100000000E-03 0.  1.
         12    1    3    3    0    0  0.15334689534E+02  0.89019230802E+01  0.29536378553E+02  0.34449885278E+02  0.00000000000E+00 0. -1.
</event>
<event>
 7    1  0.6198176E-013  0.5930195E+02  0.7816164E-02  0.1266605E+00
        -11   -1    0    0    0    0  0.00000000000E+00  0.00000000000E+00  0.45593999997E+02  0.45594000000E+02  0.51100000000E-03 0.  1.
         11   -1    0    0    0    0 -0.00000000000E+00 -0.00000000000E+00 -0.45593999997E+02  0.45594000000E+02  0.51100000000E-03 0. -1.
    9900012    2    1    2    0    0 -0.24439881609E+02  0.87211657784E+01  0.18529800580E+02  0.59301952031E+02  0.50000014595E+02 0.  0.
        -12    1    1    2    0    0  0.24439881609E+02 -0.87211657784E+01 -0.18529800580E+02  0.31886047969E+02  0.00000000000E+00 0.  1.
         11    1    3    3    0    0  0.34094503501E+01  0.10350557810E+02  0.63144210235E+01  0.12594852591E+02  0.51100000000E-03 0. -1.
        -11    1    3    3    0    0  0.62765866742E+01  0.74715223427E+01  0.23642779815E+01  0.10040368371E+02  0.51100000000E-03 0.  1.
        -12    1    3    3    0    0 -0.34125918633E+02 -0.91009143744E+01  0.98511015749E+01  0.36666731068E+02  0.00000000000E+00 0.  1.
</event>
<event>
 7    1  0.6198176E-013  0.5930191E+02  0.7816164E-02  0.1266605E+00
        -11   -1    0    0    0    0  0.00000000000E+00  0.00000000000E+00  0.45593999997E+02  0.45594000000E+02  0.51100000000E-03 0. -1.
         11   -1    0    0    0    0 -0.00000000000E+00 -0.00000000000E+00 -0.45593999997E+02  0.45594000000E+02  0.51100000000E-03 0.  1.
    9900012    2    1    2    0    0 -0.24521752302E+01 -0.30617529027E+02  0.85601564361E+01  0.59301913296E+02  0.49999943953E+02 0.  0.
        -12    1    1    2    0    0  0.24521752302E+01  0.30617529027E+02 -0.85601564361E+01  0.31886086704E+02  0.00000000000E+00 0.  1.
         11    1    3    3    0    0 -0.76367406518E+00 -0.14670233995E+02  0.15748141645E+01  0.14774268288E+02  0.51100000000E-03 0. -1.
        -11    1    3    3    0    0 -0.19327167877E+02 -0.13751088532E+02  0.11243686468E+02  0.26249806468E+02  0.51100000000E-03 0.  1.
        -12    1    3    3    0    0  0.17638666712E+02 -0.21962064998E+01 -0.42583441959E+01  0.18277838539E+02  0.00000000000E+00 0.  1.
</event>
<event>
 7    1  0.6198176E-013  0.5930194E+02  0.7816164E-02  0.1266605E+00
        -11   -1    0    0    0    0  0.00000000000E+00  0.00000000000E+00  0.45593999997E+02  0.45594000000E+02  0.51100000000E-03 0.  1.
         11   -1    0    0    0    0 -0.00000000000E+00 -0.00000000000E+00 -0.45593999997E+02  0.45594000000E+02  0.51100000000E-03 0. -1.
    9900012    2    1    2    0    0 -0.21664466605E+02  0.23371311988E+02 -0.10739071782E+01  0.59301943268E+02  0.49999998614E+02 0.  0.
        -12    1    1    2    0    0  0.21664466605E+02 -0.23371311988E+02  0.10739071782E+01  0.31886056732E+02  0.00000000000E+00 0.  1.
         11    1    3    3    0    0 -0.15195082105E+01  0.12100272454E+01  0.25794965048E+01  0.32290669884E+01  0.51100000000E-03 0. -1.
        -11    1    3    3    0    0 -0.32728565865E+02  0.22173035296E+02  0.62967778973E+01  0.40030637391E+02  0.51100000000E-03 0.  1.
         12    1    3    3    0    0  0.12583607471E+02 -0.11750553200E-01 -0.99501815803E+01  0.16042238888E+02  0.00000000000E+00 0. -1.
</event>
<event>
 7    1  0.6198176E-013  0.5930194E+02  0.7816164E-02  0.1266605E+00
        -11   -1    0    0    0    0  0.00000000000E+00  0.00000000000E+00  0.45593999997E+02  0.45594000000E+02  0.51100000000E-03 0. -1.
         11   -1    0    0    0    0 -0.00000000000E+00 -0.00000000000E+00 -0.45593999997E+02  0.45594000000E+02  0.51100000000E-03 0.  1.
    9900012    2    1    2    0    0 -0.16167187764E+02 -0.98642374310E+01  0.25652280785E+02  0.59301942706E+02  0.49999997589E+02 0.  0.
        -12    1    1    2    0    0  0.16167187764E+02  0.98642374310E+01 -0.25652280785E+02  0.31886057294E+02  0.00000000000E+00 0.  1.
         11    1    3    3    0    0 -0.27154349661E+02 -0.49033970468E+01  0.29026871385E+02  0.40049485275E+02  0.51100000000E-03 0. -1.
        -11    1    3    3    0    0  0.40702936961E+01 -0.94604883004E+01 -0.38304938646E+01  0.10988212464E+02  0.51100000000E-03 0.  1.
        -12    1    3    3    0    0  0.69168682012E+01  0.44996479162E+01  0.45590326496E+00  0.82642449667E+01  0.00000000000E+00 0.  1.
</event>
<event>
 7    1  0.6198176E-013  0.5930178E+02  0.7816164E-02  0.1266605E+00
        -11   -1    0    0    0    0  0.00000000000E+00  0.00000000000E+00  0.45593999997E+02  0.45594000000E+02  0.51100000000E-03 0.  1.
         11   -1    0    0    0    0 -0.00000000000E+00 -0.00000000000E+00 -0.45593999997E+02  0.45594000000E+02  0.51100000000E-03 0. -1.
    9900012    2    1    2    0    0 -0.72621231600E+01  0.17637626863E+02 -0.25552045347E+02  0.59301775143E+02  0.49999691995E+02 0.  0.
        -12    1    1    2    0    0  0.72621231600E+01 -0.17637626863E+02  0.25552045347E+02  0.31886224857E+02  0.00000000000E+00 0.  1.
         11    1    3    3    0    0 -0.16647873650E+02 -0.55991026541E+01 -0.60473857454E+01  0.18576127751E+02  0.51100000000E-03 0. -1.
        -11    1    3    3    0    0  0.12740423757E+02  0.15310268240E+01 -0.11849652148E+02  0.17466444886E+02  0.51100000000E-03 0.  1.
        -12    1    3    3    0    0 -0.33546732671E+01  0.21705702694E+02 -0.76550074536E+01  0.23259202507E+02  0.00000000000E+00 0.  1.
</event>
<event>
 7    1  0.8915687E-013  0.5930194E+02  0.7816164E-02  0.1266605E+00
        -11   -1    0    0    0    0  0.00000000000E+00  0.00000000000E+00  0.45593999997E+02  0.45594000000E+02  0.51100000000E-03 0. -1.
         11   -1    0    0    0    0 -0.00000000000E+00 -0.00000000000E+00 -0.45593999997E+02  0.45594000000E+02  0.51100000000E-03 0.  1.
    9900012    2    1    2    0    0  0.16243444226E+02 -0.12243236495E+02  0.24555540459E+02  0.59301938980E+02  0.49999990793E+02 0.  0.
        -12    1    1    2    0    0 -0.16243444226E+02  0.12243236495E+02 -0.24555540459E+02  0.31886061020E+02  0.00000000000E+00 0.  1.
         11    1    3    3    0    0 -0.64047944492E+01 -0.29104927602E+01  0.24675175458E+02  0.25658461454E+02  0.51100000000E-03 0. -1.
        -11    1    3    3    0    0  0.14317405244E+02  0.28103250661E+01  0.81926767576E+01  0.16733378996E+02  0.51100000000E-03 0.  1.
        -12    1    3    3    0    0  0.83308334303E+01 -0.12143068801E+02 -0.83123117567E+01  0.16910098530E+02  0.00000000000E+00 0.  1.
</event>
<event>
 7    1  0.6198176E-013  0.5930158E+02  0.7816164E-02  0.1266606E+00
        -11   -1    0    0    0    0  0.00000000000E+00  0.00000000000E+00  0.45593999997E+02  0.45594000000E+02  0.51100000000E-03 0. -1.
         11   -1    0    0    0    0 -0.00000000000E+00 -0.00000000000E+00 -0.45593999997E+02  0.45594000000E+02  0.51100000000E-03 0.  1.
    9900012    2    1    2    0    0  0.22705748529E+02 -0.14810745591E+02 -0.16787935104E+02  0.59301577085E+02  0.49999330781E+02 0.  0.
        -12    1    1    2    0    0 -0.22705748529E+02  0.14810745591E+02  0.16787935104E+02  0.31886422915E+02  0.00000000000E+00 0.  1.
         11    1    3    3    0    0  0.69076697274E+01 -0.62607067694E+00 -0.13856466784E+02  0.15495468291E+02  0.51100000000E-03 0. -1.
        -11    1    3    3    0    0  0.26727877568E+02 -0.16526240531E+01  0.68934700143E+00  0.26787792090E+02  0.51100000000E-03 0.  1.
         12    1    3    3    0    0 -0.10929798766E+02 -0.12532050861E+02 -0.36208153215E+01  0.17018316704E+02  0.00000000000E+00 0. -1.
</event>
<event>
 7    1  0.6688034E-013  0.5930197E+02  0.7816164E-02  0.1266605E+00
        -11   -1    0    0    0    0  0.00000000000E+00  0.00000000000E+00  0.45593999997E+02  0.45594000000E+02  0.51100000000E-03 0. -1.
         11   -1    0    0    0    0 -0.00000000000E+00 -0.00000000000E+00 -0.45593999997E+02  0.45594000000E+02  0.51100000000E-03 0.  1.
    9900012    2    1    2    0    0 -0.12484405859E+01 -0.78041117279E+01  0.30891032860E+02  0.59301973673E+02  0.50000054065E+02 0.  0.
        -12    1    1    2    0    0  0.12484405859E+01  0.78041117279E+01 -0.30891032860E+02  0.31886026327E+02  0.00000000000E+00 0.  1.
         11    1    3    3    0    0 -0.84683651760E+01 -0.19923804362E+02  0.24189005253E+02  0.32461964888E+02  0.51100000000E-03 0. -1.
        -11    1    3    3    0    0  0.46061995187E+00  0.83970259161E+01  0.13926922750E+02  0.16269031702E+02  0.51100000000E-03 0.  1.
        -12    1    3    3    0    0  0.67593046382E+01  0.37226667178E+01 -0.72248951419E+01  0.10570977083E+02  0.00000000000E+00 0.  1.
</event>
<event>
 7    1  0.6198176E-013  0.5930195E+02  0.7816164E-02  0.1266605E+00
        -11   -1    0    0    0    0  0.00000000000E+00  0.00000000000E+00  0.45593999997E+02  0.45594000000E+02  0.51100000000E-03 0.  1.
         11   -1    0    0    0    0 -0.00000000000E+00 -0.00000000000E+00 -0.45593999997E+02  0.45594000000E+02  0.51100000000E-03 0. -1.
    9900012    2    1    2    0    0 -0.46112688703E+00  0.31183658348E+02 -0.66398180408E+01  0.59301947100E+02  0.50000005603E+02 0.  0.
        -12    1    1    2    0    0  0.46112688703E+00 -0.31183658348E+02  0.66398180408E+01  0.31886052900E+02  0.00000000000E+00 0.  1.
         11    1    3    3    0    0  0.38732151500E+01  0.12843891406E+02 -0.25727820502E+02  0.29015307858E+02  0.51100000000E-03 0. -1.
        -11    1    3    3    0    0  0.37860672218E+01  0.12791038677E+01  0.63375038919E+01  0.74922872044E+01  0.51100000000E-03 0.  1.
        -12    1    3    3    0    0 -0.81204092588E+01  0.17060663074E+02  0.12750498569E+02  0.22794352037E+02  0.00000000000E+00 0.  1.
</event>
<event>
 7    1  0.6998231E-013  0.5930195E+02  0.7816164E-02  0.1266605E+00
        -11   -1    0    0    0    0  0.00000000000E+00  0.00000000000E+00  0.45593999997E+02  0.45594000000E+02  0.51100000000E-03 0. -1.
         11   -1    0    0    0    0 -0.00000000000E+00 -0.00000000000E+00 -0.45593999997E+02  0.45594000000E+02  0.51100000000E-03 0.  1.
    9900012    2    1    2    0    0  0.11959494430E+02 -0.24961780658E+02 -0.15830346714E+02  0.59301954812E+02  0.50000019668E+02 0.  0.
        -12    1    1    2    0    0 -0.11959494430E+02  0.24961780658E+02  0.15830346714E+02  0.31886045188E+02  0.00000000000E+00 0.  1.
         11    1    3    3    0    0  0.17768731496E+02 -0.10454009789E+02 -0.10794580139E+02  0.23270949707E+02  0.51100000000E-03 0. -1.
        -11    1    3    3    0    0  0.96967970723E+01  0.22950385262E+01 -0.82568326686E+01  0.12941034011E+02  0.51100000000E-03 0.  1.
        -12    1    3    3    0    0 -0.15506034139E+02 -0.16802809396E+02  0.32210660939E+01  0.23089971093E+02  0.00000000000E+00 0.  1.
</event>
<event>
 7    1  0.6198176E-013  0.5930184E+02  0.7816164E-02  0.1266605E+00
        -11   -1    0    0    0    0  0.00000000000E+00  0.00000000000E+00  0.45593999997E+02  0.45594000000E+02  0.51100000000E-03 0.  1.
         11   -1    0    0    0    0 -0.00000000000E+00 -0.00000000000E+00 -0.45593999997E+02  0.45594000000E+02  0.51100000000E-03 0. -1.
    9900012    2    1    2    0    0 -0.35793746800E+01 -0.31070869660E+02  0.62061464897E+01  0.59301841266E+02  0.49999812587E+02 0.  0.
        -12    1    1    2    0    0  0.35793746800E+01  0.31070869660E+02 -0.62061464897E+01  0.31886158734E+02  0.00000000000E+00 0.  1.
         11    1    3    3    0    0  0.13968670516E+02 -0.22537099109E+02  0.98181411579E+01  0.28274378654E+02  0.51100000000E-03 0. -1.
        -11    1    3    3    0    0  0.50431287940E+01 -0.22517252560E+00  0.32426377976E+01  0.59998792360E+01  0.51100000000E-03 0.  1.
        -12    1    3    3    0    0 -0.22591173990E+02 -0.83085980259E+01 -0.68546324658E+01  0.25027583376E+02  0.00000000000E+00 0.  1.
</event>
<event>
 7    1  0.6198176E-013  0.5930194E+02  0.7816164E-02  0.1266605E+00
        -11   -1    0    0    0    0  0.00000000000E+00  0.00000000000E+00  0.45593999997E+02  0.45594000000E+02  0.51100000000E-03 0.  1.
         11   -1    0    0    0    0 -0.00000000000E+00 -0.00000000000E+00 -0.45593999997E+02  0.45594000000E+02  0.51100000000E-03 0. -1.
    9900012    2    1    2    0    0 -0.22261055364E+02  0.53914599656E-01 -0.22828998694E+02  0.59301942324E+02  0.49999996893E+02 0.  0.
        -12    1    1    2    0    0  0.22261055364E+02 -0.53914599656E-01  0.22828998694E+02  0.31886057676E+02  0.00000000000E+00 0.  1.
         11    1    3    3    0    0 -0.19485100845E+02 -0.18592490464E+01 -0.21629011080E+02  0.29170877301E+02  0.51100000000E-03 0. -1.
        -11    1    3    3    0    0 -0.33916371470E+01 -0.11127741334E+02 -0.91895875803E+01  0.14824923268E+02  0.51100000000E-03 0.  1.
         12    1    3    3    0    0  0.61568262799E+00  0.13040904980E+02  0.79895999662E+01  0.15306141755E+02  0.00000000000E+00 0. -1.
</event>
<event>
 7    1  0.6198176E-013  0.5930194E+02  0.7816164E-02  0.1266605E+00
        -11   -1    0    0    0    0  0.00000000000E+00  0.00000000000E+00  0.45593999997E+02  0.45594000000E+02  0.51100000000E-03 0.  1.
         11   -1    0    0    0    0 -0.00000000000E+00 -0.00000000000E+00 -0.45593999997E+02  0.45594000000E+02  0.51100000000E-03 0. -1.
    9900012    2    1    2    0    0  0.34491955457E+01 -0.31652254443E+02 -0.17201073587E+01  0.59301938302E+02  0.49999989558E+02 0.  0.
        -12    1    1    2    0    0 -0.34491955457E+01  0.31652254443E+02  0.17201073587E+01  0.31886061698E+02  0.00000000000E+00 0.  1.
         11    1    3    3    0    0 -0.14102475127E+02 -0.18839829137E+01 -0.81751436774E+01  0.16409209936E+02  0.51100000000E-03 0. -1.
        -11    1    3    3    0    0 -0.86320596930E+00 -0.20863686326E+02  0.80416477327E+01  0.22376474928E+02  0.51100000000E-03 0.  1.
         12    1    3    3    0    0  0.18414876642E+02 -0.89045852035E+01 -0.15866114139E+01  0.20516253439E+02  0.00000000000E+00 0. -1.
</event>
<event>
 7    1  0.6198176E-013  0.5930192E+02  0.7816164E-02  0.1266605E+00
        -11   -1    0    0    0    0  0.00000000000E+00  0.00000000000E+00  0.45593999997E+02  0.45594000000E+02  0.51100000000E-03 0. -1.
         11   -1    0    0    0    0 -0.00000000000E+00 -0.00000000000E+00 -0.45593999997E+02  0.45594000000E+02  0.51100000000E-03 0.  1.
    9900012    2    1    2    0    0  0.93892984977E+01  0.17765266903E+02  0.24757993390E+02  0.59301923554E+02  0.49999962661E+02 0.  0.
        -12    1    1    2    0    0 -0.93892984977E+01 -0.17765266903E+02 -0.24757993390E+02  0.31886076446E+02  0.00000000000E+00 0.  1.
         11    1    3    3    0    0 -0.28697322513E+01  0.69034727373E+01  0.63134958757E+01  0.97853732408E+01  0.51100000000E-03 0. -1.
        -11    1    3    3    0    0  0.70439597011E+01  0.19356179634E+02 -0.73445582408E+01  0.21868278265E+02  0.51100000000E-03 0.  1.
         12    1    3    3    0    0  0.52150710478E+01 -0.84943854678E+01  0.25789055755E+02  0.27648272048E+02  0.00000000000E+00 0. -1.
</event>
<event>
 7    1  0.6198176E-013  0.5930194E+02  0.7816164E-02  0.1266605E+00
        -11   -1    0    0    0    0  0.00000000000E+00  0.00000000000E+00  0.45593999997E+02  0.45594000000E+02  0.51100000000E-03 0. -1.
         11   -1    0    0    0    0 -0.00000000000E+00 -0.00000000000E+00 -0.45593999997E+02  0.45594000000E+02  0.51100000000E-03 0.  1.
    9900012    2    1    2    0    0 -0.55808823086E+01  0.24827389175E+02  0.19213930674E+02  0.59301942977E+02  0.49999998083E+02 0.  0.
        -12    1    1    2    0    0  0.55808823086E+01 -0.24827389175E+02 -0.19213930674E+02  0.31886057023E+02  0.00000000000E+00 0.  1.
         11    1    3    3    0    0 -0.17005516359E+02  0.22922984388E+01  0.13596666202E+02  0.21893185031E+02  0.51100000000E-03 0. -1.
        -11    1    3    3    0    0  0.34322865355E+01  0.92108719965E+01  0.15959691051E+02  0.18743865463E+02  0.51100000000E-03 0.  1.
        -12    1    3    3    0    0  0.79923475147E+01  0.13324218739E+02 -0.10342426579E+02  0.18664892482E+02  0.00000000000E+00 0.  1.
</event>
<event>
 7    1  0.6198176E-013  0.5930194E+02  0.7816164E-02  0.1266605E+00
        -11   -1    0    0    0    0  0.00000000000E+00  0.00000000000E+00  0.45593999997E+02  0.45594000000E+02  0.51100000000E-03 0.  1.
         11   -1    0    0    0    0 -0.00000000000E+00 -0.00000000000E+00 -0.45593999997E+02  0.45594000000E+02  0.51100000000E-03 0. -1.
    9900012    2    1    2    0    0 -0.51014634063E+01  0.14701136265E+02 -0.27831142777E+02  0.59301939650E+02  0.49999992017E+02 0.  0.
        -12    1    1    2    0    0  0.51014634063E+01 -0.14701136265E+02  0.27831142777E+02  0.31886060350E+02  0.00000000000E+00 0.  1.
         11    1    3    3    0    0 -0.12871840217E+02  0.74759259460E+01  0.62112254087E+01  0.16129261008E+02  0.51100000000E-03 0. -1.
        -11    1    3    3    0    0  0.48608988695E+01 -0.86983170656E+01 -0.94622208778E+01  0.13741276571E+02  0.51100000000E-03 0.  1.
         12    1    3    3    0    0  0.29094779409E+01  0.15923527385E+02 -0.24580147308E+02  0.29431402072E+02  0.00000000000E+00 0. -1.
</event>
<event>
 7    1  0.6198176E-013  0.5930194E+02  0.7816164E-02  0.1266605E+00
        -11   -1    0    0    0    0  0.00000000000E+00  0.00000000000E+00  0.45593999997E+02  0.45594000000E+02  0.51100000000E-03 0.  1.
         11   -1    0    0    0    0 -0.00000000000E+00 -0.00000000000E+00 -0.45593999997E+02  0.45594000000E+02  0.51100000000E-03 0. -1.
    9900012    2    1    2    0    0 -0.19600866138E+02  0.91904538455E+01 -0.23410729095E+02  0.59301942984E+02  0.49999998096E+02 0.  0.
        -12    1    1    2    0    0  0.19600866138E+02 -0.91904538455E+01  0.23410729095E+02  0.31886057016E+02  0.00000000000E+00 0.  1.
         11    1    3    3    0    0 -0.10870509306E+02 -0.10841253264E+02 -0.20074301722E+01  0.15483233547E+02  0.51100000000E-03 0. -1.
        -11    1    3    3    0    0  0.11692635504E+02  0.66152670859E+01 -0.10548055718E+02  0.17080426322E+02  0.51100000000E-03 0.  1.
         12    1    3    3    0    0 -0.20422992337E+02  0.13416440024E+02 -0.10855243205E+02  0.26738283115E+02  0.00000000000E+00 0. -1.
</event>
<event>
 7    1  0.6198176E-013  0.5930195E+02  0.7816164E-02  0.1266605E+00
        -11   -1    0    0    0    0  0.00000000000E+00  0.00000000000E+00  0.45593999997E+02  0.45594000000E+02  0.51100000000E-03 0.  1.
         11   -1    0    0    0    0 -0.00000000000E+00 -0.00000000000E+00 -0.45593999997E+02  0.45594000000E+02  0.51100000000E-03 0. -1.
    9900012    2    1    2    0    0 -0.31531489475E+02  0.21621751538E+01  0.42202582353E+01  0.59301946474E+02  0.50000004461E+02 0.  0.
        -12    1    1    2    0    0  0.31531489475E+02 -0.21621751538E+01 -0.42202582353E+01  0.31886053526E+02  0.00000000000E+00 0.  1.
         11    1    3    3    0    0 -0.18592581303E+02  0.14440484401E+02 -0.52013993725E+01  0.24109463389E+02  0.51100000000E-03 0.  1.
        -11    1    3    3    0    0 -0.18046327398E+02 -0.70916259748E+01 -0.41160970374E+01  0.19821789692E+02  0.51100000000E-03 0. -1.
        -12    1    3    3    0    0  0.51074192261E+01 -0.51866832724E+01  0.13537754645E+02  0.15370693392E+02  0.00000000000E+00 0.  1.
</event>
<event>
 7    1  0.6198176E-013  0.5930212E+02  0.7816164E-02  0.1266604E+00
        -11   -1    0    0    0    0  0.00000000000E+00  0.00000000000E+00  0.45593999997E+02  0.45594000000E+02  0.51100000000E-03 0. -1.
         11   -1    0    0    0    0 -0.00000000000E+00 -0.00000000000E+00 -0.45593999997E+02  0.45594000000E+02  0.51100000000E-03 0.  1.
    9900012    2    1    2    0    0 -0.30508893228E+01  0.25969889330E+02  0.18247359183E+02  0.59302122333E+02  0.50000325185E+02 0.  0.
        -12    1    1    2    0    0  0.30508893228E+01 -0.25969889330E+02 -0.18247359183E+02  0.31885877667E+02  0.00000000000E+00 0.  1.
         11    1    3    3    0    0 -0.67673272834E+01  0.33552834504E+01 -0.13003309003E+01  0.76645617163E+01  0.51100000000E-03 0. -1.
        -11    1    3    3    0    0 -0.54403697486E+01  0.31050579963E+02  0.40876746029E+01  0.31787501049E+02  0.51100000000E-03 0.  1.
        -12    1    3    3    0    0  0.91568077093E+01 -0.84359740837E+01  0.15460015481E+02  0.19850059567E+02  0.00000000000E+00 0.  1.
</event>
<event>
 7    1  0.6198176E-013  0.5930194E+02  0.7816164E-02  0.1266605E+00
        -11   -1    0    0    0    0  0.00000000000E+00  0.00000000000E+00  0.45593999997E+02  0.45594000000E+02  0.51100000000E-03 0. -1.
         11   -1    0    0    0    0 -0.00000000000E+00 -0.00000000000E+00 -0.45593999997E+02  0.45594000000E+02  0.51100000000E-03 0.  1.
    9900012    2    1    2    0    0 -0.28625523974E+02 -0.11550659039E+02  0.79926518681E+01  0.59301939865E+02  0.49999992408E+02 0.  0.
        -12    1    1    2    0    0  0.28625523974E+02  0.11550659039E+02 -0.79926518681E+01  0.31886060135E+02  0.00000000000E+00 0.  1.
         11    1    3    3    0    0 -0.11517198236E+02 -0.40231933097E+00  0.13914226446E+02  0.18066914897E+02  0.51100000000E-03 0. -1.
        -11    1    3    3    0    0 -0.15305555188E+01  0.81659278157E+01 -0.13003253686E+02  0.15430799849E+02  0.51100000000E-03 0.  1.
         12    1    3    3    0    0 -0.15577770220E+02 -0.19314267524E+02  0.70816791079E+01  0.25804225119E+02  0.00000000000E+00 0. -1.
</event>
<event>
 7    1  0.6198176E-013  0.5930195E+02  0.7816164E-02  0.1266605E+00
        -11   -1    0    0    0    0  0.00000000000E+00  0.00000000000E+00  0.45593999997E+02  0.45594000000E+02  0.51100000000E-03 0.  1.
         11   -1    0    0    0    0 -0.00000000000E+00 -0.00000000000E+00 -0.45593999997E+02  0.45594000000E+02  0.51100000000E-03 0. -1.
    9900012    2    1    2    0    0  0.60498661830E+01 -0.23233704109E+02 -0.20983671900E+02  0.59301947032E+02  0.50000005479E+02 0.  0.
        -12    1    1    2    0    0 -0.60498661830E+01  0.23233704109E+02  0.20983671900E+02  0.31886052968E+02  0.00000000000E+00 0.  1.
         11    1    3    3    0    0 -0.16545650599E+02 -0.13756426445E+02  0.34469485062E+01  0.21791724956E+02  0.51100000000E-03 0. -1.
        -11    1    3    3    0    0  0.26400571244E+01  0.35289419049E+01 -0.57173664813E+01  0.72188373254E+01  0.51100000000E-03 0.  1.
        -12    1    3    3    0    0  0.19955459658E+02 -0.13006219569E+02 -0.18713253925E+02  0.30291384751E+02  0.00000000000E+00 0.  1.
</event>
<event>
 7    1  0.6198176E-013  0.5930193E+02  0.7816164E-02  0.1266605E+00
        -11   -1    0    0    0    0  0.00000000000E+00  0.00000000000E+00  0.45593999997E+02  0.45594000000E+02  0.51100000000E-03 0. -1.
         11   -1    0    0    0    0 -0.00000000000E+00 -0.00000000000E+00 -0.45593999997E+02  0.45594000000E+02  0.51100000000E-03 0.  1.
    9900012    2    1    2    0    0  0.11596467513E+02  0.12010605023E+01  0.29678287052E+02  0.59301932079E+02  0.49999978209E+02 0.  0.
        -12    1    1    2    0    0 -0.11596467513E+02 -0.12010605023E+01 -0.29678287052E+02  0.31886067921E+02  0.00000000000E+00 0.  1.
         11    1    3    3    0    0  0.41834135165E+01 -0.39679270253E+01  0.37358656947E+02  0.37800987324E+02  0.51100000000E-03 0. -1.
        -11    1    3    3    0    0 -0.28353981495E+00 -0.48648002670E+01  0.23025623875E+01  0.53896632802E+01  0.51100000000E-03 0.  1.
        -12    1    3    3    0    0  0.76965938115E+01  0.10033787795E+02 -0.99829322824E+01  0.16111281475E+02  0.00000000000E+00 0.  1.
</event>
<event>
 7    1  0.1235557E-012  0.5930189E+02  0.7816164E-02  0.1266605E+00
        -11   -1    0    0    0    0  0.00000000000E+00  0.00000000000E+00  0.45593999997E+02  0.45594000000E+02  0.51100000000E-03 0. -1.
         11   -1    0    0    0    0 -0.00000000000E+00 -0.00000000000E+00 -0.45593999997E+02  0.45594000000E+02  0.51100000000E-03 0.  1.
    9900012    2    1    2    0    0 -0.16583930962E+02 -0.20884135748E+02  0.17479995597E+02  0.59301888005E+02  0.49999897829E+02 0.  0.
        -12    1    1    2    0    0  0.16583930962E+02  0.20884135748E+02 -0.17479995597E+02  0.31886111995E+02  0.00000000000E+00 0.  1.
         11    1    3    3    0    0 -0.17502378796E+00 -0.20995560334E+02  0.82588587581E+01  0.22562201474E+02  0.51100000000E-03 0.  1.
        -11    1    3    3    0    0 -0.54494353553E+01  0.65198185990E+00  0.20370245034E+02  0.21096642127E+02  0.51100000000E-03 0. -1.
        -12    1    3    3    0    0 -0.10959471818E+02 -0.54055727342E+00 -0.11149108195E+02  0.15643044405E+02  0.00000000000E+00 0.  1.
</event>
<event>
 7    1  0.6198176E-013  0.5930205E+02  0.7816164E-02  0.1266604E+00
        -11   -1    0    0    0    0  0.00000000000E+00  0.00000000000E+00  0.45593999997E+02  0.45594000000E+02  0.51100000000E-03 0.  1.
         11   -1    0    0    0    0 -0.00000000000E+00 -0.00000000000E+00 -0.45593999997E+02  0.45594000000E+02  0.51100000000E-03 0. -1.
    9900012    2    1    2    0    0 -0.12473091262E+02  0.28109290660E+02 -0.84263464384E+01  0.59302054172E+02  0.50000200876E+02 0.  0.
        -12    1    1    2    0    0  0.12473091262E+02 -0.28109290660E+02  0.84263464384E+01  0.31885945828E+02  0.00000000000E+00 0.  1.
         11    1    3    3    0    0 -0.17008901010E+01  0.62473401784E+01  0.36953977923E+01  0.74550822628E+01  0.51100000000E-03 0. -1.
        -11    1    3    3    0    0  0.26585119371E+01  0.28883714524E+02 -0.19539794647E+02  0.34973421702E+02  0.51100000000E-03 0.  1.
        -12    1    3    3    0    0 -0.13430713099E+02 -0.70217640423E+01  0.74180504164E+01  0.16873550207E+02  0.00000000000E+00 0.  1.
</event>
<event>
 7    1  0.6198176E-013  0.5930193E+02  0.7816164E-02  0.1266605E+00
        -11   -1    0    0    0    0  0.00000000000E+00  0.00000000000E+00  0.45593999997E+02  0.45594000000E+02  0.51100000000E-03 0.  1.
         11   -1    0    0    0    0 -0.00000000000E+00 -0.00000000000E+00 -0.45593999997E+02  0.45594000000E+02  0.51100000000E-03 0. -1.
    9900012    2    1    2    0    0  0.61919497949E+01 -0.51135786676E+01 -0.30858262499E+02  0.59301932612E+02  0.49999979180E+02 0.  0.
        -12    1    1    2    0    0 -0.61919497949E+01  0.51135786676E+01  0.30858262499E+02  0.31886067388E+02  0.00000000000E+00 0.  1.
         11    1    3    3    0    0  0.32715047526E+00  0.48384924900E+01 -0.11645884525E+02  0.12615255196E+02  0.51100000000E-03 0. -1.
        -11    1    3    3    0    0  0.20357241238E+02 -0.62786132104E+01 -0.22911207913E+02  0.31285167459E+02  0.51100000000E-03 0.  1.
        -12    1    3    3    0    0 -0.14492441918E+02 -0.36734579473E+01  0.36988299394E+01  0.15401509957E+02  0.00000000000E+00 0.  1.
</event>
<event>
 7    1  0.6198176E-013  0.5930201E+02  0.7816164E-02  0.1266605E+00
        -11   -1    0    0    0    0  0.00000000000E+00  0.00000000000E+00  0.45593999997E+02  0.45594000000E+02  0.51100000000E-03 0.  1.
         11   -1    0    0    0    0 -0.00000000000E+00 -0.00000000000E+00 -0.45593999997E+02  0.45594000000E+02  0.51100000000E-03 0. -1.
    9900012    2    1    2    0    0  0.20710467784E+02  0.17836044088E+02  0.16421590404E+02  0.59302006587E+02  0.50000114092E+02 0.  0.
        -12    1    1    2    0    0 -0.20710467784E+02 -0.17836044088E+02 -0.16421590404E+02  0.31885993413E+02  0.00000000000E+00 0.  1.
         11    1    3    3    0    0 -0.72894368395E+01  0.71363114200E+01  0.10376947101E+01  0.10253762270E+02  0.51100000000E-03 0. -1.
        -11    1    3    3    0    0 -0.67264667340E+01  0.14375875115E+01  0.10817267698E+02  0.12818942753E+02  0.51100000000E-03 0.  1.
         12    1    3    3    0    0  0.34726371357E+02  0.92621451568E+01  0.45666279958E+01  0.36229301564E+02  0.00000000000E+00 0. -1.
</event>
<event>
 7    1  0.6198176E-013  0.5930197E+02  0.7816164E-02  0.1266605E+00
        -11   -1    0    0    0    0  0.00000000000E+00  0.00000000000E+00  0.45593999997E+02  0.45594000000E+02  0.51100000000E-03 0.  1.
         11   -1    0    0    0    0 -0.00000000000E+00 -0.00000000000E+00 -0.45593999997E+02  0.45594000000E+02  0.51100000000E-03 0. -1.
    9900012    2    1    2    0    0 -0.25607454576E+01 -0.21600138254E+02 -0.23315131882E+02  0.59301972267E+02  0.50000051502E+02 0.  0.
        -12    1    1    2    0    0  0.25607454576E+01  0.21600138254E+02  0.23315131882E+02  0.31886027733E+02  0.00000000000E+00 0.  1.
         11    1    3    3    0    0 -0.11783602772E+02 -0.23121684943E+02 -0.16120417577E+02  0.30550506902E+02  0.51100000000E-03 0.  1.
        -11    1    3    3    0    0  0.57803379292E+01  0.37732551366E+01 -0.16875632780E+02  0.18232847910E+02  0.51100000000E-03 0. -1.
        -12    1    3    3    0    0  0.34425193852E+01 -0.22517084476E+01  0.96809184748E+01  0.10518617455E+02  0.00000000000E+00 0.  1.
</event>
<event>
 7    1  0.6198176E-013  0.5930195E+02  0.7816164E-02  0.1266605E+00
        -11   -1    0    0    0    0  0.00000000000E+00  0.00000000000E+00  0.45593999997E+02  0.45594000000E+02  0.51100000000E-03 0. -1.
         11   -1    0    0    0    0 -0.00000000000E+00 -0.00000000000E+00 -0.45593999997E+02  0.45594000000E+02  0.51100000000E-03 0.  1.
    9900012    2    1    2    0    0 -0.16008779370E+02  0.19410311737E+02  0.19587731140E+02  0.59301946154E+02  0.50000003877E+02 0.  0.
        -12    1    1    2    0    0  0.16008779370E+02 -0.19410311737E+02 -0.19587731140E+02  0.31886053846E+02  0.00000000000E+00 0.  1.
         11    1    3    3    0    0 -0.26526615247E+02  0.11488320125E+02 -0.93867294086E+00  0.28922723297E+02  0.51100000000E-03 0. -1.
        -11    1    3    3    0    0 -0.50306930202E+01  0.37929082503E+01  0.54178851679E+01  0.83094828487E+01  0.51100000000E-03 0.  1.
        -12    1    3    3    0    0  0.15548528897E+02  0.41290833621E+01  0.15108518913E+02  0.22069740008E+02  0.00000000000E+00 0.  1.
</event>
<event>
 7    1  0.6198176E-013  0.5930195E+02  0.7816164E-02  0.1266605E+00
        -11   -1    0    0    0    0  0.00000000000E+00  0.00000000000E+00  0.45593999997E+02  0.45594000000E+02  0.51100000000E-03 0. -1.
         11   -1    0    0    0    0 -0.00000000000E+00 -0.00000000000E+00 -0.45593999997E+02  0.45594000000E+02  0.51100000000E-03 0.  1.
    9900012    2    1    2    0    0 -0.25651390907E+02  0.18810614121E+02 -0.22106306308E+01  0.59301953728E+02  0.50000017690E+02 0.  0.
        -12    1    1    2    0    0  0.25651390907E+02 -0.18810614121E+02  0.22106306308E+01  0.31886046272E+02  0.00000000000E+00 0.  1.
         11    1    3    3    0    0 -0.13204171334E+02  0.44889315465E+01  0.19850788775E+02  0.24260141432E+02  0.51100000000E-03 0. -1.
        -11    1    3    3    0    0 -0.26252199160E+01  0.11548234604E+02 -0.13083599502E+01  0.11914919559E+02  0.51100000000E-03 0.  1.
        -12    1    3    3    0    0 -0.98219996572E+01  0.27734479712E+01 -0.20753059455E+02  0.23126892737E+02  0.00000000000E+00 0.  1.
</event>
<event>
 7    1  0.6198176E-013  0.5930195E+02  0.7816164E-02  0.1266605E+00
        -11   -1    0    0    0    0  0.00000000000E+00  0.00000000000E+00  0.45593999997E+02  0.45594000000E+02  0.51100000000E-03 0. -1.
         11   -1    0    0    0    0 -0.00000000000E+00 -0.00000000000E+00 -0.45593999997E+02  0.45594000000E+02  0.51100000000E-03 0.  1.
    9900012    2    1    2    0    0  0.88511106297E+01  0.20484294090E+02  0.22776556797E+02  0.59301952844E+02  0.50000016078E+02 0.  0.
        -12    1    1    2    0    0 -0.88511106297E+01 -0.20484294090E+02 -0.22776556797E+02  0.31886047156E+02  0.00000000000E+00 0.  1.
         11    1    3    3    0    0 -0.13310613876E+02  0.22190875458E+02  0.10221381264E+02  0.27822365654E+02  0.51100000000E-03 0. -1.
        -11    1    3    3    0    0  0.92870607034E+01  0.48159947207E+01  0.13426124138E+02  0.17020696557E+02  0.51100000000E-03 0.  1.
        -12    1    3    3    0    0  0.12874663802E+02 -0.65225760887E+01 -0.87094860639E+00  0.14458890633E+02  0.00000000000E+00 0.  1.
</event>
<event>
 7    1  0.6198176E-013  0.5930196E+02  0.7816164E-02  0.1266605E+00
        -11   -1    0    0    0    0  0.00000000000E+00  0.00000000000E+00  0.45593999997E+02  0.45594000000E+02  0.51100000000E-03 0.  1.
         11   -1    0    0    0    0 -0.00000000000E+00 -0.00000000000E+00 -0.45593999997E+02  0.45594000000E+02  0.51100000000E-03 0. -1.
    9900012    2    1    2    0    0 -0.28978744566E+02  0.12162944075E+02  0.53865158771E+01  0.59301962327E+02  0.50000033374E+02 0.  0.
        -12    1    1    2    0    0  0.28978744566E+02 -0.12162944075E+02 -0.53865158771E+01  0.31886037673E+02  0.00000000000E+00 0.  1.
         11    1    3    3    0    0 -0.42667021385E+01 -0.62178715754E+01 -0.15729911257E+02  0.17444104520E+02  0.51100000000E-03 0. -1.
        -11    1    3    3    0    0 -0.16665124353E+02  0.65954872780E+00  0.98158537581E+01  0.19352321811E+02  0.51100000000E-03 0.  1.
        -12    1    3    3    0    0 -0.80469180743E+01  0.17721266923E+02  0.11300573376E+02  0.22505535996E+02  0.00000000000E+00 0.  1.
</event>
<event>
 7    1  0.6198176E-013  0.5930197E+02  0.7816164E-02  0.1266605E+00
        -11   -1    0    0    0    0  0.00000000000E+00  0.00000000000E+00  0.45593999997E+02  0.45594000000E+02  0.51100000000E-03 0. -1.
         11   -1    0    0    0    0 -0.00000000000E+00 -0.00000000000E+00 -0.45593999997E+02  0.45594000000E+02  0.51100000000E-03 0.  1.
    9900012    2    1    2    0    0  0.11114967132E+02 -0.10189974056E+02  0.28095210911E+02  0.59301969489E+02  0.50000046436E+02 0.  0.
        -12    1    1    2    0    0 -0.11114967132E+02  0.10189974056E+02 -0.28095210911E+02  0.31886030511E+02  0.00000000000E+00 0.  1.
         11    1    3    3    0    0  0.14458687218E+02 -0.12703194454E+02  0.22032234402E+01  0.19372118603E+02  0.51100000000E-03 0. -1.
        -11    1    3    3    0    0  0.41948522456E+01  0.48830455374E+01 -0.49316441382E+01  0.81093793382E+01  0.51100000000E-03 0.  1.
        -12    1    3    3    0    0 -0.75385723311E+01 -0.23698251396E+01  0.30823631609E+02  0.31820471548E+02  0.00000000000E+00 0.  1.
</event>
<event>
 7    1  0.6198176E-013  0.5930195E+02  0.7816164E-02  0.1266605E+00
        -11   -1    0    0    0    0  0.00000000000E+00  0.00000000000E+00  0.45593999997E+02  0.45594000000E+02  0.51100000000E-03 0.  1.
         11   -1    0    0    0    0 -0.00000000000E+00 -0.00000000000E+00 -0.45593999997E+02  0.45594000000E+02  0.51100000000E-03 0. -1.
    9900012    2    1    2    0    0  0.29250131806E+02 -0.12752175697E+01 -0.12630270148E+02  0.59301951099E+02  0.50000012897E+02 0.  0.
        -12    1    1    2    0    0 -0.29250131806E+02  0.12752175697E+01  0.12630270148E+02  0.31886048901E+02  0.00000000000E+00 0.  1.
         11    1    3    3    0    0  0.66696197189E+01  0.61680702673E+01 -0.55706501042E+01  0.10656503219E+02  0.51100000000E-03 0. -1.
        -11    1    3    3    0    0  0.22633175930E+02  0.13152071927E+02  0.17706258671E+01  0.26236858899E+02  0.51100000000E-03 0.  1.
         12    1    3    3    0    0 -0.52663843558E-01 -0.20595359764E+02 -0.88302459104E+01  0.22408588981E+02  0.00000000000E+00 0. -1.
</event>
<event>
 7    1  0.6198176E-013  0.5930173E+02  0.7816164E-02  0.1266606E+00
        -11   -1    0    0    0    0  0.00000000000E+00  0.00000000000E+00  0.45593999997E+02  0.45594000000E+02  0.51100000000E-03 0. -1.
         11   -1    0    0    0    0 -0.00000000000E+00 -0.00000000000E+00 -0.45593999997E+02  0.45594000000E+02  0.51100000000E-03 0.  1.
    9900012    2    1    2    0    0 -0.11899091391E+02 -0.25580637786E+02  0.14858565709E+02  0.59301727399E+02  0.49999604920E+02 0.  0.
        -12    1    1    2    0    0  0.11899091391E+02  0.25580637786E+02 -0.14858565709E+02  0.31886272601E+02  0.00000000000E+00 0.  1.
         11    1    3    3    0    0  0.20371952823E+01 -0.11926002283E+01  0.13671495939E+01  0.27279219557E+01  0.51100000000E-03 0. -1.
        -11    1    3    3    0    0 -0.67113059689E+01 -0.50924754660E+01 -0.17463144971E+02  0.19389078543E+02  0.51100000000E-03 0.  1.
         12    1    3    3    0    0 -0.72249807041E+01 -0.19295562091E+02  0.30954561087E+02  0.37184726901E+02  0.00000000000E+00 0. -1.
</event>
<event>
 7    1  0.6198176E-013  0.5930193E+02  0.7816164E-02  0.1266605E+00
        -11   -1    0    0    0    0  0.00000000000E+00  0.00000000000E+00  0.45593999997E+02  0.45594000000E+02  0.51100000000E-03 0. -1.
         11   -1    0    0    0    0 -0.00000000000E+00 -0.00000000000E+00 -0.45593999997E+02  0.45594000000E+02  0.51100000000E-03 0.  1.
    9900012    2    1    2    0    0  0.87698972101E+01 -0.30413001607E+02  0.38548458131E+01  0.59301927804E+02  0.49999970412E+02 0.  0.
        -12    1    1    2    0    0 -0.87698972101E+01  0.30413001607E+02 -0.38548458131E+01  0.31886072196E+02  0.00000000000E+00 0.  1.
         11    1    3    3    0    0  0.86860767793E+01  0.10191814281E+01 -0.19753297425E+00  0.87478957547E+01  0.51100000000E-03 0. -1.
        -11    1    3    3    0    0  0.56848682221E+01 -0.17383319824E+02  0.20994287874E+02  0.27843449111E+02  0.51100000000E-03 0.  1.
        -12    1    3    3    0    0 -0.56010477912E+01 -0.14048863211E+02 -0.16941909087E+02  0.22710582938E+02  0.00000000000E+00 0.  1.
</event>
<event>
 7    1  0.6198176E-013  0.5930194E+02  0.7816164E-02  0.1266605E+00
        -11   -1    0    0    0    0  0.00000000000E+00  0.00000000000E+00  0.45593999997E+02  0.45594000000E+02  0.51100000000E-03 0. -1.
         11   -1    0    0    0    0 -0.00000000000E+00 -0.00000000000E+00 -0.45593999997E+02  0.45594000000E+02  0.51100000000E-03 0.  1.
    9900012    2    1    2    0    0 -0.25206171589E+02 -0.19501439482E+02  0.10313517717E+01  0.59301938554E+02  0.49999990017E+02 0.  0.
        -12    1    1    2    0    0  0.25206171589E+02  0.19501439482E+02 -0.10313517717E+01  0.31886061446E+02  0.00000000000E+00 0.  1.
         11    1    3    3    0    0 -0.10488823720E+02 -0.81043998021E+01 -0.14937876442E+02  0.19970900631E+02  0.51100000000E-03 0. -1.
        -11    1    3    3    0    0  0.72351712589E+00 -0.15574470864E+02 -0.14776404161E+01  0.15661131542E+02  0.51100000000E-03 0.  1.
         12    1    3    3    0    0 -0.15440864995E+02  0.41774311833E+01  0.17446868630E+02  0.23669906381E+02  0.00000000000E+00 0. -1.
</event>
<event>
 7    1  0.6198176E-013  0.5930198E+02  0.7816164E-02  0.1266605E+00
        -11   -1    0    0    0    0  0.00000000000E+00  0.00000000000E+00  0.45593999997E+02  0.45594000000E+02  0.51100000000E-03 0.  1.
         11   -1    0    0    0    0 -0.00000000000E+00 -0.00000000000E+00 -0.45593999997E+02  0.45594000000E+02  0.51100000000E-03 0. -1.
    9900012    2    1    2    0    0  0.30099042050E+02 -0.31867339757E+01 -0.10030481782E+02  0.59301981582E+02  0.50000068491E+02 0.  0.
        -12    1    1    2    0    0 -0.30099042050E+02  0.31867339757E+01  0.10030481782E+02  0.31886018418E+02  0.00000000000E+00 0.  1.
         11    1    3    3    0    0  0.96769402693E+00 -0.20284436669E+01 -0.13999522905E+02  0.14178774886E+02  0.51100000000E-03 0. -1.
        -11    1    3    3    0    0  0.15577414217E+02 -0.16789594339E+02 -0.34140369517E+01  0.23156035073E+02  0.51100000000E-03 0.  1.
        -12    1    3    3    0    0  0.13553933806E+02  0.15631304030E+02  0.73830780744E+01  0.21967171624E+02  0.00000000000E+00 0.  1.
</event>
<event>
 7    1  0.6198176E-013  0.5930195E+02  0.7816164E-02  0.1266605E+00
        -11   -1    0    0    0    0  0.00000000000E+00  0.00000000000E+00  0.45593999997E+02  0.45594000000E+02  0.51100000000E-03 0.  1.
         11   -1    0    0    0    0 -0.00000000000E+00 -0.00000000000E+00 -0.45593999997E+02  0.45594000000E+02  0.51100000000E-03 0. -1.
    9900012    2    1    2    0    0  0.15550537819E+02 -0.25227760533E+02 -0.11766941596E+02  0.59301952228E+02  0.50000014955E+02 0.  0.
        -12    1    1    2    0    0 -0.15550537819E+02  0.25227760533E+02  0.11766941596E+02  0.31886047772E+02  0.00000000000E+00 0.  1.
         11    1    3    3    0    0 -0.52505793490E+00 -0.53224124571E+00  0.38449397962E+01  0.39169540303E+01  0.51100000000E-03 0. -1.
        -11    1    3    3    0    0 -0.13097528743E+02 -0.33510777931E+01 -0.13607546328E+02  0.19181769962E+02  0.51100000000E-03 0.  1.
         12    1    3    3    0    0  0.29173124497E+02 -0.21344441494E+02 -0.20043350641E+01  0.36203228235E+02  0.00000000000E+00 0. -1.
</event>
<event>
 7    1  0.6198176E-013  0.5930196E+02  0.7816164E-02  0.1266605E+00
        -11   -1    0    0    0    0  0.00000000000E+00  0.00000000000E+00  0.45593999997E+02  0.45594000000E+02  0.51100000000E-03 0.  1.
         11   -1    0    0    0    0 -0.00000000000E+00 -0.00000000000E+00 -0.45593999997E+02  0.45594000000E+02  0.51100000000E-03 0. -1.
    9900012    2    1    2    0    0  0.19409187793E+02  0.70400598146E+01 -0.24298980276E+02  0.59301961434E+02  0.50000031745E+02 0.  0.
        -12    1    1    2    0    0 -0.19409187793E+02 -0.70400598146E+01  0.24298980276E+02  0.31886038566E+02  0.00000000000E+00 0.  1.
         11    1    3    3    0    0  0.12701807644E+02  0.24037894168E+01 -0.11480160136E+02  0.17288961739E+02  0.51100000000E-03 0. -1.
        -11    1    3    3    0    0  0.16153297412E+02  0.16929695477E+02 -0.28294787711E+01  0.23570098782E+02  0.51100000000E-03 0.  1.
         12    1    3    3    0    0 -0.94459172629E+01 -0.12293425079E+02 -0.99893413691E+01  0.18442900913E+02  0.00000000000E+00 0. -1.
</event>
<event>
 7    1  0.6198176E-013  0.5930195E+02  0.7816164E-02  0.1266605E+00
        -11   -1    0    0    0    0  0.00000000000E+00  0.00000000000E+00  0.45593999997E+02  0.45594000000E+02  0.51100000000E-03 0.  1.
         11   -1    0    0    0    0 -0.00000000000E+00 -0.00000000000E+00 -0.45593999997E+02  0.45594000000E+02  0.51100000000E-03 0. -1.
    9900012    2    1    2    0    0  0.14760670035E+02 -0.15337574326E+02 -0.23740293799E+02  0.59301951080E+02  0.50000012861E+02 0.  0.
        -12    1    1    2    0    0 -0.14760670035E+02  0.15337574326E+02  0.23740293799E+02  0.31886048920E+02  0.00000000000E+00 0.  1.
         11    1    3    3    0    0  0.47815406853E+01 -0.20834730634E+02 -0.19865538340E+02  0.29181993518E+02  0.51100000000E-03 0. -1.
        -11    1    3    3    0    0  0.62989195529E+01  0.79593347667E+01 -0.15019574146E+02  0.18127741317E+02  0.51100000000E-03 0.  1.
         12    1    3    3    0    0  0.36802097970E+01 -0.24621784586E+01  0.11144818687E+02  0.11992216245E+02  0.00000000000E+00 0. -1.
</event>
<event>
 7    1  0.6198176E-013  0.5930194E+02  0.7816164E-02  0.1266605E+00
        -11   -1    0    0    0    0  0.00000000000E+00  0.00000000000E+00  0.45593999997E+02  0.45594000000E+02  0.51100000000E-03 0.  1.
         11   -1    0    0    0    0 -0.00000000000E+00 -0.00000000000E+00 -0.45593999997E+02  0.45594000000E+02  0.51100000000E-03 0. -1.
    9900012    2    1    2    0    0 -0.26698575026E+01  0.25124210075E+02 -0.19451657610E+02  0.59301936355E+02  0.49999986007E+02 0.  0.
        -12    1    1    2    0    0  0.26698575026E+01 -0.25124210075E+02  0.19451657610E+02  0.31886063645E+02  0.00000000000E+00 0.  1.
         11    1    3    3    0    0  0.73357648499E+00  0.20049016378E+02 -0.21375044599E+02  0.29315417855E+02  0.51100000000E-03 0. -1.
        -11    1    3    3    0    0 -0.10861114568E+02  0.26425212163E+01 -0.10472338792E+02  0.15317199747E+02  0.51100000000E-03 0.  1.
        -12    1    3    3    0    0  0.74576805809E+01  0.24326724817E+01  0.12395725781E+02  0.14669318753E+02  0.00000000000E+00 0.  1.
</event>
<event>
 7    1  0.6198176E-013  0.5930192E+02  0.7816164E-02  0.1266605E+00
        -11   -1    0    0    0    0  0.00000000000E+00  0.00000000000E+00  0.45593999997E+02  0.45594000000E+02  0.51100000000E-03 0. -1.
         11   -1    0    0    0    0 -0.00000000000E+00 -0.00000000000E+00 -0.45593999997E+02  0.45594000000E+02  0.51100000000E-03 0.  1.
    9900012    2    1    2    0    0  0.73733527196E+01  0.17184109157E+02  0.25827543001E+02  0.59301922862E+02  0.49999961398E+02 0.  0.
        -12    1    1    2    0    0 -0.73733527196E+01 -0.17184109157E+02 -0.25827543001E+02  0.31886077138E+02  0.00000000000E+00 0.  1.
         11    1    3    3    0    0 -0.49097932190E+01  0.78550229325E+01 -0.53653824113E+01  0.10704895301E+02  0.51100000000E-03 0. -1.
        -11    1    3    3    0    0 -0.55243637184E+01 -0.32458356123E+01 -0.37407555542E+01  0.74193864768E+01  0.51100000000E-03 0.  1.
         12    1    3    3    0    0  0.17807509657E+02  0.12574921836E+02  0.34933680966E+02  0.41177641084E+02  0.00000000000E+00 0. -1.
</event>
<event>
 7    1  0.6198176E-013  0.5930193E+02  0.7816164E-02  0.1266605E+00
        -11   -1    0    0    0    0  0.00000000000E+00  0.00000000000E+00  0.45593999997E+02  0.45594000000E+02  0.51100000000E-03 0.  1.
         11   -1    0    0    0    0 -0.00000000000E+00 -0.00000000000E+00 -0.45593999997E+02  0.45594000000E+02  0.51100000000E-03 0. -1.
    9900012    2    1    2    0    0 -0.13710790799E+02  0.16582930344E+02 -0.23531720859E+02  0.59301933298E+02  0.49999980431E+02 0.  0.
        -12    1    1    2    0    0  0.13710790799E+02 -0.16582930344E+02  0.23531720859E+02  0.31886066702E+02  0.00000000000E+00 0.  1.
         11    1    3    3    0    0 -0.28433765036E+00 -0.92890465417E+01 -0.88874168308E-01  0.92938222724E+01  0.51100000000E-03 0. -1.
        -11    1    3    3    0    0 -0.91097992867E+01  0.26988535735E+01  0.67856491675E+01  0.11675499499E+02  0.51100000000E-03 0.  1.
         12    1    3    3    0    0 -0.43166538624E+01  0.23173123312E+02 -0.30228495858E+02  0.38332611527E+02  0.00000000000E+00 0. -1.
</event>
<event>
 7    1  0.6198176E-013  0.5930204E+02  0.7816164E-02  0.1266604E+00
        -11   -1    0    0    0    0  0.00000000000E+00  0.00000000000E+00  0.45593999997E+02  0.45594000000E+02  0.51100000000E-03 0.  1.
         11   -1    0    0    0    0 -0.00000000000E+00 -0.00000000000E+00 -0.45593999997E+02  0.45594000000E+02  0.51100000000E-03 0. -1.
    9900012    2    1    2    0    0  0.28042518505E+02 -0.13152893469E+02 -0.75718704342E+01  0.59302036433E+02  0.50000168525E+02 0.  0.
        -12    1    1    2    0    0 -0.28042518505E+02  0.13152893469E+02  0.75718704342E+01  0.31885963567E+02  0.00000000000E+00 0.  1.
         11    1    3    3    0    0  0.18417374479E+01  0.26786442077E+01 -0.41914686893E+01  0.53042946424E+01  0.51100000000E-03 0. -1.
        -11    1    3    3    0    0  0.13881318941E+02  0.13010137534E+01  0.18785169409E+02  0.23393722285E+02  0.51100000000E-03 0.  1.
         12    1    3    3    0    0  0.12319462116E+02 -0.17132551430E+02 -0.22165571154E+02  0.30604019506E+02  0.00000000000E+00 0. -1.
</event>
<event>
 7    1  0.6198176E-013  0.5930189E+02  0.7816164E-02  0.1266605E+00
        -11   -1    0    0    0    0  0.00000000000E+00  0.00000000000E+00  0.45593999997E+02  0.45594000000E+02  0.51100000000E-03 0.  1.
         11   -1    0    0    0    0 -0.00000000000E+00 -0.00000000000E+00 -0.45593999997E+02  0.45594000000E+02  0.51100000000E-03 0. -1.
    9900012    2    1    2    0    0  0.31256851723E+02 -0.55399245563E+00 -0.62790366196E+01  0.59301890357E+02  0.49999902118E+02 0.  0.
        -12    1    1    2    0    0 -0.31256851723E+02  0.55399245563E+00  0.62790366196E+01  0.31886109643E+02  0.00000000000E+00 0.  1.
         11    1    3    3    0    0  0.22346957887E+02  0.78629856047E+01 -0.68791433890E+01  0.24668516037E+02  0.51100000000E-03 0. -1.
        -11    1    3    3    0    0  0.18363352234E+02  0.29967247036E+01  0.48268248989E+01  0.19222156567E+02  0.51100000000E-03 0.  1.
        -12    1    3    3    0    0 -0.94534583985E+01 -0.11413702764E+02 -0.42267181295E+01  0.15411217753E+02  0.00000000000E+00 0.  1.
</event>
<event>
 7    1  0.6198176E-013  0.5930194E+02  0.7816164E-02  0.1266605E+00
        -11   -1    0    0    0    0  0.00000000000E+00  0.00000000000E+00  0.45593999997E+02  0.45594000000E+02  0.51100000000E-03 0.  1.
         11   -1    0    0    0    0 -0.00000000000E+00 -0.00000000000E+00 -0.45593999997E+02  0.45594000000E+02  0.51100000000E-03 0. -1.
    9900012    2    1    2    0    0  0.10405993667E+02 -0.30138664987E+02 -0.31149324271E+00  0.59301939418E+02  0.49999991594E+02 0.  0.
        -12    1    1    2    0    0 -0.10405993667E+02  0.30138664987E+02  0.31149324271E+00  0.31886060582E+02  0.00000000000E+00 0.  1.
         11    1    3    3    0    0 -0.25794638959E+01 -0.49505371606E+01  0.54682883159E+01  0.78143220778E+01  0.51100000000E-03 0. -1.
        -11    1    3    3    0    0  0.16781136195E+02 -0.26181773216E+02  0.11960340095E+02  0.33318786235E+02  0.51100000000E-03 0.  1.
         12    1    3    3    0    0 -0.37956786319E+01  0.99364539035E+00 -0.17740121654E+02  0.18168831105E+02  0.00000000000E+00 0. -1.
</event>
<event>
 7    1  0.6198176E-013  0.5930194E+02  0.7816164E-02  0.1266605E+00
        -11   -1    0    0    0    0  0.00000000000E+00  0.00000000000E+00  0.45593999997E+02  0.45594000000E+02  0.51100000000E-03 0. -1.
         11   -1    0    0    0    0 -0.00000000000E+00 -0.00000000000E+00 -0.45593999997E+02  0.45594000000E+02  0.51100000000E-03 0.  1.
    9900012    2    1    2    0    0  0.78532843859E+01  0.74292573578E+01  0.29997544847E+02  0.59301942900E+02  0.49999997943E+02 0.  0.
        -12    1    1    2    0    0 -0.78532843859E+01 -0.74292573578E+01 -0.29997544847E+02  0.31886057100E+02  0.00000000000E+00 0.  1.
         11    1    3    3    0    0  0.60411619443E+01  0.12339966823E+02  0.24656337251E+02  0.28225970058E+02  0.51100000000E-03 0. -1.
        -11    1    3    3    0    0 -0.13918224190E+01  0.12088715070E+02  0.63922267870E+01  0.13745354315E+02  0.51100000000E-03 0.  1.
        -12    1    3    3    0    0  0.32039448607E+01 -0.16999424535E+02 -0.10510191908E+01  0.17330618527E+02  0.00000000000E+00 0.  1.
</event>
<event>
 7    1  0.6198176E-013  0.5930201E+02  0.7816164E-02  0.1266605E+00
        -11   -1    0    0    0    0  0.00000000000E+00  0.00000000000E+00  0.45593999997E+02  0.45594000000E+02  0.51100000000E-03 0.  1.
         11   -1    0    0    0    0 -0.00000000000E+00 -0.00000000000E+00 -0.45593999997E+02  0.45594000000E+02  0.51100000000E-03 0. -1.
    9900012    2    1    2    0    0 -0.24038227647E+00 -0.30996127233E+02 -0.74765592651E+01  0.59302005809E+02  0.50000112675E+02 0.  0.
        -12    1    1    2    0    0  0.24038227647E+00  0.30996127233E+02  0.74765592651E+01  0.31885994191E+02  0.00000000000E+00 0.  1.
         11    1    3    3    0    0  0.49997089769E+00 -0.71367771365E+01 -0.18113416330E+02  0.19475097181E+02  0.51100000000E-03 0. -1.
        -11    1    3    3    0    0  0.17966912244E+01  0.28347706519E+01  0.12504951292E+02  0.12947502890E+02  0.51100000000E-03 0.  1.
         12    1    3    3    0    0 -0.25370443986E+01 -0.26694120748E+02 -0.18680942269E+01  0.26879405738E+02  0.00000000000E+00 0. -1.
</event>
<event>
 7    1  0.6198176E-013  0.5930196E+02  0.7816164E-02  0.1266605E+00
        -11   -1    0    0    0    0  0.00000000000E+00  0.00000000000E+00  0.45593999997E+02  0.45594000000E+02  0.51100000000E-03 0.  1.
         11   -1    0    0    0    0 -0.00000000000E+00 -0.00000000000E+00 -0.45593999997E+02  0.45594000000E+02  0.51100000000E-03 0. -1.
    9900012    2    1    2    0    0 -0.25272708347E+02  0.12988299850E+02 -0.14467690754E+02  0.59301956094E+02  0.50000022007E+02 0.  0.
        -12    1    1    2    0    0  0.25272708347E+02 -0.12988299850E+02  0.14467690754E+02  0.31886043906E+02  0.00000000000E+00 0.  1.
         11    1    3    3    0    0 -0.13660974249E+02  0.10030290929E+01  0.90115122672E+01  0.16396208049E+02  0.51100000000E-03 0. -1.
        -11    1    3    3    0    0 -0.65240258003E+01  0.45729242950E+01  0.73211663116E+01  0.10820075123E+02  0.51100000000E-03 0.  1.
         12    1    3    3    0    0 -0.50877082983E+01  0.74123464617E+01 -0.30800369333E+02  0.32085672922E+02  0.00000000000E+00 0. -1.
</event>
<event>
 7    1  0.6198176E-013  0.5930193E+02  0.7816164E-02  0.1266605E+00
        -11   -1    0    0    0    0  0.00000000000E+00  0.00000000000E+00  0.45593999997E+02  0.45594000000E+02  0.51100000000E-03 0.  1.
         11   -1    0    0    0    0 -0.00000000000E+00 -0.00000000000E+00 -0.45593999997E+02  0.45594000000E+02  0.51100000000E-03 0. -1.
    9900012    2    1    2    0    0 -0.30729859720E+02 -0.78488972608E+01 -0.32850753691E+01  0.59301934284E+02  0.49999982230E+02 0.  0.
        -12    1    1    2    0    0  0.30729859720E+02  0.78488972608E+01  0.32850753691E+01  0.31886065716E+02  0.00000000000E+00 0.  1.
         11    1    3    3    0    0 -0.12116466182E+02  0.22638748963E+01  0.14600161499E+02  0.19107553437E+02  0.51100000000E-03 0.  1.
        -11    1    3    3    0    0 -0.12279384051E+02 -0.18510372221E+02 -0.19493552852E+02  0.29553608163E+02  0.51100000000E-03 0. -1.
         12    1    3    3    0    0 -0.63340094870E+01  0.83976000636E+01  0.16083159836E+01  0.10640772684E+02  0.00000000000E+00 0. -1.
</event>
<event>
 7    1  0.6198176E-013  0.5930195E+02  0.7816164E-02  0.1266605E+00
        -11   -1    0    0    0    0  0.00000000000E+00  0.00000000000E+00  0.45593999997E+02  0.45594000000E+02  0.51100000000E-03 0. -1.
         11   -1    0    0    0    0 -0.00000000000E+00 -0.00000000000E+00 -0.45593999997E+02  0.45594000000E+02  0.51100000000E-03 0.  1.
    9900012    2    1    2    0    0  0.19704703955E+02  0.22700784026E+02 -0.10635764092E+02  0.59301946134E+02  0.50000003842E+02 0.  0.
        -12    1    1    2    0    0 -0.19704703955E+02 -0.22700784026E+02  0.10635764092E+02  0.31886053866E+02  0.00000000000E+00 0.  1.
         11    1    3    3    0    0 -0.93492703314E+01  0.38180743496E+01  0.26235972691E+01  0.10434069693E+02  0.51100000000E-03 0. -1.
        -11    1    3    3    0    0 -0.69844878164E+00  0.65135187129E+01 -0.15237553795E+02  0.16586042404E+02  0.51100000000E-03 0.  1.
         12    1    3    3    0    0  0.29752423068E+02  0.12369190963E+02  0.19781924337E+01  0.32281834037E+02  0.00000000000E+00 0. -1.
</event>
<event>
 7    1  0.6198176E-013  0.5930193E+02  0.7816164E-02  0.1266605E+00
        -11   -1    0    0    0    0  0.00000000000E+00  0.00000000000E+00  0.45593999997E+02  0.45594000000E+02  0.51100000000E-03 0. -1.
         11   -1    0    0    0    0 -0.00000000000E+00 -0.00000000000E+00 -0.45593999997E+02  0.45594000000E+02  0.51100000000E-03 0.  1.
    9900012    2    1    2    0    0 -0.29253366186E+02  0.12686917918E+02 -0.63204120438E-01  0.59301932287E+02  0.49999978587E+02 0.  0.
        -12    1    1    2    0    0  0.29253366186E+02 -0.12686917918E+02  0.63204120438E-01  0.31886067713E+02  0.00000000000E+00 0.  1.
         11    1    3    3    0    0  0.30322775982E+01  0.60731754381E+01  0.15110826461E+02  0.16565483510E+02  0.51100000000E-03 0. -1.
        -11    1    3    3    0    0 -0.12863923183E+02 -0.60434912682E+01  0.13369671180E+01  0.14275566108E+02  0.51100000000E-03 0.  1.
        -12    1    3    3    0    0 -0.19421720601E+02  0.12657233748E+02 -0.16510997699E+02  0.28460882669E+02  0.00000000000E+00 0.  1.
</event>
<event>
 7    1  0.7274395E-013  0.5930202E+02  0.7816164E-02  0.1266605E+00
        -11   -1    0    0    0    0  0.00000000000E+00  0.00000000000E+00  0.45593999997E+02  0.45594000000E+02  0.51100000000E-03 0. -1.
         11   -1    0    0    0    0 -0.00000000000E+00 -0.00000000000E+00 -0.45593999997E+02  0.45594000000E+02  0.51100000000E-03 0.  1.
    9900012    2    1    2    0    0  0.43557188958E+01  0.28727224933E+02  0.13133555882E+02  0.59302015155E+02  0.50000129719E+02 0.  0.
        -12    1    1    2    0    0 -0.43557188958E+01 -0.28727224933E+02 -0.13133555882E+02  0.31885984845E+02  0.00000000000E+00 0.  1.
         11    1    3    3    0    0 -0.10959709022E+01  0.65219817522E+01  0.20701103931E+02  0.21731845352E+02  0.51100000000E-03 0. -1.
        -11    1    3    3    0    0  0.31937308107E+01  0.13272213040E+02  0.10544408778E+02  0.17249235120E+02  0.51100000000E-03 0.  1.
        -12    1    3    3    0    0  0.22579589872E+01  0.89330301401E+01 -0.18111956827E+02  0.20320934683E+02  0.00000000000E+00 0.  1.
</event>
<event>
 7    1  0.6198176E-013  0.5930194E+02  0.7816164E-02  0.1266605E+00
        -11   -1    0    0    0    0  0.00000000000E+00  0.00000000000E+00  0.45593999997E+02  0.45594000000E+02  0.51100000000E-03 0.  1.
         11   -1    0    0    0    0 -0.00000000000E+00 -0.00000000000E+00 -0.45593999997E+02  0.45594000000E+02  0.51100000000E-03 0. -1.
    9900012    2    1    2    0    0 -0.23099224234E+02 -0.76762949917E+01 -0.20596627606E+02  0.59301941389E+02  0.49999995188E+02 0.  0.
        -12    1    1    2    0    0  0.23099224234E+02  0.76762949917E+01  0.20596627606E+02  0.31886058611E+02  0.00000000000E+00 0.  1.
         11    1    3    3    0    0 -0.90838195550E+01 -0.97818882156E+01  0.35290274357E+01  0.13807793078E+02  0.51100000000E-03 0.  1.
        -11    1    3    3    0    0 -0.23913412009E+02 -0.35063152034E+01 -0.74213896820E+01  0.25282850814E+02  0.51100000000E-03 0. -1.
         12    1    3    3    0    0  0.98980073307E+01  0.56119084273E+01 -0.16704265360E+02  0.20211297497E+02  0.00000000000E+00 0. -1.
</event>
<event>
 7    1  0.6198176E-013  0.5930195E+02  0.7816164E-02  0.1266605E+00
        -11   -1    0    0    0    0  0.00000000000E+00  0.00000000000E+00  0.45593999997E+02  0.45594000000E+02  0.51100000000E-03 0.  1.
         11   -1    0    0    0    0 -0.00000000000E+00 -0.00000000000E+00 -0.45593999997E+02  0.45594000000E+02  0.51100000000E-03 0. -1.
    9900012    2    1    2    0    0  0.18480201467E+02  0.24544213606E+02 -0.85313341916E+01  0.59301953979E+02  0.50000018148E+02 0.  0.
        -12    1    1    2    0    0 -0.18480201467E+02 -0.24544213606E+02  0.85313341916E+01  0.31886046021E+02  0.00000000000E+00 0.  1.
         11    1    3    3    0    0 -0.13489463608E+02  0.56994520419E+01 -0.18407906024E+01  0.14759332381E+02  0.51100000000E-03 0. -1.
        -11    1    3    3    0    0  0.15911642156E+02  0.16490067524E+02 -0.13880839023E+02  0.26791423540E+02  0.51100000000E-03 0.  1.
         12    1    3    3    0    0  0.16058022919E+02  0.23546940398E+01  0.71902954336E+01  0.17751198058E+02  0.00000000000E+00 0. -1.
</event>
<event>
 7    1  0.6198176E-013  0.5930232E+02  0.7816164E-02  0.1266603E+00
        -11   -1    0    0    0    0  0.00000000000E+00  0.00000000000E+00  0.45593999997E+02  0.45594000000E+02  0.51100000000E-03 0.  1.
         11   -1    0    0    0    0 -0.00000000000E+00 -0.00000000000E+00 -0.45593999997E+02  0.45594000000E+02  0.51100000000E-03 0. -1.
    9900012    2    1    2    0    0  0.48518642054E+00  0.15016098336E+02 -0.28124327737E+02  0.59302322561E+02  0.50000690349E+02 0.  0.
        -12    1    1    2    0    0 -0.48518642054E+00 -0.15016098336E+02  0.28124327737E+02  0.31885677439E+02  0.00000000000E+00 0.  1.
         11    1    3    3    0    0 -0.21600988263E+01  0.93068742684E+01 -0.29598777654E+02  0.31102597551E+02  0.51100000000E-03 0. -1.
        -11    1    3    3    0    0  0.12136261046E+02  0.11763206960E+02  0.71209652373E+00  0.16916528956E+02  0.51100000000E-03 0.  1.
        -12    1    3    3    0    0 -0.94909757996E+01 -0.60539828928E+01  0.76235339329E+00  0.11283196054E+02  0.00000000000E+00 0.  1.
</event>
<event>
 7    1  0.6198176E-013  0.5930194E+02  0.7816164E-02  0.1266605E+00
        -11   -1    0    0    0    0  0.00000000000E+00  0.00000000000E+00  0.45593999997E+02  0.45594000000E+02  0.51100000000E-03 0. -1.
         11   -1    0    0    0    0 -0.00000000000E+00 -0.00000000000E+00 -0.45593999997E+02  0.45594000000E+02  0.51100000000E-03 0.  1.
    9900012    2    1    2    0    0 -0.14409910611E+02 -0.28326521845E+02  0.25851781490E+01  0.59301944902E+02  0.50000001594E+02 0.  0.
        -12    1    1    2    0    0  0.14409910611E+02  0.28326521845E+02 -0.25851781490E+01  0.31886055098E+02  0.00000000000E+00 0.  1.
         11    1    3    3    0    0  0.51126608192E+01 -0.10751476399E+02  0.15329003839E+01  0.12003471550E+02  0.51100000000E-03 0.  1.
        -11    1    3    3    0    0 -0.56524493788E+01 -0.35058850605E+01  0.19293976286E+02  0.20408305546E+02  0.51100000000E-03 0. -1.
        -12    1    3    3    0    0 -0.13870122052E+02 -0.14069160385E+02 -0.18241698521E+02  0.26890167806E+02  0.00000000000E+00 0.  1.
</event>
<event>
 7    1  0.6198176E-013  0.5930194E+02  0.7816164E-02  0.1266605E+00
        -11   -1    0    0    0    0  0.00000000000E+00  0.00000000000E+00  0.45593999997E+02  0.45594000000E+02  0.51100000000E-03 0.  1.
         11   -1    0    0    0    0 -0.00000000000E+00 -0.00000000000E+00 -0.45593999997E+02  0.45594000000E+02  0.51100000000E-03 0. -1.
    9900012    2    1    2    0    0  0.25455414279E+02  0.15740748055E+02 -0.10998716165E+02  0.59301936858E+02  0.49999986924E+02 0.  0.
        -12    1    1    2    0    0 -0.25455414279E+02 -0.15740748055E+02  0.10998716165E+02  0.31886063142E+02  0.00000000000E+00 0.  1.
         11    1    3    3    0    0  0.80139256493E+01 -0.17616225075E+01  0.10142260414E+01  0.82677066285E+01  0.51100000000E-03 0. -1.
        -11    1    3    3    0    0 -0.13012762090E+02 -0.44675797148E+00  0.16725886493E+01  0.13127418746E+02  0.51100000000E-03 0.  1.
         12    1    3    3    0    0  0.30454250719E+02  0.17949128534E+02 -0.13685530856E+02  0.37906811483E+02  0.00000000000E+00 0. -1.
</event>
<event>
 7    1  0.6198176E-013  0.5930189E+02  0.7816164E-02  0.1266605E+00
        -11   -1    0    0    0    0  0.00000000000E+00  0.00000000000E+00  0.45593999997E+02  0.45594000000E+02  0.51100000000E-03 0. -1.
         11   -1    0    0    0    0 -0.00000000000E+00 -0.00000000000E+00 -0.45593999997E+02  0.45594000000E+02  0.51100000000E-03 0.  1.
    9900012    2    1    2    0    0  0.18547481689E+02 -0.24164068694E+02  0.94240600999E+01  0.59301887010E+02  0.49999896013E+02 0.  0.
        -12    1    1    2    0    0 -0.18547481689E+02  0.24164068694E+02 -0.94240600999E+01  0.31886112990E+02  0.00000000000E+00 0.  1.
         11    1    3    3    0    0 -0.16583744584E+01  0.70538748766E+01  0.17052853690E+02  0.18528550290E+02  0.51100000000E-03 0. -1.
        -11    1    3    3    0    0  0.10755085405E+01  0.16560709337E+01  0.29474269924E-01  0.19748819083E+01  0.51100000000E-03 0.  1.
        -12    1    3    3    0    0  0.19130347607E+02 -0.32874014504E+02 -0.76582678598E+01  0.38798454812E+02  0.00000000000E+00 0.  1.
</event>
<event>
 7    1  0.6198176E-013  0.5930194E+02  0.7816164E-02  0.1266605E+00
        -11   -1    0    0    0    0  0.00000000000E+00  0.00000000000E+00  0.45593999997E+02  0.45594000000E+02  0.51100000000E-03 0.  1.
         11   -1    0    0    0    0 -0.00000000000E+00 -0.00000000000E+00 -0.45593999997E+02  0.45594000000E+02  0.51100000000E-03 0. -1.
    9900012    2    1    2    0    0 -0.16827583983E+02  0.22084115628E+02 -0.15679451137E+02  0.59301938252E+02  0.49999989467E+02 0.  0.
        -12    1    1    2    0    0  0.16827583983E+02 -0.22084115628E+02  0.15679451137E+02  0.31886061748E+02  0.00000000000E+00 0.  1.
         11    1    3    3    0    0 -0.10122052697E+01 -0.68529450694E+01 -0.17195904205E+02  0.18538784678E+02  0.51100000000E-03 0. -1.
        -11    1    3    3    0    0 -0.39791896832E+01 -0.40277211970E+01 -0.47172479256E+00  0.56814622340E+01  0.51100000000E-03 0.  1.
         12    1    3    3    0    0 -0.11836189031E+02  0.32964781895E+02  0.19881778604E+01  0.35081691341E+02  0.00000000000E+00 0. -1.
</event>
<event>
 7    1  0.6198176E-013  0.5930219E+02  0.7816164E-02  0.1266604E+00
        -11   -1    0    0    0    0  0.00000000000E+00  0.00000000000E+00  0.45593999997E+02  0.45594000000E+02  0.51100000000E-03 0.  1.
         11   -1    0    0    0    0 -0.00000000000E+00 -0.00000000000E+00 -0.45593999997E+02  0.45594000000E+02  0.51100000000E-03 0. -1.
    9900012    2    1    2    0    0  0.23076311609E+02  0.19945448442E+02 -0.92934383653E+01  0.59302187047E+02  0.50000443206E+02 0.  0.
        -12    1    1    2    0    0 -0.23076311609E+02 -0.19945448442E+02  0.92934383653E+01  0.31885812953E+02  0.00000000000E+00 0.  1.
         11    1    3    3    0    0 -0.11997053497E+02  0.11881933511E+02 -0.11763985988E+02  0.20579140000E+02  0.51100000000E-03 0. -1.
        -11    1    3    3    0    0  0.11084510504E+02 -0.32968000417E+01 -0.22017418274E+01  0.11772125168E+02  0.51100000000E-03 0.  1.
        -12    1    3    3    0    0  0.23988854602E+02  0.11360314973E+02  0.46722894504E+01  0.26950921878E+02  0.00000000000E+00 0.  1.
</event>
<event>
 7    1  0.6198176E-013  0.5930195E+02  0.7816164E-02  0.1266605E+00
        -11   -1    0    0    0    0  0.00000000000E+00  0.00000000000E+00  0.45593999997E+02  0.45594000000E+02  0.51100000000E-03 0. -1.
         11   -1    0    0    0    0 -0.00000000000E+00 -0.00000000000E+00 -0.45593999997E+02  0.45594000000E+02  0.51100000000E-03 0.  1.
    9900012    2    1    2    0    0  0.48823247180E+01 -0.31445358824E+02  0.20180259906E+01  0.59301951089E+02  0.50000012878E+02 0.  0.
        -12    1    1    2    0    0 -0.48823247180E+01  0.31445358824E+02 -0.20180259906E+01  0.31886048911E+02  0.00000000000E+00 0.  1.
         11    1    3    3    0    0  0.10491988960E+01  0.12166992007E+01  0.47321883576E+01  0.49974775818E+01  0.51100000000E-03 0.  1.
        -11    1    3    3    0    0  0.14831373175E+02 -0.17443573025E+02  0.15891483069E+02  0.27870900676E+02  0.51100000000E-03 0. -1.
        -12    1    3    3    0    0 -0.10998247353E+02 -0.15218485000E+02 -0.18605645436E+02  0.26433572831E+02  0.00000000000E+00 0.  1.
</event>
<event>
 7    1  0.6198176E-013  0.5930193E+02  0.7816164E-02  0.1266605E+00
        -11   -1    0    0    0    0  0.00000000000E+00  0.00000000000E+00  0.45593999997E+02  0.45594000000E+02  0.51100000000E-03 0.  1.
         11   -1    0    0    0    0 -0.00000000000E+00 -0.00000000000E+00 -0.45593999997E+02  0.45594000000E+02  0.51100000000E-03 0. -1.
    9900012    2    1    2    0    0 -0.26792820890E+01 -0.10768225986E+02 -0.29892948932E+02  0.59301927190E+02  0.49999969292E+02 0.  0.
        -12    1    1    2    0    0  0.26792820890E+01  0.10768225986E+02  0.29892948932E+02  0.31886072810E+02  0.00000000000E+00 0.  1.
         11    1    3    3    0    0 -0.87696651777E+01  0.35694948647E+01 -0.83320543500E+01  0.12612353106E+02  0.51100000000E-03 0. -1.
        -11    1    3    3    0    0 -0.18408647445E+01  0.10886422567E+02  0.20627596099E+01  0.11232005911E+02  0.51100000000E-03 0.  1.
         12    1    3    3    0    0  0.79312478332E+01 -0.25224143418E+02 -0.23623654192E+02  0.35457568173E+02  0.00000000000E+00 0. -1.
</event>
<event>
 7    1  0.6198176E-013  0.5930195E+02  0.7816164E-02  0.1266605E+00
        -11   -1    0    0    0    0  0.00000000000E+00  0.00000000000E+00  0.45593999997E+02  0.45594000000E+02  0.51100000000E-03 0. -1.
         11   -1    0    0    0    0 -0.00000000000E+00 -0.00000000000E+00 -0.45593999997E+02  0.45594000000E+02  0.51100000000E-03 0.  1.
    9900012    2    1    2    0    0  0.15907594548E+02 -0.19280737965E+01  0.27567216238E+02  0.59301945933E+02  0.50000003475E+02 0.  0.
        -12    1    1    2    0    0 -0.15907594548E+02  0.19280737965E+01 -0.27567216238E+02  0.31886054067E+02  0.00000000000E+00 0.  1.
         11    1    3    3    0    0 -0.11633532036E+02 -0.70644083659E+01  0.10303732644E+01  0.13649417662E+02  0.51100000000E-03 0. -1.
        -11    1    3    3    0    0  0.44301291235E+01 -0.40081752974E+00 -0.46551839609E+01  0.64387449642E+01  0.51100000000E-03 0.  1.
        -12    1    3    3    0    0  0.23110997460E+02  0.55371520992E+01  0.31192026934E+02  0.39213783307E+02  0.00000000000E+00 0.  1.
</event>
<event>
 7    1  0.6198176E-013  0.5930196E+02  0.7816164E-02  0.1266605E+00
        -11   -1    0    0    0    0  0.00000000000E+00  0.00000000000E+00  0.45593999997E+02  0.45594000000E+02  0.51100000000E-03 0. -1.
         11   -1    0    0    0    0 -0.00000000000E+00 -0.00000000000E+00 -0.45593999997E+02  0.45594000000E+02  0.51100000000E-03 0.  1.
    9900012    2    1    2    0    0 -0.22839585348E+02  0.21504790834E+02  0.57111159504E+01  0.59301960216E+02  0.50000029524E+02 0.  0.
        -12    1    1    2    0    0  0.22839585348E+02 -0.21504790834E+02 -0.57111159504E+01  0.31886039784E+02  0.00000000000E+00 0.  1.
         11    1    3    3    0    0  0.91050464937E+00  0.14918594681E+02  0.72853135911E+01  0.16627365406E+02  0.51100000000E-03 0. -1.
        -11    1    3    3    0    0 -0.95147851406E+01 -0.14410658282E+02 -0.10821104899E+01  0.17302288050E+02  0.51100000000E-03 0.  1.
         12    1    3    3    0    0 -0.14235304857E+02  0.20996854436E+02 -0.49208715078E+00  0.25372306760E+02  0.00000000000E+00 0. -1.
</event>
<event>
 7    1  0.6198176E-013  0.5930196E+02  0.7816164E-02  0.1266605E+00
        -11   -1    0    0    0    0  0.00000000000E+00  0.00000000000E+00  0.45593999997E+02  0.45594000000E+02  0.51100000000E-03 0. -1.
         11   -1    0    0    0    0 -0.00000000000E+00 -0.00000000000E+00 -0.45593999997E+02  0.45594000000E+02  0.51100000000E-03 0.  1.
    9900012    2    1    2    0    0 -0.29872326581E+02 -0.10414258591E+02 -0.39883468511E+01  0.59301959355E+02  0.50000027954E+02 0.  0.
        -12    1    1    2    0    0  0.29872326581E+02  0.10414258591E+02  0.39883468511E+01  0.31886040645E+02  0.00000000000E+00 0.  1.
         11    1    3    3    0    0 -0.22829068030E+02 -0.28899261333E+00  0.10698094244E+02  0.25213073683E+02  0.51100000000E-03 0. -1.
        -11    1    3    3    0    0 -0.16779066677E+02 -0.30826201753E+01 -0.13972729834E+02  0.22051684855E+02  0.51100000000E-03 0.  1.
        -12    1    3    3    0    0  0.97358081251E+01 -0.70426458026E+01 -0.71371126096E+00  0.12037200817E+02  0.00000000000E+00 0.  1.
</event>
<event>
 7    1  0.6198176E-013  0.5930196E+02  0.7816164E-02  0.1266605E+00
        -11   -1    0    0    0    0  0.00000000000E+00  0.00000000000E+00  0.45593999997E+02  0.45594000000E+02  0.51100000000E-03 0. -1.
         11   -1    0    0    0    0 -0.00000000000E+00 -0.00000000000E+00 -0.45593999997E+02  0.45594000000E+02  0.51100000000E-03 0.  1.
    9900012    2    1    2    0    0  0.55320557185E+01 -0.64237861859E+01  0.30738422285E+02  0.59301964279E+02  0.50000036933E+02 0.  0.
        -12    1    1    2    0    0 -0.55320557185E+01  0.64237861859E+01 -0.30738422285E+02  0.31886035721E+02  0.00000000000E+00 0.  1.
         11    1    3    3    0    0 -0.86485465853E+00  0.53469039939E+01  0.38113739693E+02  0.38496681799E+02  0.51100000000E-03 0. -1.
        -11    1    3    3    0    0 -0.34498667193E+01 -0.43294071953E+01 -0.63444115756E+01  0.84200300204E+01  0.51100000000E-03 0.  1.
        -12    1    3    3    0    0  0.98467770963E+01 -0.74412829846E+01 -0.10309058325E+01  0.12385252459E+02  0.00000000000E+00 0.  1.
</event>
<event>
 7    1  0.6198176E-013  0.5930206E+02  0.7816164E-02  0.1266604E+00
        -11   -1    0    0    0    0  0.00000000000E+00  0.00000000000E+00  0.45593999997E+02  0.45594000000E+02  0.51100000000E-03 0.  1.
         11   -1    0    0    0    0 -0.00000000000E+00 -0.00000000000E+00 -0.45593999997E+02  0.45594000000E+02  0.51100000000E-03 0. -1.
    9900012    2    1    2    0    0 -0.28727762527E+02  0.10690709018E+02 -0.87827844260E+01  0.59302064207E+02  0.50000219178E+02 0.  0.
        -12    1    1    2    0    0  0.28727762527E+02 -0.10690709018E+02  0.87827844260E+01  0.31885935793E+02  0.00000000000E+00 0.  1.
         11    1    3    3    0    0  0.89767643332E+01 -0.53217970026E+01  0.64832060236E+01  0.12285592450E+02  0.51100000000E-03 0. -1.
        -11    1    3    3    0    0 -0.17803929704E+02  0.71708075302E+01  0.19002842407E+01  0.19287598969E+02  0.51100000000E-03 0.  1.
        -12    1    3    3    0    0 -0.19900597156E+02  0.88416984903E+01 -0.17166274690E+02  0.27728872789E+02  0.00000000000E+00 0.  1.
</event>
<event>
 7    1  0.6198176E-013  0.5930221E+02  0.7816164E-02  0.1266604E+00
        -11   -1    0    0    0    0  0.00000000000E+00  0.00000000000E+00  0.45593999997E+02  0.45594000000E+02  0.51100000000E-03 0. -1.
         11   -1    0    0    0    0 -0.00000000000E+00 -0.00000000000E+00 -0.45593999997E+02  0.45594000000E+02  0.51100000000E-03 0.  1.
    9900012    2    1    2    0    0  0.22135872168E+02 -0.11961231941E+02  0.19586612946E+02  0.59302214564E+02  0.50000493391E+02 0.  0.
        -12    1    1    2    0    0 -0.22135872168E+02  0.11961231941E+02 -0.19586612946E+02  0.31885785436E+02  0.00000000000E+00 0.  1.
         11    1    3    3    0    0  0.10944713930E+02 -0.12830509035E+02  0.16899513521E+02  0.23874720577E+02  0.51100000000E-03 0. -1.
        -11    1    3    3    0    0  0.15594645802E+02 -0.13281755524E+02  0.95586702467E+00  0.20506381678E+02  0.51100000000E-03 0.  1.
        -12    1    3    3    0    0 -0.44034875649E+01  0.14151032618E+02  0.17312324004E+01  0.14921112309E+02  0.00000000000E+00 0.  1.
</event>
<event>
 7    1  0.6198176E-013  0.5930194E+02  0.7816164E-02  0.1266605E+00
        -11   -1    0    0    0    0  0.00000000000E+00  0.00000000000E+00  0.45593999997E+02  0.45594000000E+02  0.51100000000E-03 0.  1.
         11   -1    0    0    0    0 -0.00000000000E+00 -0.00000000000E+00 -0.45593999997E+02  0.45594000000E+02  0.51100000000E-03 0. -1.
    9900012    2    1    2    0    0  0.26079157689E+02  0.15810475873E+02 -0.93073671303E+01  0.59301941981E+02  0.49999996268E+02 0.  0.
        -12    1    1    2    0    0 -0.26079157689E+02 -0.15810475873E+02  0.93073671303E+01  0.31886058019E+02  0.00000000000E+00 0.  1.
         11    1    3    3    0    0  0.26039456705E+01  0.34704416811E+01 -0.27940720786E+01  0.51605559350E+01  0.51100000000E-03 0. -1.
        -11    1    3    3    0    0  0.28494950518E+02 -0.81433776682E+01 -0.12582071500E+02  0.32196045229E+02  0.51100000000E-03 0.  1.
        -12    1    3    3    0    0 -0.50197384994E+01  0.20483411860E+02  0.60687764486E+01  0.21945340817E+02  0.00000000000E+00 0.  1.
</event>
<event>
 7    1  0.6198176E-013  0.5930193E+02  0.7816164E-02  0.1266605E+00
        -11   -1    0    0    0    0  0.00000000000E+00  0.00000000000E+00  0.45593999997E+02  0.45594000000E+02  0.51100000000E-03 0.  1.
         11   -1    0    0    0    0 -0.00000000000E+00 -0.00000000000E+00 -0.45593999997E+02  0.45594000000E+02  0.51100000000E-03 0. -1.
    9900012    2    1    2    0    0  0.18105441604E+02 -0.11422654912E+02 -0.23631274736E+02  0.59301933975E+02  0.49999981666E+02 0.  0.
        -12    1    1    2    0    0 -0.18105441604E+02  0.11422654912E+02  0.23631274736E+02  0.31886066025E+02  0.00000000000E+00 0.  1.
         11    1    3    3    0    0 -0.66745239617E+00 -0.16741303707E+02 -0.13221740409E+02  0.21343176010E+02  0.51100000000E-03 0. -1.
        -11    1    3    3    0    0  0.72702784000E+01 -0.49905905822E+01 -0.18520201212E+02  0.20512454645E+02  0.51100000000E-03 0.  1.
        -12    1    3    3    0    0  0.11502615600E+02  0.10309239376E+02  0.81106668856E+01  0.17446303319E+02  0.00000000000E+00 0.  1.
</event>
<event>
 7    1  0.6198176E-013  0.5930195E+02  0.7816164E-02  0.1266605E+00
        -11   -1    0    0    0    0  0.00000000000E+00  0.00000000000E+00  0.45593999997E+02  0.45594000000E+02  0.51100000000E-03 0. -1.
         11   -1    0    0    0    0 -0.00000000000E+00 -0.00000000000E+00 -0.45593999997E+02  0.45594000000E+02  0.51100000000E-03 0.  1.
    9900012    2    1    2    0    0  0.16080065531E+02  0.27103432363E+02 -0.48534196981E+01  0.59301949192E+02  0.50000009419E+02 0.  0.
        -12    1    1    2    0    0 -0.16080065531E+02 -0.27103432363E+02  0.48534196981E+01  0.31886050808E+02  0.00000000000E+00 0.  1.
         11    1    3    3    0    0  0.88869474215E+00  0.11566328446E+02  0.80703875457E+01  0.14131556442E+02  0.51100000000E-03 0. -1.
        -11    1    3    3    0    0 -0.84292290657E+01  0.17178475730E+02 -0.90901192996E+01  0.21184480173E+02  0.51100000000E-03 0.  1.
        -12    1    3    3    0    0  0.23620599855E+02 -0.16413718130E+01 -0.38336879443E+01  0.23985912577E+02  0.00000000000E+00 0.  1.
</event>
<event>
 7    1  0.6198176E-013  0.5930194E+02  0.7816164E-02  0.1266605E+00
        -11   -1    0    0    0    0  0.00000000000E+00  0.00000000000E+00  0.45593999997E+02  0.45594000000E+02  0.51100000000E-03 0. -1.
         11   -1    0    0    0    0 -0.00000000000E+00 -0.00000000000E+00 -0.45593999997E+02  0.45594000000E+02  0.51100000000E-03 0.  1.
    9900012    2    1    2    0    0  0.75224291649E+01 -0.10283774543E+02  0.29229738072E+02  0.59301944315E+02  0.50000000523E+02 0.  0.
        -12    1    1    2    0    0 -0.75224291649E+01  0.10283774543E+02 -0.29229738072E+02  0.31886055685E+02  0.00000000000E+00 0.  1.
         11    1    3    3    0    0 -0.10258694621E+02 -0.14127091474E+02  0.19998518390E+02  0.26547245938E+02  0.51100000000E-03 0. -1.
        -11    1    3    3    0    0  0.25220994059E+01 -0.10275124715E+02  0.21769456430E+01  0.10801771425E+02  0.51100000000E-03 0.  1.
         12    1    3    3    0    0  0.15259024380E+02  0.14118441645E+02  0.70542740389E+01  0.21952926952E+02  0.00000000000E+00 0. -1.
</event>
<event>
 7    1  0.6198176E-013  0.5930207E+02  0.7816164E-02  0.1266604E+00
        -11   -1    0    0    0    0  0.00000000000E+00  0.00000000000E+00  0.45593999997E+02  0.45594000000E+02  0.51100000000E-03 0.  1.
         11   -1    0    0    0    0 -0.00000000000E+00 -0.00000000000E+00 -0.45593999997E+02  0.45594000000E+02  0.51100000000E-03 0. -1.
    9900012    2    1    2    0    0  0.23194752661E+02  0.17695188318E+02 -0.12868432844E+02  0.59302065726E+02  0.50000221949E+02 0.  0.
        -12    1    1    2    0    0 -0.23194752661E+02 -0.17695188318E+02  0.12868432844E+02  0.31885934274E+02  0.00000000000E+00 0.  1.
         11    1    3    3    0    0  0.29638751136E+01 -0.77773231516E+01 -0.11953564553E+02  0.14565679417E+02  0.51100000000E-03 0. -1.
        -11    1    3    3    0    0 -0.33107211108E+01 -0.21827973008E+01  0.65518086914E+01  0.76584382037E+01  0.51100000000E-03 0.  1.
         12    1    3    3    0    0  0.23541598658E+02  0.27655308771E+02 -0.74666769833E+01  0.37077948106E+02  0.00000000000E+00 0. -1.
</event>
<event>
 7    1  0.6198176E-013  0.5930197E+02  0.7816164E-02  0.1266605E+00
        -11   -1    0    0    0    0  0.00000000000E+00  0.00000000000E+00  0.45593999997E+02  0.45594000000E+02  0.51100000000E-03 0. -1.
         11   -1    0    0    0    0 -0.00000000000E+00 -0.00000000000E+00 -0.45593999997E+02  0.45594000000E+02  0.51100000000E-03 0.  1.
    9900012    2    1    2    0    0  0.11735139700E+02  0.28856647385E+02  0.68043807642E+01  0.59301965444E+02  0.50000039059E+02 0.  0.
        -12    1    1    2    0    0 -0.11735139700E+02 -0.28856647385E+02 -0.68043807642E+01  0.31886034556E+02  0.00000000000E+00 0.  1.
         11    1    3    3    0    0  0.91485888013E+01  0.52906687170E+01  0.27307122206E+01  0.10915339758E+02  0.51100000000E-03 0. -1.
        -11    1    3    3    0    0  0.24009613296E+01  0.32301951899E+02 -0.81124660947E+01  0.33391508175E+02  0.51100000000E-03 0.  1.
        -12    1    3    3    0    0  0.18558956923E+00 -0.87359732307E+01  0.12186134638E+02  0.14995117512E+02  0.00000000000E+00 0.  1.
</event>
<event>
 7    1  0.6198176E-013  0.5930194E+02  0.7816164E-02  0.1266605E+00
        -11   -1    0    0    0    0  0.00000000000E+00  0.00000000000E+00  0.45593999997E+02  0.45594000000E+02  0.51100000000E-03 0. -1.
         11   -1    0    0    0    0 -0.00000000000E+00 -0.00000000000E+00 -0.45593999997E+02  0.45594000000E+02  0.51100000000E-03 0.  1.
    9900012    2    1    2    0    0  0.82207574187E+01  0.29826787692E+02  0.77137842955E+01  0.59301943726E+02  0.49999999449E+02 0.  0.
        -12    1    1    2    0    0 -0.82207574187E+01 -0.29826787692E+02 -0.77137842955E+01  0.31886056274E+02  0.00000000000E+00 0.  1.
         11    1    3    3    0    0  0.55850714819E+01  0.20209746192E+02 -0.28603882137E+01  0.21161490628E+02  0.51100000000E-03 0. -1.
        -11    1    3    3    0    0  0.17315975508E+02  0.11723611544E+02  0.10292502093E+02  0.23307116403E+02  0.51100000000E-03 0.  1.
         12    1    3    3    0    0 -0.14680289572E+02 -0.21065700443E+01  0.28167041617E+00  0.14833336694E+02  0.00000000000E+00 0. -1.
</event>
<event>
 7    1  0.6198176E-013  0.5930200E+02  0.7816164E-02  0.1266605E+00
        -11   -1    0    0    0    0  0.00000000000E+00  0.00000000000E+00  0.45593999997E+02  0.45594000000E+02  0.51100000000E-03 0. -1.
         11   -1    0    0    0    0 -0.00000000000E+00 -0.00000000000E+00 -0.45593999997E+02  0.45594000000E+02  0.51100000000E-03 0.  1.
    9900012    2    1    2    0    0  0.60615418660E+00 -0.21108702833E+02  0.23890837682E+02  0.59302001766E+02  0.50000105302E+02 0.  0.
        -12    1    1    2    0    0 -0.60615418660E+00  0.21108702833E+02 -0.23890837682E+02  0.31885998234E+02  0.00000000000E+00 0.  1.
         11    1    3    3    0    0 -0.16806613296E+01 -0.87297139662E+01  0.31119192128E+02  0.32364125933E+02  0.51100000000E-03 0. -1.
        -11    1    3    3    0    0 -0.76414353818E+01 -0.13664210247E+02 -0.24550982634E+01  0.15847071784E+02  0.51100000000E-03 0.  1.
         12    1    3    3    0    0  0.99282508980E+01  0.12852213800E+01 -0.47732561827E+01  0.11090804050E+02  0.00000000000E+00 0. -1.
</event>
<event>
 7    1  0.6198176E-013  0.5930195E+02  0.7816164E-02  0.1266605E+00
        -11   -1    0    0    0    0  0.00000000000E+00  0.00000000000E+00  0.45593999997E+02  0.45594000000E+02  0.51100000000E-03 0.  1.
         11   -1    0    0    0    0 -0.00000000000E+00 -0.00000000000E+00 -0.45593999997E+02  0.45594000000E+02  0.51100000000E-03 0. -1.
    9900012    2    1    2    0    0 -0.21265584494E+02 -0.21989298826E+02 -0.89981052074E+01  0.59301949068E+02  0.50000009191E+02 0.  0.
        -12    1    1    2    0    0  0.21265584494E+02  0.21989298826E+02  0.89981052074E+01  0.31886050932E+02  0.00000000000E+00 0.  1.
         11    1    3    3    0    0 -0.83666358976E+01 -0.23624816078E+02 -0.94350743067E+01  0.26779715428E+02  0.51100000000E-03 0. -1.
        -11    1    3    3    0    0 -0.67745416110E+01 -0.13715347879E+02  0.35509469036E+01  0.15703961464E+02  0.51100000000E-03 0.  1.
        -12    1    3    3    0    0 -0.61244069856E+01  0.15350865131E+02 -0.31139778043E+01  0.16818272175E+02  0.00000000000E+00 0.  1.
</event>
<event>
 7    1  0.6198176E-013  0.5930193E+02  0.7816164E-02  0.1266605E+00
        -11   -1    0    0    0    0  0.00000000000E+00  0.00000000000E+00  0.45593999997E+02  0.45594000000E+02  0.51100000000E-03 0. -1.
         11   -1    0    0    0    0 -0.00000000000E+00 -0.00000000000E+00 -0.45593999997E+02  0.45594000000E+02  0.51100000000E-03 0.  1.
    9900012    2    1    2    0    0 -0.11242560111E+02 -0.34429470177E+01  0.29639036839E+02  0.59301928640E+02  0.49999971936E+02 0.  0.
        -12    1    1    2    0    0  0.11242560111E+02  0.34429470177E+01 -0.29639036839E+02  0.31886071360E+02  0.00000000000E+00 0.  1.
         11    1    3    3    0    0 -0.17999595430E+02  0.60723294538E+01  0.28470535857E+02  0.34226160067E+02  0.51100000000E-03 0. -1.
        -11    1    3    3    0    0  0.56608512512E+01 -0.91823994175E+01  0.10865808943E+02  0.15311025446E+02  0.51100000000E-03 0.  1.
        -12    1    3    3    0    0  0.10961840673E+01 -0.33287705407E+00 -0.96973079614E+01  0.97647431272E+01  0.00000000000E+00 0.  1.
</event>
<event>
 7    1  0.6198176E-013  0.5930191E+02  0.7816164E-02  0.1266605E+00
        -11   -1    0    0    0    0  0.00000000000E+00  0.00000000000E+00  0.45593999997E+02  0.45594000000E+02  0.51100000000E-03 0.  1.
         11   -1    0    0    0    0 -0.00000000000E+00 -0.00000000000E+00 -0.45593999997E+02  0.45594000000E+02  0.51100000000E-03 0. -1.
    9900012    2    1    2    0    0  0.38349032691E+01 -0.22662934027E+02 -0.22099940761E+02  0.59301914580E+02  0.49999946294E+02 0.  0.
        -12    1    1    2    0    0 -0.38349032691E+01  0.22662934027E+02  0.22099940761E+02  0.31886085420E+02  0.00000000000E+00 0.  1.
         11    1    3    3    0    0 -0.37163109914E+01 -0.28993693505E+02 -0.21931395899E+01  0.29313053269E+02  0.51100000000E-03 0. -1.
        -11    1    3    3    0    0  0.25624332834E+01 -0.14212745128E+01  0.36569301425E+01  0.46860669971E+01  0.51100000000E-03 0.  1.
         12    1    3    3    0    0  0.49887809770E+01  0.77520339911E+01 -0.23563731314E+02  0.25302794313E+02  0.00000000000E+00 0. -1.
</event>
<event>
 7    1  0.6198176E-013  0.5930188E+02  0.7816164E-02  0.1266605E+00
        -11   -1    0    0    0    0  0.00000000000E+00  0.00000000000E+00  0.45593999997E+02  0.45594000000E+02  0.51100000000E-03 0. -1.
         11   -1    0    0    0    0 -0.00000000000E+00 -0.00000000000E+00 -0.45593999997E+02  0.45594000000E+02  0.51100000000E-03 0.  1.
    9900012    2    1    2    0    0  0.29236236407E+02  0.12426079961E+02 -0.27494572258E+01  0.59301882370E+02  0.49999887551E+02 0.  0.
        -12    1    1    2    0    0 -0.29236236407E+02 -0.12426079961E+02  0.27494572258E+01  0.31886117630E+02  0.00000000000E+00 0.  1.
         11    1    3    3    0    0  0.12264808085E+01  0.94673670296E+01 -0.22572251583E+01  0.98097074025E+01  0.51100000000E-03 0. -1.
        -11    1    3    3    0    0 -0.88085951868E+01  0.71470400091E+01  0.42932790453E+01  0.12128634518E+02  0.51100000000E-03 0.  1.
         12    1    3    3    0    0  0.36818350786E+02 -0.41883270777E+01 -0.47855111128E+01  0.37363540449E+02  0.00000000000E+00 0. -1.
</event>
<event>
 7    1  0.6198176E-013  0.5930196E+02  0.7816164E-02  0.1266605E+00
        -11   -1    0    0    0    0  0.00000000000E+00  0.00000000000E+00  0.45593999997E+02  0.45594000000E+02  0.51100000000E-03 0. -1.
         11   -1    0    0    0    0 -0.00000000000E+00 -0.00000000000E+00 -0.45593999997E+02  0.45594000000E+02  0.51100000000E-03 0.  1.
    9900012    2    1    2    0    0  0.16978372551E+02  0.23996076352E+02  0.12354869384E+02  0.59301958975E+02  0.50000027259E+02 0.  0.
        -12    1    1    2    0    0 -0.16978372551E+02 -0.23996076352E+02 -0.12354869384E+02  0.31886041025E+02  0.00000000000E+00 0.  1.
         11    1    3    3    0    0  0.83703292726E+01 -0.78820478691E+01  0.12385289833E+02  0.16899245405E+02  0.51100000000E-03 0. -1.
        -11    1    3    3    0    0  0.24622528176E+01  0.21891645139E+02 -0.12464589332E+02  0.25311515231E+02  0.51100000000E-03 0.  1.
         12    1    3    3    0    0  0.61457904611E+01  0.99864790822E+01  0.12434168883E+02  0.17091198339E+02  0.00000000000E+00 0. -1.
</event>
<event>
 7    1  0.7063527E-013  0.5930193E+02  0.7816164E-02  0.1266605E+00
        -11   -1    0    0    0    0  0.00000000000E+00  0.00000000000E+00  0.45593999997E+02  0.45594000000E+02  0.51100000000E-03 0.  1.
         11   -1    0    0    0    0 -0.00000000000E+00 -0.00000000000E+00 -0.45593999997E+02  0.45594000000E+02  0.51100000000E-03 0. -1.
    9900012    2    1    2    0    0  0.27330020283E+02  0.44114505464E+01 -0.15821836359E+02  0.59301930778E+02  0.49999975837E+02 0.  0.
        -12    1    1    2    0    0 -0.27330020283E+02 -0.44114505464E+01  0.15821836359E+02  0.31886069222E+02  0.00000000000E+00 0.  1.
         11    1    3    3    0    0  0.29035111629E+02  0.11116535683E+01 -0.13040074473E+02  0.31848344125E+02  0.51100000000E-03 0. -1.
        -11    1    3    3    0    0  0.12980983225E+01 -0.84021639756E+01 -0.10198490588E+02  0.13277448146E+02  0.51100000000E-03 0.  1.
        -12    1    3    3    0    0 -0.30031896685E+01  0.11701960954E+02  0.74167287018E+01  0.14176138507E+02  0.00000000000E+00 0.  1.
</event>
<event>
 7    1  0.6198176E-013  0.5930195E+02  0.7816164E-02  0.1266605E+00
        -11   -1    0    0    0    0  0.00000000000E+00  0.00000000000E+00  0.45593999997E+02  0.45594000000E+02  0.51100000000E-03 0. -1.
         11   -1    0    0    0    0 -0.00000000000E+00 -0.00000000000E+00 -0.45593999997E+02  0.45594000000E+02  0.51100000000E-03 0.  1.
    9900012    2    1    2    0    0 -0.40392009002E+01 -0.31603993288E+02  0.12621048647E+01  0.59301945927E+02  0.50000003464E+02 0.  0.
        -12    1    1    2    0    0  0.40392009002E+01  0.31603993288E+02 -0.12621048647E+01  0.31886054073E+02  0.00000000000E+00 0.  1.
         11    1    3    3    0    0  0.52540309300E+01  0.28961747850E+01  0.90870658881E+01  0.10888867531E+02  0.51100000000E-03 0. -1.
        -11    1    3    3    0    0  0.96881471362E+01 -0.55368120777E+01 -0.80904781457E+01  0.13783044649E+02  0.51100000000E-03 0.  1.
         12    1    3    3    0    0 -0.18981378966E+02 -0.28963355995E+02  0.26551712236E+00  0.34630033747E+02  0.00000000000E+00 0. -1.
</event>
<event>
 7    1  0.6198176E-013  0.5930197E+02  0.7816164E-02  0.1266605E+00
        -11   -1    0    0    0    0  0.00000000000E+00  0.00000000000E+00  0.45593999997E+02  0.45594000000E+02  0.51100000000E-03 0.  1.
         11   -1    0    0    0    0 -0.00000000000E+00 -0.00000000000E+00 -0.45593999997E+02  0.45594000000E+02  0.51100000000E-03 0. -1.
    9900012    2    1    2    0    0 -0.24386713133E+02 -0.19337237677E+02 -0.69338612676E+01  0.59301969038E+02  0.50000045613E+02 0.  0.
        -12    1    1    2    0    0  0.24386713133E+02  0.19337237677E+02  0.69338612676E+01  0.31886030962E+02  0.00000000000E+00 0.  1.
         11    1    3    3    0    0  0.36983220156E+01 -0.31340279204E+01 -0.11081809586E+02  0.12095710839E+02  0.51100000000E-03 0. -1.
        -11    1    3    3    0    0 -0.33480243861E+01 -0.35941568752E+01  0.16207252118E+02  0.16935237005E+02  0.51100000000E-03 0.  1.
         12    1    3    3    0    0 -0.24737010763E+02 -0.12609052882E+02 -0.12059303799E+02  0.30271021194E+02  0.00000000000E+00 0. -1.
</event>
<event>
 7    1  0.6198176E-013  0.5930190E+02  0.7816164E-02  0.1266605E+00
        -11   -1    0    0    0    0  0.00000000000E+00  0.00000000000E+00  0.45593999997E+02  0.45594000000E+02  0.51100000000E-03 0.  1.
         11   -1    0    0    0    0 -0.00000000000E+00 -0.00000000000E+00 -0.45593999997E+02  0.45594000000E+02  0.51100000000E-03 0. -1.
    9900012    2    1    2    0    0 -0.21787603084E+02 -0.11649081909E+02 -0.20157449718E+02  0.59301897438E+02  0.49999915032E+02 0.  0.
        -12    1    1    2    0    0  0.21787603084E+02  0.11649081909E+02  0.20157449718E+02  0.31886102562E+02  0.00000000000E+00 0.  1.
         11    1    3    3    0    0  0.75040400403E+01  0.22050811167E+01 -0.68461216191E+01  0.10394343709E+02  0.51100000000E-03 0. -1.
        -11    1    3    3    0    0  0.99284368651E-01 -0.10053461509E+02  0.76285579644E+01  0.12620492961E+02  0.51100000000E-03 0.  1.
         12    1    3    3    0    0 -0.29390927493E+02 -0.38007015167E+01 -0.20939886063E+02  0.36287060768E+02  0.00000000000E+00 0. -1.
</event>
<event>
 7    1  0.6198176E-013  0.5930195E+02  0.7816164E-02  0.1266605E+00
        -11   -1    0    0    0    0  0.00000000000E+00  0.00000000000E+00  0.45593999997E+02  0.45594000000E+02  0.51100000000E-03 0.  1.
         11   -1    0    0    0    0 -0.00000000000E+00 -0.00000000000E+00 -0.45593999997E+02  0.45594000000E+02  0.51100000000E-03 0. -1.
    9900012    2    1    2    0    0 -0.72178288232E+01 -0.30731319732E+02 -0.44954568215E+01  0.59301949799E+02  0.50000010526E+02 0.  0.
        -12    1    1    2    0    0  0.72178288232E+01  0.30731319732E+02  0.44954568215E+01  0.31886050201E+02  0.00000000000E+00 0.  1.
         11    1    3    3    0    0  0.61546916816E+01 -0.30022816477E+00  0.83365827748E+01  0.10366724616E+02  0.51100000000E-03 0.  1.
        -11    1    3    3    0    0 -0.35580676635E+01 -0.32663475481E+02 -0.18165888349E+02  0.37544133706E+02  0.51100000000E-03 0. -1.
         12    1    3    3    0    0 -0.98144528413E+01  0.22323839140E+01  0.53338487525E+01  0.11391091477E+02  0.00000000000E+00 0. -1.
</event>
<event>
 7    1  0.6198176E-013  0.5930194E+02  0.7816164E-02  0.1266605E+00
        -11   -1    0    0    0    0  0.00000000000E+00  0.00000000000E+00  0.45593999997E+02  0.45594000000E+02  0.51100000000E-03 0.  1.
         11   -1    0    0    0    0 -0.00000000000E+00 -0.00000000000E+00 -0.45593999997E+02  0.45594000000E+02  0.51100000000E-03 0. -1.
    9900012    2    1    2    0    0 -0.16876055735E+02  0.27025340822E+02 -0.12452994335E+01  0.59301936047E+02  0.49999985445E+02 0.  0.
        -12    1    1    2    0    0  0.16876055735E+02 -0.27025340822E+02  0.12452994335E+01  0.31886063953E+02  0.00000000000E+00 0.  1.
         11    1    3    3    0    0  0.10218426724E+01  0.11200339846E+02 -0.21989767462E+02  0.24699021204E+02  0.51100000000E-03 0. -1.
        -11    1    3    3    0    0  0.10959653231E+00  0.75093415253E+01  0.33582993532E+01  0.82268096094E+01  0.51100000000E-03 0.  1.
        -12    1    3    3    0    0 -0.18007494940E+02  0.83156594509E+01  0.17386168675E+02  0.26376105234E+02  0.00000000000E+00 0.  1.
</event>
<event>
 7    1  0.6198176E-013  0.5930196E+02  0.7816164E-02  0.1266605E+00
        -11   -1    0    0    0    0  0.00000000000E+00  0.00000000000E+00  0.45593999997E+02  0.45594000000E+02  0.51100000000E-03 0. -1.
         11   -1    0    0    0    0 -0.00000000000E+00 -0.00000000000E+00 -0.45593999997E+02  0.45594000000E+02  0.51100000000E-03 0.  1.
    9900012    2    1    2    0    0  0.44802379243E+01  0.21056768067E+02  0.23521468518E+02  0.59301960821E+02  0.50000030627E+02 0.  0.
        -12    1    1    2    0    0 -0.44802379243E+01 -0.21056768067E+02 -0.23521468518E+02  0.31886039179E+02  0.00000000000E+00 0.  1.
         11    1    3    3    0    0  0.13887234061E+02  0.79234589931E+01  0.23083204596E+02  0.28079722345E+02  0.51100000000E-03 0. -1.
        -11    1    3    3    0    0  0.69346119899E+01  0.21690087320E+01 -0.70904359464E+01  0.10152227563E+02  0.51100000000E-03 0.  1.
        -12    1    3    3    0    0 -0.16341608127E+02  0.10964300342E+02  0.75286998682E+01  0.21070010912E+02  0.00000000000E+00 0.  1.
</event>
<event>
 7    1  0.6198176E-013  0.5930194E+02  0.7816164E-02  0.1266605E+00
        -11   -1    0    0    0    0  0.00000000000E+00  0.00000000000E+00  0.45593999997E+02  0.45594000000E+02  0.51100000000E-03 0.  1.
         11   -1    0    0    0    0 -0.00000000000E+00 -0.00000000000E+00 -0.45593999997E+02  0.45594000000E+02  0.51100000000E-03 0. -1.
    9900012    2    1    2    0    0 -0.22477094931E+02 -0.21456707303E+02 -0.71491663344E+01  0.59301942481E+02  0.49999997180E+02 0.  0.
        -12    1    1    2    0    0  0.22477094931E+02  0.21456707303E+02  0.71491663344E+01  0.31886057519E+02  0.00000000000E+00 0.  1.
         11    1    3    3    0    0  0.67631465974E+01 -0.17021747989E+02 -0.99346772169E+01  0.20836935192E+02  0.51100000000E-03 0. -1.
        -11    1    3    3    0    0 -0.38112154094E+01  0.44789929110E-01 -0.92297081620E+01  0.99857339266E+01  0.51100000000E-03 0.  1.
        -12    1    3    3    0    0 -0.25429026119E+02 -0.44797492425E+01  0.12015219045E+02  0.28479273363E+02  0.00000000000E+00 0.  1.
</event>
<event>
 7    1  0.6198176E-013  0.5930189E+02  0.7816164E-02  0.1266605E+00
        -11   -1    0    0    0    0  0.00000000000E+00  0.00000000000E+00  0.45593999997E+02  0.45594000000E+02  0.51100000000E-03 0.  1.
         11   -1    0    0    0    0 -0.00000000000E+00 -0.00000000000E+00 -0.45593999997E+02  0.45594000000E+02  0.51100000000E-03 0. -1.
    9900012    2    1    2    0    0 -0.12133398467E+01  0.31112793814E+02 -0.68735720821E+01  0.59301888201E+02  0.49999898186E+02 0.  0.
        -12    1    1    2    0    0  0.12133398467E+01 -0.31112793814E+02  0.68735720821E+01  0.31886111799E+02  0.00000000000E+00 0.  1.
         11    1    3    3    0    0 -0.17859723363E+02  0.25580445056E+02  0.39823283715E+01  0.31451356527E+02  0.51100000000E-03 0. -1.
        -11    1    3    3    0    0 -0.10669395568E+00 -0.25749376061E+01  0.34993383261E+01  0.43459240970E+01  0.51100000000E-03 0.  1.
         12    1    3    3    0    0  0.16753077472E+02  0.81072863640E+01 -0.14355238780E+02  0.23504607578E+02  0.00000000000E+00 0. -1.
</event>
<event>
 7    1  0.6198176E-013  0.5930196E+02  0.7816164E-02  0.1266605E+00
        -11   -1    0    0    0    0  0.00000000000E+00  0.00000000000E+00  0.45593999997E+02  0.45594000000E+02  0.51100000000E-03 0. -1.
         11   -1    0    0    0    0 -0.00000000000E+00 -0.00000000000E+00 -0.45593999997E+02  0.45594000000E+02  0.51100000000E-03 0.  1.
    9900012    2    1    2    0    0  0.78343002565E+01 -0.13296975075E+02  0.27902215152E+02  0.59301962036E+02  0.50000032842E+02 0.  0.
        -12    1    1    2    0    0 -0.78343002565E+01  0.13296975075E+02 -0.27902215152E+02  0.31886037964E+02  0.00000000000E+00 0.  1.
         11    1    3    3    0    0  0.47340388779E+00  0.49760259683E+01  0.57003007419E+01  0.75814493658E+01  0.51100000000E-03 0. -1.
        -11    1    3    3    0    0  0.71186251052E+01  0.10729185045E+02 -0.30865714800E+01  0.13240738608E+02  0.51100000000E-03 0.  1.
         12    1    3    3    0    0  0.24227126355E+00 -0.29002186088E+02  0.25288485890E+02  0.38479774062E+02  0.00000000000E+00 0. -1.
</event>
<event>
 7    1  0.6198176E-013  0.5930195E+02  0.7816164E-02  0.1266605E+00
        -11   -1    0    0    0    0  0.00000000000E+00  0.00000000000E+00  0.45593999997E+02  0.45594000000E+02  0.51100000000E-03 0.  1.
         11   -1    0    0    0    0 -0.00000000000E+00 -0.00000000000E+00 -0.45593999997E+02  0.45594000000E+02  0.51100000000E-03 0. -1.
    9900012    2    1    2    0    0 -0.19530029819E-01  0.31464461329E+02 -0.51679319834E+01  0.59301949301E+02  0.50000009618E+02 0.  0.
        -12    1    1    2    0    0  0.19530029819E-01 -0.31464461329E+02  0.51679319834E+01  0.31886050699E+02  0.00000000000E+00 0.  1.
         11    1    3    3    0    0  0.87806082548E+01  0.25908240595E+02 -0.13579429621E+02  0.30540741987E+02  0.51100000000E-03 0. -1.
        -11    1    3    3    0    0 -0.13806032332E+01  0.14093323486E+02  0.10005278094E+02  0.17338783757E+02  0.51100000000E-03 0.  1.
        -12    1    3    3    0    0 -0.74195350514E+01 -0.85371027516E+01 -0.15937804571E+01  0.11422423557E+02  0.00000000000E+00 0.  1.
</event>
<event>
 7    1  0.6198176E-013  0.5930195E+02  0.7816164E-02  0.1266605E+00
        -11   -1    0    0    0    0  0.00000000000E+00  0.00000000000E+00  0.45593999997E+02  0.45594000000E+02  0.51100000000E-03 0.  1.
         11   -1    0    0    0    0 -0.00000000000E+00 -0.00000000000E+00 -0.45593999997E+02  0.45594000000E+02  0.51100000000E-03 0. -1.
    9900012    2    1    2    0    0  0.15124846154E+02 -0.25513325362E+02 -0.11705962605E+02  0.59301948148E+02  0.50000007514E+02 0.  0.
        -12    1    1    2    0    0 -0.15124846154E+02  0.25513325362E+02  0.11705962605E+02  0.31886051852E+02  0.00000000000E+00 0.  1.
         11    1    3    3    0    0  0.25450625461E+01  0.29371672527E+01  0.22987817652E+01  0.45153840035E+01  0.51100000000E-03 0. -1.
        -11    1    3    3    0    0 -0.74232392020E+01 -0.18624037016E+01  0.10834562631E+02  0.13265020749E+02  0.51100000000E-03 0.  1.
         12    1    3    3    0    0  0.20003022810E+02 -0.26588088913E+02 -0.24839307001E+02  0.41521543395E+02  0.00000000000E+00 0. -1.
</event>
<event>
 7    1  0.6416918E-013  0.5930200E+02  0.7816164E-02  0.1266605E+00
        -11   -1    0    0    0    0  0.00000000000E+00  0.00000000000E+00  0.45593999997E+02  0.45594000000E+02  0.51100000000E-03 0. -1.
         11   -1    0    0    0    0 -0.00000000000E+00 -0.00000000000E+00 -0.45593999997E+02  0.45594000000E+02  0.51100000000E-03 0.  1.
    9900012    2    1    2    0    0 -0.12245898054E+02  0.18376982590E+02  0.23000898893E+02  0.59302002161E+02  0.50000106022E+02 0.  0.
        -12    1    1    2    0    0  0.12245898054E+02 -0.18376982590E+02 -0.23000898893E+02  0.31885997839E+02  0.00000000000E+00 0.  1.
         11    1    3    3    0    0  0.47783980766E+01  0.72250391093E+01  0.20755203155E+02  0.22490280936E+02  0.51100000000E-03 0. -1.
        -11    1    3    3    0    0  0.23110277013E+01  0.13776468744E+02  0.84628824400E+01  0.16332553981E+02  0.51100000000E-03 0.  1.
        -12    1    3    3    0    0 -0.19335323832E+02 -0.26245252630E+01 -0.62171867017E+01  0.20479167245E+02  0.00000000000E+00 0.  1.
</event>
<event>
 7    1  0.6198176E-013  0.5930201E+02  0.7816164E-02  0.1266605E+00
        -11   -1    0    0    0    0  0.00000000000E+00  0.00000000000E+00  0.45593999997E+02  0.45594000000E+02  0.51100000000E-03 0. -1.
         11   -1    0    0    0    0 -0.00000000000E+00 -0.00000000000E+00 -0.45593999997E+02  0.45594000000E+02  0.51100000000E-03 0.  1.
    9900012    2    1    2    0    0 -0.30607132648E+02  0.69455001647E+01 -0.56284728036E+01  0.59302011736E+02  0.50000123483E+02 0.  0.
        -12    1    1    2    0    0  0.30607132648E+02 -0.69455001647E+01  0.56284728036E+01  0.31885988264E+02  0.00000000000E+00 0.  1.
         11    1    3    3    0    0 -0.17326813418E+02  0.42270423868E+01  0.85314824135E+01  0.19770496782E+02  0.51100000000E-03 0. -1.
        -11    1    3    3    0    0 -0.20942509118E+02  0.22336990866E+01  0.24790099041E+01  0.21206687392E+02  0.51100000000E-03 0.  1.
        -12    1    3    3    0    0  0.76621898881E+01  0.48475869128E+00 -0.16638965121E+02  0.18324827562E+02  0.00000000000E+00 0.  1.
</event>
<event>
 7    1  0.6198176E-013  0.5930197E+02  0.7816164E-02  0.1266605E+00
        -11   -1    0    0    0    0  0.00000000000E+00  0.00000000000E+00  0.45593999997E+02  0.45594000000E+02  0.51100000000E-03 0.  1.
         11   -1    0    0    0    0 -0.00000000000E+00 -0.00000000000E+00 -0.45593999997E+02  0.45594000000E+02  0.51100000000E-03 0. -1.
    9900012    2    1    2    0    0  0.57341113360E+01  0.37114112697E+01 -0.31145858208E+02  0.59301967165E+02  0.50000042197E+02 0.  0.
        -12    1    1    2    0    0 -0.57341113360E+01 -0.37114112697E+01  0.31145858208E+02  0.31886032835E+02  0.00000000000E+00 0.  1.
         11    1    3    3    0    0  0.11929478602E+02 -0.12161045187E+02 -0.99172443267E+01  0.19711803952E+02  0.51100000000E-03 0. -1.
        -11    1    3    3    0    0  0.33453918922E+01  0.13379261546E+02  0.23889801267E+01  0.13996553603E+02  0.51100000000E-03 0.  1.
         12    1    3    3    0    0 -0.95407591582E+01  0.24931949102E+01 -0.23617594008E+02  0.25593609611E+02  0.00000000000E+00 0. -1.
</event>
<event>
 7    1  0.6198176E-013  0.5930196E+02  0.7816164E-02  0.1266605E+00
        -11   -1    0    0    0    0  0.00000000000E+00  0.00000000000E+00  0.45593999997E+02  0.45594000000E+02  0.51100000000E-03 0. -1.
         11   -1    0    0    0    0 -0.00000000000E+00 -0.00000000000E+00 -0.45593999997E+02  0.45594000000E+02  0.51100000000E-03 0.  1.
    9900012    2    1    2    0    0 -0.22096451267E+02  0.10167983041E+02  0.20617439301E+02  0.59301955387E+02  0.50000020717E+02 0.  0.
        -12    1    1    2    0    0  0.22096451267E+02 -0.10167983041E+02 -0.20617439301E+02  0.31886044613E+02  0.00000000000E+00 0.  1.
         11    1    3    3    0    0 -0.13017331465E+02  0.19611253075E+02 -0.15339967825E+01  0.23588245208E+02  0.51100000000E-03 0. -1.
        -11    1    3    3    0    0  0.40271975047E+01  0.22141260285E+01  0.16737035593E+02  0.17356527144E+02  0.51100000000E-03 0.  1.
        -12    1    3    3    0    0 -0.13106317307E+02 -0.11657396062E+02  0.54144004909E+01  0.18357183034E+02  0.00000000000E+00 0.  1.
</event>
<event>
 7    1  0.6198176E-013  0.5930198E+02  0.7816164E-02  0.1266605E+00
        -11   -1    0    0    0    0  0.00000000000E+00  0.00000000000E+00  0.45593999997E+02  0.45594000000E+02  0.51100000000E-03 0. -1.
         11   -1    0    0    0    0 -0.00000000000E+00 -0.00000000000E+00 -0.45593999997E+02  0.45594000000E+02  0.51100000000E-03 0.  1.
    9900012    2    1    2    0    0  0.28760148541E+02 -0.80995110292E+01  0.11134191950E+02  0.59301977147E+02  0.50000060402E+02 0.  0.
        -12    1    1    2    0    0 -0.28760148541E+02  0.80995110292E+01 -0.11134191950E+02  0.31886022853E+02  0.00000000000E+00 0.  1.
         11    1    3    3    0    0  0.25101792989E+00  0.63235814962E+01 -0.14084742593E+02  0.15441200313E+02  0.51100000000E-03 0.  1.
        -11    1    3    3    0    0  0.19226055484E+02 -0.22980811303E+01  0.82923769240E+01  0.21063852964E+02  0.51100000000E-03 0. -1.
        -12    1    3    3    0    0  0.92830751263E+01 -0.12125011395E+02  0.16926557619E+02  0.22796923871E+02  0.00000000000E+00 0.  1.
</event>
<event>
 7    1  0.6198176E-013  0.5930194E+02  0.7816164E-02  0.1266605E+00
        -11   -1    0    0    0    0  0.00000000000E+00  0.00000000000E+00  0.45593999997E+02  0.45594000000E+02  0.51100000000E-03 0. -1.
         11   -1    0    0    0    0 -0.00000000000E+00 -0.00000000000E+00 -0.45593999997E+02  0.45594000000E+02  0.51100000000E-03 0.  1.
    9900012    2    1    2    0    0  0.31322882487E+02  0.16321731738E+01  0.57388083969E+01  0.59301939121E+02  0.49999991051E+02 0.  0.
        -12    1    1    2    0    0 -0.31322882487E+02 -0.16321731738E+01 -0.57388083969E+01  0.31886060879E+02  0.00000000000E+00 0.  1.
         11    1    3    3    0    0 -0.84654662310E+00  0.79683807189E+00 -0.30538540467E+01  0.32676622986E+01  0.51100000000E-03 0.  1.
        -11    1    3    3    0    0 -0.95685008473E+01  0.31146473780E+01  0.10041100120E+02  0.14215517178E+02  0.51100000000E-03 0. -1.
        -12    1    3    3    0    0  0.41737929957E+02 -0.22793122761E+01 -0.12484376760E+01  0.41818759645E+02  0.00000000000E+00 0.  1.
</event>
<event>
 7    1  0.6198176E-013  0.5930201E+02  0.7816164E-02  0.1266605E+00
        -11   -1    0    0    0    0  0.00000000000E+00  0.00000000000E+00  0.45593999997E+02  0.45594000000E+02  0.51100000000E-03 0.  1.
         11   -1    0    0    0    0 -0.00000000000E+00 -0.00000000000E+00 -0.45593999997E+02  0.45594000000E+02  0.51100000000E-03 0. -1.
    9900012    2    1    2    0    0  0.12844510535E+00 -0.21838659337E+02 -0.23233011411E+02  0.59302009989E+02  0.50000120297E+02 0.  0.
        -12    1    1    2    0    0 -0.12844510535E+00  0.21838659337E+02  0.23233011411E+02  0.31885990011E+02  0.00000000000E+00 0.  1.
         11    1    3    3    0    0 -0.62022229555E+01  0.30032090960E+01  0.53248455532E+01  0.87086632092E+01  0.51100000000E-03 0. -1.
        -11    1    3    3    0    0  0.10652784822E+02  0.47351529325E+01 -0.57761673010E+01  0.13010288494E+02  0.51100000000E-03 0.  1.
         12    1    3    3    0    0 -0.43221167610E+01 -0.29577021366E+02 -0.22781689663E+02  0.37583058285E+02  0.00000000000E+00 0. -1.
</event>
<event>
 7    1  0.6198176E-013  0.5930193E+02  0.7816164E-02  0.1266605E+00
        -11   -1    0    0    0    0  0.00000000000E+00  0.00000000000E+00  0.45593999997E+02  0.45594000000E+02  0.51100000000E-03 0.  1.
         11   -1    0    0    0    0 -0.00000000000E+00 -0.00000000000E+00 -0.45593999997E+02  0.45594000000E+02  0.51100000000E-03 0. -1.
    9900012    2    1    2    0    0  0.28340489405E+02  0.13535622835E+02 -0.55068298744E+01  0.59301927798E+02  0.49999970401E+02 0.  0.
        -12    1    1    2    0    0 -0.28340489405E+02 -0.13535622835E+02  0.55068298744E+01  0.31886072202E+02  0.00000000000E+00 0.  1.
         11    1    3    3    0    0  0.26625841713E+02  0.46949973534E+01 -0.14069646420E+02  0.30478408714E+02  0.51100000000E-03 0. -1.
        -11    1    3    3    0    0  0.52198311069E+00 -0.64172790479E+01 -0.51728826848E+01  0.82590951247E+01  0.51100000000E-03 0.  1.
        -12    1    3    3    0    0  0.11926645809E+01  0.15257904529E+02  0.13735699231E+02  0.20564423959E+02  0.00000000000E+00 0.  1.
</event>
<event>
 7    1  0.6198176E-013  0.5930194E+02  0.7816164E-02  0.1266605E+00
        -11   -1    0    0    0    0  0.00000000000E+00  0.00000000000E+00  0.45593999997E+02  0.45594000000E+02  0.51100000000E-03 0.  1.
         11   -1    0    0    0    0 -0.00000000000E+00 -0.00000000000E+00 -0.45593999997E+02  0.45594000000E+02  0.51100000000E-03 0. -1.
    9900012    2    1    2    0    0 -0.24985350136E+02 -0.11796017599E+02 -0.15915629781E+02  0.59301936838E+02  0.49999986889E+02 0.  0.
        -12    1    1    2    0    0  0.24985350136E+02  0.11796017599E+02  0.15915629781E+02  0.31886063162E+02  0.00000000000E+00 0.  1.
         11    1    3    3    0    0 -0.33128240985E+02 -0.34881891145E+01 -0.17409496427E+02  0.37586412174E+02  0.51100000000E-03 0. -1.
        -11    1    3    3    0    0  0.57744955200E+00 -0.10798463190E+02 -0.45348937985E+01  0.11726274655E+02  0.51100000000E-03 0.  1.
        -12    1    3    3    0    0  0.75654412968E+01  0.24906347061E+01  0.60287604440E+01  0.99892500092E+01  0.00000000000E+00 0.  1.
</event>
<event>
 7    1  0.6198176E-013  0.5930198E+02  0.7816164E-02  0.1266605E+00
        -11   -1    0    0    0    0  0.00000000000E+00  0.00000000000E+00  0.45593999997E+02  0.45594000000E+02  0.51100000000E-03 0. -1.
         11   -1    0    0    0    0 -0.00000000000E+00 -0.00000000000E+00 -0.45593999997E+02  0.45594000000E+02  0.51100000000E-03 0.  1.
    9900012    2    1    2    0    0 -0.18149322344E+02  0.22216958027E+02 -0.13918585886E+02  0.59301981770E+02  0.50000068833E+02 0.  0.
        -12    1    1    2    0    0  0.18149322344E+02 -0.22216958027E+02  0.13918585886E+02  0.31886018230E+02  0.00000000000E+00 0.  1.
         11    1    3    3    0    0 -0.20794869970E+00  0.19899900312E+01  0.37371285802E+01  0.42390368331E+01  0.51100000000E-03 0. -1.
        -11    1    3    3    0    0 -0.17948075817E+01 -0.73731383247E+01  0.10160242769E+02  0.12681286859E+02  0.51100000000E-03 0.  1.
        -12    1    3    3    0    0 -0.16146566062E+02  0.27600106320E+02 -0.27815957236E+02  0.42381658078E+02  0.00000000000E+00 0.  1.
</event>
<event>
 7    1  0.6198176E-013  0.5930193E+02  0.7816164E-02  0.1266605E+00
        -11   -1    0    0    0    0  0.00000000000E+00  0.00000000000E+00  0.45593999997E+02  0.45594000000E+02  0.51100000000E-03 0. -1.
         11   -1    0    0    0    0 -0.00000000000E+00 -0.00000000000E+00 -0.45593999997E+02  0.45594000000E+02  0.51100000000E-03 0.  1.
    9900012    2    1    2    0    0  0.19750013701E+02 -0.14372327590E+02  0.20496210488E+02  0.59301929594E+02  0.49999973677E+02 0.  0.
        -12    1    1    2    0    0 -0.19750013701E+02  0.14372327590E+02 -0.20496210488E+02  0.31886070406E+02  0.00000000000E+00 0.  1.
         11    1    3    3    0    0  0.24996500136E+02 -0.24813256993E+01  0.76631380729E+01  0.26262248222E+02  0.51100000000E-03 0. -1.
        -11    1    3    3    0    0  0.74070409802E+01 -0.56514598574E+01  0.16060221485E+02  0.18567012927E+02  0.51100000000E-03 0.  1.
        -12    1    3    3    0    0 -0.12653527415E+02 -0.62395420335E+01 -0.32271490704E+01  0.14472668446E+02  0.00000000000E+00 0.  1.
</event>
<event>
 7    1  0.6198176E-013  0.5930194E+02  0.7816164E-02  0.1266605E+00
        -11   -1    0    0    0    0  0.00000000000E+00  0.00000000000E+00  0.45593999997E+02  0.45594000000E+02  0.51100000000E-03 0. -1.
         11   -1    0    0    0    0 -0.00000000000E+00 -0.00000000000E+00 -0.45593999997E+02  0.45594000000E+02  0.51100000000E-03 0.  1.
    9900012    2    1    2    0    0  0.61031218426E+01  0.29626941572E+02  0.10085474244E+02  0.59301944210E+02  0.50000000333E+02 0.  0.
        -12    1    1    2    0    0 -0.61031218426E+01 -0.29626941572E+02 -0.10085474244E+02  0.31886055790E+02  0.00000000000E+00 0.  1.
         11    1    3    3    0    0  0.60621081392E+01  0.19344044915E+02  0.12928147270E+02  0.24043257285E+02  0.51100000000E-03 0. -1.
        -11    1    3    3    0    0  0.13184289586E+02  0.16066624715E+02 -0.15761423014E+01  0.20843371762E+02  0.51100000000E-03 0.  1.
        -12    1    3    3    0    0 -0.13143275882E+02 -0.57837280584E+01 -0.12665307245E+01  0.14415315163E+02  0.00000000000E+00 0.  1.
</event>
<event>
 7    1  0.6198176E-013  0.5930189E+02  0.7816164E-02  0.1266605E+00
        -11   -1    0    0    0    0  0.00000000000E+00  0.00000000000E+00  0.45593999997E+02  0.45594000000E+02  0.51100000000E-03 0.  1.
         11   -1    0    0    0    0 -0.00000000000E+00 -0.00000000000E+00 -0.45593999997E+02  0.45594000000E+02  0.51100000000E-03 0. -1.
    9900012    2    1    2    0    0 -0.94711638409E+01 -0.25122782154E+02 -0.17200780057E+02  0.59301890763E+02  0.49999902858E+02 0.  0.
        -12    1    1    2    0    0  0.94711638409E+01  0.25122782154E+02  0.17200780057E+02  0.31886109237E+02  0.00000000000E+00 0.  1.
         11    1    3    3    0    0  0.30345579913E+01  0.19681274073E+01  0.94432414642E+01  0.10112214263E+02  0.51100000000E-03 0. -1.
        -11    1    3    3    0    0  0.87670515983E+01 -0.44511922426E+01 -0.34482637365E+01  0.10419444763E+02  0.51100000000E-03 0.  1.
         12    1    3    3    0    0 -0.21272773430E+02 -0.22639717319E+02 -0.23195757785E+02  0.38770231737E+02  0.00000000000E+00 0. -1.
</event>
<event>
 7    1  0.6198176E-013  0.5930199E+02  0.7816164E-02  0.1266605E+00
        -11   -1    0    0    0    0  0.00000000000E+00  0.00000000000E+00  0.45593999997E+02  0.45594000000E+02  0.51100000000E-03 0.  1.
         11   -1    0    0    0    0 -0.00000000000E+00 -0.00000000000E+00 -0.45593999997E+02  0.45594000000E+02  0.51100000000E-03 0. -1.
    9900012    2    1    2    0    0  0.13028376151E+02  0.51716467372E+01 -0.28639711651E+02  0.59301990551E+02  0.50000084848E+02 0.  0.
        -12    1    1    2    0    0 -0.13028376151E+02 -0.51716467372E+01  0.28639711651E+02  0.31886009449E+02  0.00000000000E+00 0.  1.
         11    1    3    3    0    0  0.10822107759E+02  0.28854824452E-01 -0.13386617844E+02  0.17213959060E+02  0.51100000000E-03 0. -1.
        -11    1    3    3    0    0  0.17719246830E+02  0.20425265294E+01  0.28322563721E+01  0.18060047045E+02  0.51100000000E-03 0.  1.
         12    1    3    3    0    0 -0.15512978438E+02  0.31002653834E+01 -0.18085350179E+02  0.24027984447E+02  0.00000000000E+00 0. -1.
</event>
<event>
 7    1  0.6198176E-013  0.5930196E+02  0.7816164E-02  0.1266605E+00
        -11   -1    0    0    0    0  0.00000000000E+00  0.00000000000E+00  0.45593999997E+02  0.45594000000E+02  0.51100000000E-03 0.  1.
         11   -1    0    0    0    0 -0.00000000000E+00 -0.00000000000E+00 -0.45593999997E+02  0.45594000000E+02  0.51100000000E-03 0. -1.
    9900012    2    1    2    0    0 -0.27122065029E+02 -0.16395858402E+02 -0.35055877075E+01  0.59301957139E+02  0.50000023911E+02 0.  0.
        -12    1    1    2    0    0  0.27122065029E+02  0.16395858402E+02  0.35055877075E+01  0.31886042861E+02  0.00000000000E+00 0.  1.
         11    1    3    3    0    0 -0.72499338288E+01  0.16490609961E+01 -0.19143913195E+02  0.20537048361E+02  0.51100000000E-03 0. -1.
        -11    1    3    3    0    0 -0.96346997605E+01  0.37274112566E+01  0.50673398995E+00  0.10343007964E+02  0.51100000000E-03 0.  1.
         12    1    3    3    0    0 -0.10237431440E+02 -0.21772330654E+02  0.15131591498E+02  0.28421900814E+02  0.00000000000E+00 0. -1.
</event>
<event>
 7    1  0.6198176E-013  0.5930195E+02  0.7816164E-02  0.1266605E+00
        -11   -1    0    0    0    0  0.00000000000E+00  0.00000000000E+00  0.45593999997E+02  0.45594000000E+02  0.51100000000E-03 0. -1.
         11   -1    0    0    0    0 -0.00000000000E+00 -0.00000000000E+00 -0.45593999997E+02  0.45594000000E+02  0.51100000000E-03 0.  1.
    9900012    2    1    2    0    0  0.18249554962E+02 -0.16598867605E+02  0.20202765095E+02  0.59301946943E+02  0.50000005316E+02 0.  0.
        -12    1    1    2    0    0 -0.18249554962E+02  0.16598867605E+02 -0.20202765095E+02  0.31886053057E+02  0.00000000000E+00 0.  1.
         11    1    3    3    0    0  0.14388772684E+02 -0.20583771916E+01 -0.90056552257E+01  0.17098991851E+02  0.51100000000E-03 0. -1.
        -11    1    3    3    0    0 -0.10937971253E+02 -0.30421483603E+01  0.79306526697E+01  0.13848795392E+02  0.51100000000E-03 0.  1.
         12    1    3    3    0    0  0.14798753531E+02 -0.11498342054E+02  0.21277767651E+02  0.28354159700E+02  0.00000000000E+00 0. -1.
</event>
<event>
 7    1  0.6198176E-013  0.5930193E+02  0.7816164E-02  0.1266605E+00
        -11   -1    0    0    0    0  0.00000000000E+00  0.00000000000E+00  0.45593999997E+02  0.45594000000E+02  0.51100000000E-03 0. -1.
         11   -1    0    0    0    0 -0.00000000000E+00 -0.00000000000E+00 -0.45593999997E+02  0.45594000000E+02  0.51100000000E-03 0.  1.
    9900012    2    1    2    0    0  0.22083720806E+02 -0.16944087665E+02 -0.15554046948E+02  0.59301933954E+02  0.49999981628E+02 0.  0.
        -12    1    1    2    0    0 -0.22083720806E+02  0.16944087665E+02  0.15554046948E+02  0.31886066046E+02  0.00000000000E+00 0.  1.
         11    1    3    3    0    0 -0.68450874553E+01  0.39325369100E+01  0.72317891165E+01  0.10706019004E+02  0.51100000000E-03 0. -1.
        -11    1    3    3    0    0  0.15045801942E+02 -0.12213976137E+01 -0.18951362656E+02  0.24228539267E+02  0.51100000000E-03 0.  1.
        -12    1    3    3    0    0  0.13883006319E+02 -0.19655226962E+02 -0.38344734080E+01  0.24367375683E+02  0.00000000000E+00 0.  1.
</event>
<event>
 7    1  0.6198176E-013  0.5930193E+02  0.7816164E-02  0.1266605E+00
        -11   -1    0    0    0    0  0.00000000000E+00  0.00000000000E+00  0.45593999997E+02  0.45594000000E+02  0.51100000000E-03 0. -1.
         11   -1    0    0    0    0 -0.00000000000E+00 -0.00000000000E+00 -0.45593999997E+02  0.45594000000E+02  0.51100000000E-03 0.  1.
    9900012    2    1    2    0    0  0.73112340650E+01 -0.30600497426E+02 -0.51842824482E+01  0.59301931400E+02  0.49999976970E+02 0.  0.
        -12    1    1    2    0    0 -0.73112340650E+01  0.30600497426E+02  0.51842824482E+01  0.31886068600E+02  0.00000000000E+00 0.  1.
         11    1    3    3    0    0  0.17312006670E+02 -0.25655766563E+02 -0.12905186681E+02  0.33533084803E+02  0.51100000000E-03 0.  1.
        -11    1    3    3    0    0  0.56095688535E+01 -0.56550909994E+01  0.61505840925E+01  0.10063647543E+02  0.51100000000E-03 0. -1.
        -12    1    3    3    0    0 -0.15610341458E+02  0.71036013689E+00  0.15703201407E+01  0.15705199053E+02  0.00000000000E+00 0.  1.
</event>
<event>
 7    1  0.6198176E-013  0.5930197E+02  0.7816164E-02  0.1266605E+00
        -11   -1    0    0    0    0  0.00000000000E+00  0.00000000000E+00  0.45593999997E+02  0.45594000000E+02  0.51100000000E-03 0.  1.
         11   -1    0    0    0    0 -0.00000000000E+00 -0.00000000000E+00 -0.45593999997E+02  0.45594000000E+02  0.51100000000E-03 0. -1.
    9900012    2    1    2    0    0 -0.14281945658E+02  0.15535161725E+02 -0.23904048145E+02  0.59301972663E+02  0.50000052224E+02 0.  0.
        -12    1    1    2    0    0  0.14281945658E+02 -0.15535161725E+02  0.23904048145E+02  0.31886027337E+02  0.00000000000E+00 0.  1.
         11    1    3    3    0    0 -0.83124304766E+01 -0.79170812466E+01 -0.16166298590E+02  0.19827402408E+02  0.51100000000E-03 0. -1.
        -11    1    3    3    0    0  0.52258965746E+01  0.16373983073E+02 -0.16312197304E+02  0.23696098789E+02  0.51100000000E-03 0.  1.
         12    1    3    3    0    0 -0.11195411757E+02  0.70782598984E+01  0.85744477494E+01  0.15778471466E+02  0.00000000000E+00 0. -1.
</event>
<event>
 7    1  0.6198176E-013  0.5930192E+02  0.7816164E-02  0.1266605E+00
        -11   -1    0    0    0    0  0.00000000000E+00  0.00000000000E+00  0.45593999997E+02  0.45594000000E+02  0.51100000000E-03 0.  1.
         11   -1    0    0    0    0 -0.00000000000E+00 -0.00000000000E+00 -0.45593999997E+02  0.45594000000E+02  0.51100000000E-03 0. -1.
    9900012    2    1    2    0    0  0.13583173944E+02  0.24414536597E+02 -0.15367163069E+02  0.59301922906E+02  0.49999961479E+02 0.  0.
        -12    1    1    2    0    0 -0.13583173944E+02 -0.24414536597E+02  0.15367163069E+02  0.31886077094E+02  0.00000000000E+00 0.  1.
         11    1    3    3    0    0  0.23736685356E+01 -0.22357080814E+01 -0.11357088775E+01  0.34529013681E+01  0.51100000000E-03 0. -1.
        -11    1    3    3    0    0  0.15708241120E+02  0.10659474639E+02 -0.28302176944E+02  0.34079120568E+02  0.51100000000E-03 0.  1.
        -12    1    3    3    0    0 -0.44987357120E+01  0.15990770039E+02  0.14070722752E+02  0.21769900970E+02  0.00000000000E+00 0.  1.
</event>
<event>
 7    1  0.6198176E-013  0.5930192E+02  0.7816164E-02  0.1266605E+00
        -11   -1    0    0    0    0  0.00000000000E+00  0.00000000000E+00  0.45593999997E+02  0.45594000000E+02  0.51100000000E-03 0. -1.
         11   -1    0    0    0    0 -0.00000000000E+00 -0.00000000000E+00 -0.45593999997E+02  0.45594000000E+02  0.51100000000E-03 0.  1.
    9900012    2    1    2    0    0 -0.42414393407E+01  0.22565374573E+02  0.22125463396E+02  0.59301920470E+02  0.49999957036E+02 0.  0.
        -12    1    1    2    0    0  0.42414393407E+01 -0.22565374573E+02 -0.22125463396E+02  0.31886079530E+02  0.00000000000E+00 0.  1.
         11    1    3    3    0    0 -0.62274588598E+01  0.93181967881E+01  0.79941924370E+01  0.13766522735E+02  0.51100000000E-03 0. -1.
        -11    1    3    3    0    0 -0.19540807792E+02  0.46307072594E+01  0.72127937629E+01  0.21338018019E+02  0.51100000000E-03 0.  1.
         12    1    3    3    0    0  0.21526827311E+02  0.86164705260E+01  0.69184771959E+01  0.24197379716E+02  0.00000000000E+00 0. -1.
</event>
<event>
 7    1  0.6198176E-013  0.5930195E+02  0.7816164E-02  0.1266605E+00
        -11   -1    0    0    0    0  0.00000000000E+00  0.00000000000E+00  0.45593999997E+02  0.45594000000E+02  0.51100000000E-03 0. -1.
         11   -1    0    0    0    0 -0.00000000000E+00 -0.00000000000E+00 -0.45593999997E+02  0.45594000000E+02  0.51100000000E-03 0.  1.
    9900012    2    1    2    0    0  0.47791788482E+01  0.26064808974E+02  0.17734301640E+02  0.59301948630E+02  0.50000008393E+02 0.  0.
        -12    1    1    2    0    0 -0.47791788482E+01 -0.26064808974E+02 -0.17734301640E+02  0.31886051370E+02  0.00000000000E+00 0.  1.
         11    1    3    3    0    0  0.34256834882E+01  0.10316356873E+02  0.16650153801E+01  0.10997036099E+02  0.51100000000E-03 0. -1.
        -11    1    3    3    0    0  0.28976031445E+01  0.62213827445E+01 -0.14610883525E+02  0.16142478895E+02  0.51100000000E-03 0.  1.
         12    1    3    3    0    0 -0.15441077845E+01  0.95270693571E+01  0.30680169784E+02  0.32162433636E+02  0.00000000000E+00 0. -1.
</event>
<event>
 7    1  0.6198176E-013  0.5930196E+02  0.7816164E-02  0.1266605E+00
        -11   -1    0    0    0    0  0.00000000000E+00  0.00000000000E+00  0.45593999997E+02  0.45594000000E+02  0.51100000000E-03 0. -1.
         11   -1    0    0    0    0 -0.00000000000E+00 -0.00000000000E+00 -0.45593999997E+02  0.45594000000E+02  0.51100000000E-03 0.  1.
    9900012    2    1    2    0    0  0.20766347620E+01 -0.15478101143E+02  0.27799920131E+02  0.59301959383E+02  0.50000028004E+02 0.  0.
        -12    1    1    2    0    0 -0.20766347620E+01  0.15478101143E+02 -0.27799920131E+02  0.31886040617E+02  0.00000000000E+00 0.  1.
         11    1    3    3    0    0  0.26210523942E+01  0.95272768399E+01  0.14255034919E+02  0.17344882255E+02  0.51100000000E-03 0. -1.
        -11    1    3    3    0    0 -0.14668892327E+02 -0.11918893231E+02  0.12526999649E+02  0.22675143626E+02  0.51100000000E-03 0.  1.
        -12    1    3    3    0    0  0.14124474695E+02 -0.13086484752E+02  0.10178855631E+01  0.19281933502E+02  0.00000000000E+00 0.  1.
</event>
<event>
 7    1  0.6198176E-013  0.5930190E+02  0.7816164E-02  0.1266605E+00
        -11   -1    0    0    0    0  0.00000000000E+00  0.00000000000E+00  0.45593999997E+02  0.45594000000E+02  0.51100000000E-03 0.  1.
         11   -1    0    0    0    0 -0.00000000000E+00 -0.00000000000E+00 -0.45593999997E+02  0.45594000000E+02  0.51100000000E-03 0. -1.
    9900012    2    1    2    0    0 -0.95731721288E+00 -0.10241348170E+02 -0.30181477665E+02  0.59301901734E+02  0.49999922866E+02 0.  0.
        -12    1    1    2    0    0  0.95731721288E+00  0.10241348170E+02  0.30181477665E+02  0.31886098266E+02  0.00000000000E+00 0.  1.
         11    1    3    3    0    0 -0.80986689313E+01 -0.76213935521E+01 -0.14660864273E+02  0.18401495038E+02  0.51100000000E-03 0. -1.
        -11    1    3    3    0    0 -0.14884526381E+00 -0.34374991235E+01  0.11966436864E+02  0.12451271686E+02  0.51100000000E-03 0.  1.
        -12    1    3    3    0    0  0.72901969822E+01  0.81754450523E+00 -0.27487050255E+02  0.28449135009E+02  0.00000000000E+00 0.  1.
</event>
<event>
 7    1  0.6198176E-013  0.5930193E+02  0.7816164E-02  0.1266605E+00
        -11   -1    0    0    0    0  0.00000000000E+00  0.00000000000E+00  0.45593999997E+02  0.45594000000E+02  0.51100000000E-03 0.  1.
         11   -1    0    0    0    0 -0.00000000000E+00 -0.00000000000E+00 -0.45593999997E+02  0.45594000000E+02  0.51100000000E-03 0. -1.
    9900012    2    1    2    0    0 -0.19402537844E+02  0.24422785555E+02 -0.66174341413E+01  0.59301931512E+02  0.49999977174E+02 0.  0.
        -12    1    1    2    0    0  0.19402537844E+02 -0.24422785555E+02  0.66174341413E+01  0.31886068488E+02  0.00000000000E+00 0.  1.
         11    1    3    3    0    0 -0.70012749646E+01  0.25817875287E+02 -0.14335823719E+02  0.30349569641E+02  0.51100000000E-03 0. -1.
        -11    1    3    3    0    0 -0.14665545130E+02  0.66136498900E+01 -0.19381880100E+01  0.16204170817E+02  0.51100000000E-03 0.  1.
         12    1    3    3    0    0  0.22642822511E+01 -0.80087396220E+01  0.96565775873E+01  0.12748191054E+02  0.00000000000E+00 0. -1.
</event>
<event>
 7    1  0.6198176E-013  0.5930192E+02  0.7816164E-02  0.1266605E+00
        -11   -1    0    0    0    0  0.00000000000E+00  0.00000000000E+00  0.45593999997E+02  0.45594000000E+02  0.51100000000E-03 0.  1.
         11   -1    0    0    0    0 -0.00000000000E+00 -0.00000000000E+00 -0.45593999997E+02  0.45594000000E+02  0.51100000000E-03 0. -1.
    9900012    2    1    2    0    0 -0.13707373845E+02 -0.22591225219E+02 -0.17845631348E+02  0.59301919764E+02  0.49999955748E+02 0.  0.
        -12    1    1    2    0    0  0.13707373845E+02  0.22591225219E+02  0.17845631348E+02  0.31886080236E+02  0.00000000000E+00 0.  1.
         11    1    3    3    0    0  0.96678468309E+01 -0.86115263630E+01 -0.92112968206E+01  0.15889419059E+02  0.51100000000E-03 0. -1.
        -11    1    3    3    0    0  0.38538051800E-02 -0.18648233692E+02 -0.26828683977E+01  0.18840234016E+02  0.51100000000E-03 0.  1.
        -12    1    3    3    0    0 -0.23379074481E+02  0.46685348366E+01 -0.59514661298E+01  0.24572266689E+02  0.00000000000E+00 0.  1.
</event>
<event>
 7    1  0.6198176E-013  0.5930195E+02  0.7816164E-02  0.1266605E+00
        -11   -1    0    0    0    0  0.00000000000E+00  0.00000000000E+00  0.45593999997E+02  0.45594000000E+02  0.51100000000E-03 0.  1.
         11   -1    0    0    0    0 -0.00000000000E+00 -0.00000000000E+00 -0.45593999997E+02  0.45594000000E+02  0.51100000000E-03 0. -1.
    9900012    2    1    2    0    0  0.18686392509E+02 -0.21467780659E+02  0.14376133027E+02  0.59301951762E+02  0.50000014105E+02 0.  0.
        -12    1    1    2    0    0 -0.18686392509E+02  0.21467780659E+02 -0.14376133027E+02  0.31886048238E+02  0.00000000000E+00 0.  1.
         11    1    3    3    0    0  0.30371067996E+01 -0.11328397284E+02 -0.46610762876E+01  0.12620706603E+02  0.51100000000E-03 0. -1.
        -11    1    3    3    0    0 -0.16475062742E+01 -0.20259864543E+02  0.17072401564E+02  0.26545117887E+02  0.51100000000E-03 0.  1.
         12    1    3    3    0    0  0.17296791984E+02  0.10120481167E+02  0.19648077504E+01  0.20136127271E+02  0.00000000000E+00 0. -1.
</event>
<event>
 7    1  0.6198176E-013  0.5930192E+02  0.7816164E-02  0.1266605E+00
        -11   -1    0    0    0    0  0.00000000000E+00  0.00000000000E+00  0.45593999997E+02  0.45594000000E+02  0.51100000000E-03 0.  1.
         11   -1    0    0    0    0 -0.00000000000E+00 -0.00000000000E+00 -0.45593999997E+02  0.45594000000E+02  0.51100000000E-03 0. -1.
    9900012    2    1    2    0    0  0.19334561911E+02 -0.22720636218E+02  0.11254741854E+02  0.59301924534E+02  0.49999964448E+02 0.  0.
        -12    1    1    2    0    0 -0.19334561911E+02  0.22720636218E+02 -0.11254741854E+02  0.31886075466E+02  0.00000000000E+00 0.  1.
         11    1    3    3    0    0  0.86657368090E+00  0.77344464313E+01  0.19699576590E+02  0.21181263646E+02  0.51100000000E-03 0.  1.
        -11    1    3    3    0    0  0.86185511370E+01 -0.16919125332E+02  0.78614190321E+00  0.19004058647E+02  0.51100000000E-03 0. -1.
        -12    1    3    3    0    0  0.98494370930E+01 -0.13535957317E+02 -0.92309766395E+01  0.19116602242E+02  0.00000000000E+00 0.  1.
</event>
<event>
 7    1  0.6198176E-013  0.5930193E+02  0.7816164E-02  0.1266605E+00
        -11   -1    0    0    0    0  0.00000000000E+00  0.00000000000E+00  0.45593999997E+02  0.45594000000E+02  0.51100000000E-03 0. -1.
         11   -1    0    0    0    0 -0.00000000000E+00 -0.00000000000E+00 -0.45593999997E+02  0.45594000000E+02  0.51100000000E-03 0.  1.
    9900012    2    1    2    0    0 -0.21266692520E+02  0.17793007295E+02  0.15743512113E+02  0.59301929483E+02  0.49999973475E+02 0.  0.
        -12    1    1    2    0    0  0.21266692520E+02 -0.17793007295E+02 -0.15743512113E+02  0.31886070517E+02  0.00000000000E+00 0.  1.
         11    1    3    3    0    0 -0.35494966703E+02  0.11284528177E+02  0.10451969225E+02  0.38684323677E+02  0.51100000000E-03 0. -1.
        -11    1    3    3    0    0  0.30240846234E+01 -0.16323114644E+01  0.58191881594E+01  0.67581417285E+01  0.51100000000E-03 0.  1.
        -12    1    3    3    0    0  0.11204189560E+02  0.81407905823E+01 -0.52764527154E+00  0.13859464078E+02  0.00000000000E+00 0.  1.
</event>
<event>
 7    1  0.6198176E-013  0.5930193E+02  0.7816164E-02  0.1266605E+00
        -11   -1    0    0    0    0  0.00000000000E+00  0.00000000000E+00  0.45593999997E+02  0.45594000000E+02  0.51100000000E-03 0. -1.
         11   -1    0    0    0    0 -0.00000000000E+00 -0.00000000000E+00 -0.45593999997E+02  0.45594000000E+02  0.51100000000E-03 0.  1.
    9900012    2    1    2    0    0 -0.33870245751E+01  0.15191537694E+02  0.27829236313E+02  0.59301934913E+02  0.49999983377E+02 0.  0.
        -12    1    1    2    0    0  0.33870245751E+01 -0.15191537694E+02 -0.27829236313E+02  0.31886065087E+02  0.00000000000E+00 0.  1.
         11    1    3    3    0    0  0.46529430773E+01  0.17476485074E+02  0.42345304695E+01  0.18574408695E+02  0.51100000000E-03 0. -1.
        -11    1    3    3    0    0 -0.27914977911E+01 -0.81769104805E+01 -0.57248456901E+01  0.10364756792E+02  0.51100000000E-03 0.  1.
         12    1    3    3    0    0 -0.52484698613E+01  0.58919631010E+01  0.29319551533E+02  0.30362769426E+02  0.00000000000E+00 0. -1.
</event>
<event>
 7    1  0.6198176E-013  0.5930195E+02  0.7816164E-02  0.1266605E+00
        -11   -1    0    0    0    0  0.00000000000E+00  0.00000000000E+00  0.45593999997E+02  0.45594000000E+02  0.51100000000E-03 0.  1.
         11   -1    0    0    0    0 -0.00000000000E+00 -0.00000000000E+00 -0.45593999997E+02  0.45594000000E+02  0.51100000000E-03 0. -1.
    9900012    2    1    2    0    0  0.23815266689E+02 -0.14037827614E+02 -0.15890014016E+02  0.59301951687E+02  0.50000013969E+02 0.  0.
        -12    1    1    2    0    0 -0.23815266689E+02  0.14037827614E+02  0.15890014016E+02  0.31886048313E+02  0.00000000000E+00 0.  1.
         11    1    3    3    0    0  0.23992484500E+02  0.55541052872E+01 -0.13748574600E+01  0.24665312309E+02  0.51100000000E-03 0. -1.
        -11    1    3    3    0    0  0.93016714412E+01 -0.12048466538E+00 -0.72513035478E+01  0.11794787474E+02  0.51100000000E-03 0.  1.
         12    1    3    3    0    0 -0.94788892522E+01 -0.19471448236E+02 -0.72638530084E+01  0.22841851904E+02  0.00000000000E+00 0. -1.
</event>
<event>
 7    1  0.6198176E-013  0.5930193E+02  0.7816164E-02  0.1266605E+00
        -11   -1    0    0    0    0  0.00000000000E+00  0.00000000000E+00  0.45593999997E+02  0.45594000000E+02  0.51100000000E-03 0.  1.
         11   -1    0    0    0    0 -0.00000000000E+00 -0.00000000000E+00 -0.45593999997E+02  0.45594000000E+02  0.51100000000E-03 0. -1.
    9900012    2    1    2    0    0  0.37294160811E+01 -0.16425403861E+02 -0.27074322541E+02  0.59301931296E+02  0.49999976781E+02 0.  0.
        -12    1    1    2    0    0 -0.37294160811E+01  0.16425403861E+02  0.27074322541E+02  0.31886068704E+02  0.00000000000E+00 0.  1.
         11    1    3    3    0    0 -0.12100807382E+02 -0.39789019918E+01 -0.88758937600E+01  0.15525549609E+02  0.51100000000E-03 0. -1.
        -11    1    3    3    0    0 -0.14745182844E+01  0.91300732942E+00  0.88383417676E+01  0.90068902523E+01  0.51100000000E-03 0.  1.
         12    1    3    3    0    0  0.17304741747E+02 -0.13359509199E+02 -0.27036770549E+02  0.34769491435E+02  0.00000000000E+00 0. -1.
</event>
<event>
 7    1  0.6198176E-013  0.5930203E+02  0.7816164E-02  0.1266604E+00
        -11   -1    0    0    0    0  0.00000000000E+00  0.00000000000E+00  0.45593999997E+02  0.45594000000E+02  0.51100000000E-03 0.  1.
         11   -1    0    0    0    0 -0.00000000000E+00 -0.00000000000E+00 -0.45593999997E+02  0.45594000000E+02  0.51100000000E-03 0. -1.
    9900012    2    1    2    0    0 -0.32478959360E+01 -0.29284021147E+02 -0.12190675866E+02  0.59302026585E+02  0.50000150565E+02 0.  0.
        -12    1    1    2    0    0  0.32478959360E+01  0.29284021147E+02  0.12190675866E+02  0.31885973415E+02  0.00000000000E+00 0.  1.
         11    1    3    3    0    0 -0.83735046382E+01  0.39308814527E+01 -0.14050583053E+02  0.16822196447E+02  0.51100000000E-03 0. -1.
        -11    1    3    3    0    0  0.60453979059E+01  0.22654180454E+01 -0.20482800959E+01  0.67730647697E+01  0.51100000000E-03 0.  1.
        -12    1    3    3    0    0 -0.91978920374E+00 -0.35480320645E+02  0.39081872828E+01  0.35706765368E+02  0.00000000000E+00 0.  1.
</event>
<event>
 7    1  0.6198176E-013  0.5930197E+02  0.7816164E-02  0.1266605E+00
        -11   -1    0    0    0    0  0.00000000000E+00  0.00000000000E+00  0.45593999997E+02  0.45594000000E+02  0.51100000000E-03 0.  1.
         11   -1    0    0    0    0 -0.00000000000E+00 -0.00000000000E+00 -0.45593999997E+02  0.45594000000E+02  0.51100000000E-03 0. -1.
    9900012    2    1    2    0    0  0.15459064505E+02  0.22837068542E+02 -0.16006385057E+02  0.59301972691E+02  0.50000052275E+02 0.  0.
        -12    1    1    2    0    0 -0.15459064505E+02 -0.22837068542E+02  0.16006385057E+02  0.31886027309E+02  0.00000000000E+00 0.  1.
         11    1    3    3    0    0  0.13830044404E+02 -0.28262864986E+01 -0.41302243731E+01  0.14707711489E+02  0.51100000000E-03 0. -1.
        -11    1    3    3    0    0  0.45715136365E+01  0.27113363723E+02  0.45270638983E+01  0.27866243684E+02  0.51100000000E-03 0.  1.
         12    1    3    3    0    0 -0.29424935361E+01 -0.14500086823E+01 -0.16403224582E+02  0.16728017518E+02  0.00000000000E+00 0. -1.
</event>
<event>
 7    1  0.6198176E-013  0.5930193E+02  0.7816164E-02  0.1266605E+00
        -11   -1    0    0    0    0  0.00000000000E+00  0.00000000000E+00  0.45593999997E+02  0.45594000000E+02  0.51100000000E-03 0. -1.
         11   -1    0    0    0    0 -0.00000000000E+00 -0.00000000000E+00 -0.45593999997E+02  0.45594000000E+02  0.51100000000E-03 0.  1.
    9900012    2    1    2    0    0  0.15759697370E+02 -0.12283573487E+01  0.27691954434E+02  0.59301933084E+02  0.49999980041E+02 0.  0.
        -12    1    1    2    0    0 -0.15759697370E+02  0.12283573487E+01 -0.27691954434E+02  0.31886066916E+02  0.00000000000E+00 0.  1.
         11    1    3    3    0    0  0.11815754091E+02 -0.11264355671E+02 -0.17513497784E+01  0.16418434144E+02  0.51100000000E-03 0. -1.
        -11    1    3    3    0    0  0.85789907552E+01  0.40041491187E+01 -0.27059363748E+01  0.98465417517E+01  0.51100000000E-03 0.  1.
         12    1    3    3    0    0 -0.46350474756E+01  0.60318492041E+01  0.32149240587E+02  0.33036957188E+02  0.00000000000E+00 0. -1.
</event>
<event>
 7    1  0.6198176E-013  0.5930198E+02  0.7816164E-02  0.1266605E+00
        -11   -1    0    0    0    0  0.00000000000E+00  0.00000000000E+00  0.45593999997E+02  0.45594000000E+02  0.51100000000E-03 0. -1.
         11   -1    0    0    0    0 -0.00000000000E+00 -0.00000000000E+00 -0.45593999997E+02  0.45594000000E+02  0.51100000000E-03 0.  1.
    9900012    2    1    2    0    0  0.29405814442E+02  0.70190631729E+01 -0.10136517765E+02  0.59301981697E+02  0.50000068700E+02 0.  0.
        -12    1    1    2    0    0 -0.29405814442E+02 -0.70190631729E+01  0.10136517765E+02  0.31886018303E+02  0.00000000000E+00 0.  1.
         11    1    3    3    0    0  0.19088075780E+02  0.56973090240E+01  0.11539801757E+02  0.23021316034E+02  0.51100000000E-03 0. -1.
        -11    1    3    3    0    0  0.63900997881E+01 -0.11629826126E+02 -0.36939146024E+01  0.13774296221E+02  0.51100000000E-03 0.  1.
        -12    1    3    3    0    0  0.39276388737E+01  0.12951580275E+02 -0.17982404920E+02  0.22506369442E+02  0.00000000000E+00 0.  1.
</event>
<event>
 7    1  0.6198176E-013  0.5930198E+02  0.7816164E-02  0.1266605E+00
        -11   -1    0    0    0    0  0.00000000000E+00  0.00000000000E+00  0.45593999997E+02  0.45594000000E+02  0.51100000000E-03 0. -1.
         11   -1    0    0    0    0 -0.00000000000E+00 -0.00000000000E+00 -0.45593999997E+02  0.45594000000E+02  0.51100000000E-03 0.  1.
    9900012    2    1    2    0    0  0.21005518038E+02 -0.22294494200E+02  0.88567507489E+01  0.59301979654E+02  0.50000064973E+02 0.  0.
        -12    1    1    2    0    0 -0.21005518038E+02  0.22294494200E+02 -0.88567507489E+01  0.31886020346E+02  0.00000000000E+00 0.  1.
         11    1    3    3    0    0 -0.40444219440E+01 -0.11048595298E+02 -0.69269474304E+00  0.11785950670E+02  0.51100000000E-03 0. -1.
        -11    1    3    3    0    0  0.78108007409E+01 -0.19345107561E+02 -0.72830646986E+01  0.22097167837E+02  0.51100000000E-03 0.  1.
        -12    1    3    3    0    0  0.17239139241E+02  0.80992086591E+01  0.16832510191E+02  0.25418861146E+02  0.00000000000E+00 0.  1.
</event>
<event>
 7    1  0.6198176E-013  0.5930197E+02  0.7816164E-02  0.1266605E+00
        -11   -1    0    0    0    0  0.00000000000E+00  0.00000000000E+00  0.45593999997E+02  0.45594000000E+02  0.51100000000E-03 0. -1.
         11   -1    0    0    0    0 -0.00000000000E+00 -0.00000000000E+00 -0.45593999997E+02  0.45594000000E+02  0.51100000000E-03 0.  1.
    9900012    2    1    2    0    0 -0.53608756644E+01 -0.65423641905E+01  0.30743733904E+02  0.59301973414E+02  0.50000053593E+02 0.  0.
        -12    1    1    2    0    0  0.53608756644E+01  0.65423641905E+01 -0.30743733904E+02  0.31886026586E+02  0.00000000000E+00 0.  1.
         11    1    3    3    0    0  0.40469287616E+01 -0.23839756556E+02  0.79032049686E+01  0.25439580855E+02  0.51100000000E-03 0. -1.
        -11    1    3    3    0    0 -0.28308218377E-01 -0.26197699535E+01  0.87208778262E+00  0.27612557517E+01  0.51100000000E-03 0.  1.
        -12    1    3    3    0    0 -0.93794962076E+01  0.19917162319E+02  0.21968441153E+02  0.31101136807E+02  0.00000000000E+00 0.  1.
</event>
<event>
 7    1  0.6198176E-013  0.5930194E+02  0.7816164E-02  0.1266605E+00
        -11   -1    0    0    0    0  0.00000000000E+00  0.00000000000E+00  0.45593999997E+02  0.45594000000E+02  0.51100000000E-03 0. -1.
         11   -1    0    0    0    0 -0.00000000000E+00 -0.00000000000E+00 -0.45593999997E+02  0.45594000000E+02  0.51100000000E-03 0.  1.
    9900012    2    1    2    0    0 -0.29111878283E+02  0.49235303497E+01  0.12040687019E+02  0.59301941100E+02  0.49999994661E+02 0.  0.
        -12    1    1    2    0    0  0.29111878283E+02 -0.49235303497E+01 -0.12040687019E+02  0.31886058900E+02  0.00000000000E+00 0.  1.
         11    1    3    3    0    0 -0.15947658007E+02  0.19378837433E+02  0.36503214752E+01  0.25361229925E+02  0.51100000000E-03 0. -1.
        -11    1    3    3    0    0 -0.59814924218E+01 -0.93541800706E+01  0.17845337502E+02  0.21017492886E+02  0.51100000000E-03 0.  1.
        -12    1    3    3    0    0 -0.71827278544E+01 -0.51011270132E+01 -0.94549719582E+01  0.12923218290E+02  0.00000000000E+00 0.  1.
</event>
<event>
 7    1  0.6198176E-013  0.5930194E+02  0.7816164E-02  0.1266605E+00
        -11   -1    0    0    0    0  0.00000000000E+00  0.00000000000E+00  0.45593999997E+02  0.45594000000E+02  0.51100000000E-03 0.  1.
         11   -1    0    0    0    0 -0.00000000000E+00 -0.00000000000E+00 -0.45593999997E+02  0.45594000000E+02  0.51100000000E-03 0. -1.
    9900012    2    1    2    0    0 -0.88115717392E+01 -0.11925685061E+02 -0.28228617322E+02  0.59301943540E+02  0.49999999110E+02 0.  0.
        -12    1    1    2    0    0  0.88115717392E+01  0.11925685061E+02  0.28228617322E+02  0.31886056460E+02  0.00000000000E+00 0.  1.
         11    1    3    3    0    0 -0.14392174490E+02  0.82145686950E+01 -0.16081516192E+02  0.23091751530E+02  0.51100000000E-03 0.  1.
        -11    1    3    3    0    0 -0.71751278789E+01  0.21065891847E+01  0.73153812252E+00  0.75136759551E+01  0.51100000000E-03 0. -1.
        -12    1    3    3    0    0  0.12755730630E+02 -0.22246842941E+02 -0.12878639252E+02  0.28696516055E+02  0.00000000000E+00 0.  1.
</event>
<event>
 7    1  0.6198176E-013  0.5930195E+02  0.7816164E-02  0.1266605E+00
        -11   -1    0    0    0    0  0.00000000000E+00  0.00000000000E+00  0.45593999997E+02  0.45594000000E+02  0.51100000000E-03 0.  1.
         11   -1    0    0    0    0 -0.00000000000E+00 -0.00000000000E+00 -0.45593999997E+02  0.45594000000E+02  0.51100000000E-03 0. -1.
    9900012    2    1    2    0    0  0.25889612349E+02 -0.18438348968E+02 -0.25446391402E+01  0.59301954014E+02  0.50000018213E+02 0.  0.
        -12    1    1    2    0    0 -0.25889612349E+02  0.18438348968E+02  0.25446391402E+01  0.31886045986E+02  0.00000000000E+00 0.  1.
         11    1    3    3    0    0  0.46679289423E+01 -0.11257952432E+02  0.10748052052E+02  0.16249666973E+02  0.51100000000E-03 0.  1.
        -11    1    3    3    0    0  0.18625966644E+02 -0.15155094145E+02 -0.20821086421E+02  0.31782403181E+02  0.51100000000E-03 0. -1.
         12    1    3    3    0    0  0.25957167633E+01  0.79746976094E+01  0.75283952296E+01  0.11269883860E+02  0.00000000000E+00 0. -1.
</event>
<event>
 7    1  0.6198176E-013  0.5930195E+02  0.7816164E-02  0.1266605E+00
        -11   -1    0    0    0    0  0.00000000000E+00  0.00000000000E+00  0.45593999997E+02  0.45594000000E+02  0.51100000000E-03 0. -1.
         11   -1    0    0    0    0 -0.00000000000E+00 -0.00000000000E+00 -0.45593999997E+02  0.45594000000E+02  0.51100000000E-03 0.  1.
    9900012    2    1    2    0    0  0.13092630508E+02  0.23719372110E+02  0.16813518440E+02  0.59301953063E+02  0.50000016478E+02 0.  0.
        -12    1    1    2    0    0 -0.13092630508E+02 -0.23719372110E+02 -0.16813518440E+02  0.31886046937E+02  0.00000000000E+00 0.  1.
         11    1    3    3    0    0  0.68405170073E+01  0.16955652759E+02  0.64454675316E+01  0.19386358229E+02  0.51100000000E-03 0. -1.
        -11    1    3    3    0    0 -0.54794800329E+01  0.17320889121E+02 -0.39667048162E+01  0.18594962993E+02  0.51100000000E-03 0.  1.
         12    1    3    3    0    0  0.11731593534E+02 -0.10557169769E+02  0.14334755725E+02  0.21320631841E+02  0.00000000000E+00 0. -1.
</event>
<event>
 7    1  0.6198176E-013  0.5930196E+02  0.7816164E-02  0.1266605E+00
        -11   -1    0    0    0    0  0.00000000000E+00  0.00000000000E+00  0.45593999997E+02  0.45594000000E+02  0.51100000000E-03 0.  1.
         11   -1    0    0    0    0 -0.00000000000E+00 -0.00000000000E+00 -0.45593999997E+02  0.45594000000E+02  0.51100000000E-03 0. -1.
    9900012    2    1    2    0    0  0.34852567717E+01  0.35612012268E+01 -0.31494294231E+02  0.59301957002E+02  0.50000023663E+02 0.  0.
        -12    1    1    2    0    0 -0.34852567717E+01 -0.35612012268E+01  0.31494294231E+02  0.31886042998E+02  0.00000000000E+00 0.  1.
         11    1    3    3    0    0  0.91911905027E+01  0.15835031799E+02 -0.58666593916E+01  0.19226125652E+02  0.51100000000E-03 0.  1.
        -11    1    3    3    0    0  0.10633669648E+02 -0.28171429461E+01 -0.14363131808E+02  0.18091732370E+02  0.51100000000E-03 0. -1.
        -12    1    3    3    0    0 -0.16339603379E+02 -0.94566876257E+01 -0.11264503032E+02  0.21984098980E+02  0.00000000000E+00 0.  1.
</event>
<event>
 7    1  0.6198176E-013  0.5930191E+02  0.7816164E-02  0.1266605E+00
        -11   -1    0    0    0    0  0.00000000000E+00  0.00000000000E+00  0.45593999997E+02  0.45594000000E+02  0.51100000000E-03 0. -1.
         11   -1    0    0    0    0 -0.00000000000E+00 -0.00000000000E+00 -0.45593999997E+02  0.45594000000E+02  0.51100000000E-03 0.  1.
    9900012    2    1    2    0    0  0.25917756769E+02 -0.13745845134E+02 -0.12491778113E+02  0.59301907502E+02  0.49999933385E+02 0.  0.
        -12    1    1    2    0    0 -0.25917756769E+02  0.13745845134E+02  0.12491778113E+02  0.31886092498E+02  0.00000000000E+00 0.  1.
         11    1    3    3    0    0 -0.38069386684E+01 -0.61364958540E+01 -0.13081544167E+01  0.73389802855E+01  0.51100000000E-03 0. -1.
        -11    1    3    3    0    0  0.99124102367E+01  0.13918688621E+02 -0.14641080368E+02  0.22502155546E+02  0.51100000000E-03 0.  1.
         12    1    3    3    0    0  0.19812285201E+02 -0.21528037901E+02  0.34574566722E+01  0.29460771670E+02  0.00000000000E+00 0. -1.
</event>
<event>
 7    1  0.6198176E-013  0.5930195E+02  0.7816164E-02  0.1266605E+00
        -11   -1    0    0    0    0  0.00000000000E+00  0.00000000000E+00  0.45593999997E+02  0.45594000000E+02  0.51100000000E-03 0. -1.
         11   -1    0    0    0    0 -0.00000000000E+00 -0.00000000000E+00 -0.45593999997E+02  0.45594000000E+02  0.51100000000E-03 0.  1.
    9900012    2    1    2    0    0 -0.23616670236E+02 -0.20279024908E+02  0.69090089672E+01  0.59301947106E+02  0.50000005613E+02 0.  0.
        -12    1    1    2    0    0  0.23616670236E+02  0.20279024908E+02 -0.69090089672E+01  0.31886052894E+02  0.00000000000E+00 0.  1.
         11    1    3    3    0    0  0.13819533934E+01 -0.14718663255E+02  0.23946130501E+02  0.28141890652E+02  0.51100000000E-03 0. -1.
        -11    1    3    3    0    0 -0.40363233083E+01 -0.15901035362E+01 -0.51618879243E+01  0.67428052255E+01  0.51100000000E-03 0.  1.
        -12    1    3    3    0    0 -0.20962300321E+02 -0.39702581166E+01 -0.11875233610E+02  0.24417251229E+02  0.00000000000E+00 0.  1.
</event>
<event>
 7    1  0.6198176E-013  0.5930199E+02  0.7816164E-02  0.1266605E+00
        -11   -1    0    0    0    0  0.00000000000E+00  0.00000000000E+00  0.45593999997E+02  0.45594000000E+02  0.51100000000E-03 0.  1.
         11   -1    0    0    0    0 -0.00000000000E+00 -0.00000000000E+00 -0.45593999997E+02  0.45594000000E+02  0.51100000000E-03 0. -1.
    9900012    2    1    2    0    0 -0.19470603072E+02 -0.36713621719E+01 -0.24982680948E+02  0.59301990034E+02  0.50000083905E+02 0.  0.
        -12    1    1    2    0    0  0.19470603072E+02  0.36713621719E+01  0.24982680948E+02  0.31886009966E+02  0.00000000000E+00 0.  1.
         11    1    3    3    0    0 -0.24695398571E+02  0.42115162936E+01 -0.14960537529E+02  0.29179055219E+02  0.51100000000E-03 0. -1.
        -11    1    3    3    0    0 -0.78928245369E+01  0.16631496821E+01  0.37002156661E+01  0.88743643306E+01  0.51100000000E-03 0.  1.
         12    1    3    3    0    0  0.13117620035E+02 -0.95460281476E+01 -0.13722359085E+02  0.21248570485E+02  0.00000000000E+00 0. -1.
</event>
<event>
 7    1  0.6198176E-013  0.5930194E+02  0.7816164E-02  0.1266605E+00
        -11   -1    0    0    0    0  0.00000000000E+00  0.00000000000E+00  0.45593999997E+02  0.45594000000E+02  0.51100000000E-03 0.  1.
         11   -1    0    0    0    0 -0.00000000000E+00 -0.00000000000E+00 -0.45593999997E+02  0.45594000000E+02  0.51100000000E-03 0. -1.
    9900012    2    1    2    0    0  0.26034716293E+02 -0.27554231534E+01 -0.18202253810E+02  0.59301939519E+02  0.49999991777E+02 0.  0.
        -12    1    1    2    0    0 -0.26034716293E+02  0.27554231534E+01  0.18202253810E+02  0.31886060481E+02  0.00000000000E+00 0.  1.
         11    1    3    3    0    0  0.10276208090E+02 -0.12805843191E+02 -0.27326119460E+02  0.31879568340E+02  0.51100000000E-03 0. -1.
        -11    1    3    3    0    0  0.15445505087E+01  0.50088811368E+01 -0.46429941152E+01  0.70022797096E+01  0.51100000000E-03 0.  1.
        -12    1    3    3    0    0  0.14213957694E+02  0.50415389012E+01  0.13766859765E+02  0.20420091469E+02  0.00000000000E+00 0.  1.
</event>
<event>
 7    1  0.6198176E-013  0.5930191E+02  0.7816164E-02  0.1266605E+00
        -11   -1    0    0    0    0  0.00000000000E+00  0.00000000000E+00  0.45593999997E+02  0.45594000000E+02  0.51100000000E-03 0. -1.
         11   -1    0    0    0    0 -0.00000000000E+00 -0.00000000000E+00 -0.45593999997E+02  0.45594000000E+02  0.51100000000E-03 0.  1.
    9900012    2    1    2    0    0 -0.24969102995E+02  0.68699484159E+00 -0.19819045951E+02  0.59301911361E+02  0.49999940423E+02 0.  0.
        -12    1    1    2    0    0  0.24969102995E+02 -0.68699484159E+00  0.19819045951E+02  0.31886088639E+02  0.00000000000E+00 0.  1.
         11    1    3    3    0    0 -0.15703280971E+02 -0.28295177326E+01 -0.82313202223E+01  0.17954215012E+02  0.51100000000E-03 0. -1.
        -11    1    3    3    0    0 -0.76820376355E+01 -0.59832131759E+01 -0.23846721656E+02  0.25758079822E+02  0.51100000000E-03 0.  1.
         12    1    3    3    0    0 -0.15837843888E+01  0.94997257501E+01  0.12258995926E+02  0.15589616527E+02  0.00000000000E+00 0. -1.
</event>
<event>
 7    1  0.6198176E-013  0.5930196E+02  0.7816164E-02  0.1266605E+00
        -11   -1    0    0    0    0  0.00000000000E+00  0.00000000000E+00  0.45593999997E+02  0.45594000000E+02  0.51100000000E-03 0. -1.
         11   -1    0    0    0    0 -0.00000000000E+00 -0.00000000000E+00 -0.45593999997E+02  0.45594000000E+02  0.51100000000E-03 0.  1.
    9900012    2    1    2    0    0 -0.28808399571E+02  0.12875348104E+02 -0.45848773073E+01  0.59301959565E+02  0.50000028337E+02 0.  0.
        -12    1    1    2    0    0  0.28808399571E+02 -0.12875348104E+02  0.45848773073E+01  0.31886040435E+02  0.00000000000E+00 0.  1.
         11    1    3    3    0    0 -0.25945013346E+02 -0.23858616108E+01 -0.21390292105E+01  0.26142140298E+02  0.51100000000E-03 0. -1.
        -11    1    3    3    0    0 -0.94529730113E+01  0.65611495130E+01 -0.13423254424E+02  0.17680247206E+02  0.51100000000E-03 0.  1.
        -12    1    3    3    0    0  0.65895867859E+01  0.87000602023E+01  0.10977406327E+02  0.15479572061E+02  0.00000000000E+00 0.  1.
</event>
<event>
 7    1  0.6198176E-013  0.5930190E+02  0.7816164E-02  0.1266605E+00
        -11   -1    0    0    0    0  0.00000000000E+00  0.00000000000E+00  0.45593999997E+02  0.45594000000E+02  0.51100000000E-03 0.  1.
         11   -1    0    0    0    0 -0.00000000000E+00 -0.00000000000E+00 -0.45593999997E+02  0.45594000000E+02  0.51100000000E-03 0. -1.
    9900012    2    1    2    0    0  0.20370476353E+02  0.17068636110E+02 -0.17618987704E+02  0.59301900000E+02  0.49999919704E+02 0.  0.
        -12    1    1    2    0    0 -0.20370476353E+02 -0.17068636110E+02  0.17618987704E+02  0.31886100000E+02  0.00000000000E+00 0.  1.
         11    1    3    3    0    0  0.17903407986E+01 -0.73000578722E+01 -0.14205002972E+02  0.16071038386E+02  0.51100000000E-03 0. -1.
        -11    1    3    3    0    0  0.45538698326E+01  0.16222536328E+02 -0.15584942225E+02  0.22952098810E+02  0.51100000000E-03 0.  1.
        -12    1    3    3    0    0  0.14026265721E+02  0.81461576541E+01  0.12170957492E+02  0.20278762805E+02  0.00000000000E+00 0.  1.
</event>
<event>
 7    1  0.6198176E-013  0.5930193E+02  0.7816164E-02  0.1266605E+00
        -11   -1    0    0    0    0  0.00000000000E+00  0.00000000000E+00  0.45593999997E+02  0.45594000000E+02  0.51100000000E-03 0. -1.
         11   -1    0    0    0    0 -0.00000000000E+00 -0.00000000000E+00 -0.45593999997E+02  0.45594000000E+02  0.51100000000E-03 0.  1.
    9900012    2    1    2    0    0  0.17179553294E+02 -0.25577377259E+02  0.82086820466E+01  0.59301925614E+02  0.49999966417E+02 0.  0.
        -12    1    1    2    0    0 -0.17179553294E+02  0.25577377259E+02 -0.82086820466E+01  0.31886074386E+02  0.00000000000E+00 0.  1.
         11    1    3    3    0    0  0.15803232300E+01 -0.88909761618E+01 -0.25056701468E+01  0.93715133126E+01  0.51100000000E-03 0. -1.
        -11    1    3    3    0    0 -0.13384906837E+02 -0.90599332300E+01  0.11684411923E+02  0.19944011718E+02  0.51100000000E-03 0.  1.
        -12    1    3    3    0    0  0.28984136901E+02 -0.76264678676E+01 -0.97005972927E+00  0.29986400583E+02  0.00000000000E+00 0.  1.
</event>
<event>
 7    1  0.6198176E-013  0.5930199E+02  0.7816164E-02  0.1266605E+00
        -11   -1    0    0    0    0  0.00000000000E+00  0.00000000000E+00  0.45593999997E+02  0.45594000000E+02  0.51100000000E-03 0.  1.
         11   -1    0    0    0    0 -0.00000000000E+00 -0.00000000000E+00 -0.45593999997E+02  0.45594000000E+02  0.51100000000E-03 0. -1.
    9900012    2    1    2    0    0 -0.24336010955E+02  0.19476710369E+02 -0.67182018397E+01  0.59301985637E+02  0.50000075884E+02 0.  0.
        -12    1    1    2    0    0  0.24336010955E+02 -0.19476710369E+02  0.67182018397E+01  0.31886014363E+02  0.00000000000E+00 0.  1.
         11    1    3    3    0    0 -0.44073488753E+01  0.21198208242E+02 -0.82833557899E+01  0.23181948585E+02  0.51100000000E-03 0. -1.
        -11    1    3    3    0    0 -0.11834334969E+02  0.13182156545E+02  0.57984639475E+01  0.18639820808E+02  0.51100000000E-03 0.  1.
        -12    1    3    3    0    0 -0.80943271114E+01 -0.14903654418E+02 -0.42333099973E+01  0.17480216244E+02  0.00000000000E+00 0.  1.
</event>
<event>
 7    1  0.6198176E-013  0.5930195E+02  0.7816164E-02  0.1266605E+00
        -11   -1    0    0    0    0  0.00000000000E+00  0.00000000000E+00  0.45593999997E+02  0.45594000000E+02  0.51100000000E-03 0.  1.
         11   -1    0    0    0    0 -0.00000000000E+00 -0.00000000000E+00 -0.45593999997E+02  0.45594000000E+02  0.51100000000E-03 0. -1.
    9900012    2    1    2    0    0  0.43580904405E+01  0.20571293672E+02 -0.23969747419E+02  0.59301954981E+02  0.50000019976E+02 0.  0.
        -12    1    1    2    0    0 -0.43580904405E+01 -0.20571293672E+02  0.23969747419E+02  0.31886045019E+02  0.00000000000E+00 0.  1.
         11    1    3    3    0    0  0.63922983050E+01 -0.57820944108E-02 -0.73361710094E+01  0.97304119334E+01  0.51100000000E-03 0. -1.
        -11    1    3    3    0    0  0.11125672911E+02  0.69103944320E+00  0.91717580012E+01  0.14435348223E+02  0.51100000000E-03 0.  1.
         12    1    3    3    0    0 -0.13159880775E+02  0.19886036324E+02 -0.25805334411E+02  0.35136194824E+02  0.00000000000E+00 0. -1.
</event>
<event>
 7    1  0.6198176E-013  0.5930192E+02  0.7816164E-02  0.1266605E+00
        -11   -1    0    0    0    0  0.00000000000E+00  0.00000000000E+00  0.45593999997E+02  0.45594000000E+02  0.51100000000E-03 0.  1.
         11   -1    0    0    0    0 -0.00000000000E+00 -0.00000000000E+00 -0.45593999997E+02  0.45594000000E+02  0.51100000000E-03 0. -1.
    9900012    2    1    2    0    0  0.16195627769E+02 -0.25247700340E+02 -0.10815612203E+02  0.59301918419E+02  0.49999953295E+02 0.  0.
        -12    1    1    2    0    0 -0.16195627769E+02  0.25247700340E+02  0.10815612203E+02  0.31886081581E+02  0.00000000000E+00 0.  1.
         11    1    3    3    0    0 -0.92889911745E+01 -0.84361848712E+00 -0.90695092360E+01  0.13009728945E+02  0.51100000000E-03 0. -1.
        -11    1    3    3    0    0  0.11431196288E+02  0.58530081262E+01 -0.14996829234E+01  0.12929771917E+02  0.51100000000E-03 0.  1.
        -12    1    3    3    0    0  0.14053422656E+02 -0.30257089979E+02 -0.24642004369E+00  0.33362417556E+02  0.00000000000E+00 0.  1.
</event>
<event>
 7    1  0.6198176E-013  0.5930197E+02  0.7816164E-02  0.1266605E+00
        -11   -1    0    0    0    0  0.00000000000E+00  0.00000000000E+00  0.45593999997E+02  0.45594000000E+02  0.51100000000E-03 0.  1.
         11   -1    0    0    0    0 -0.00000000000E+00 -0.00000000000E+00 -0.45593999997E+02  0.45594000000E+02  0.51100000000E-03 0. -1.
    9900012    2    1    2    0    0 -0.27087462668E+02  0.16625000483E+02  0.25686061136E+01  0.59301968384E+02  0.50000044421E+02 0.  0.
        -12    1    1    2    0    0  0.27087462668E+02 -0.16625000483E+02 -0.25686061136E+01  0.31886031616E+02  0.00000000000E+00 0.  1.
         11    1    3    3    0    0 -0.17293206349E+02 -0.22106195339E+01  0.19149828111E+01  0.17538785134E+02  0.51100000000E-03 0. -1.
        -11    1    3    3    0    0  0.23281708070E+01  0.32292591317E+01  0.16160716060E+02  0.16643834825E+02  0.51100000000E-03 0.  1.
         12    1    3    3    0    0 -0.12122427126E+02  0.15606360885E+02 -0.15507092758E+02  0.25119348425E+02  0.00000000000E+00 0. -1.
</event>
<event>
 7    1  0.6198176E-013  0.5930193E+02  0.7816164E-02  0.1266605E+00
        -11   -1    0    0    0    0  0.00000000000E+00  0.00000000000E+00  0.45593999997E+02  0.45594000000E+02  0.51100000000E-03 0. -1.
         11   -1    0    0    0    0 -0.00000000000E+00 -0.00000000000E+00 -0.45593999997E+02  0.45594000000E+02  0.51100000000E-03 0.  1.
    9900012    2    1    2    0    0 -0.22663598155E+02 -0.11004860706E+02  0.19544200200E+02  0.59301930911E+02  0.49999976079E+02 0.  0.
        -12    1    1    2    0    0  0.22663598155E+02  0.11004860706E+02 -0.19544200200E+02  0.31886069089E+02  0.00000000000E+00 0.  1.
         11    1    3    3    0    0 -0.15805332463E+02 -0.16520135722E+02  0.11169452386E+01  0.22890412523E+02  0.51100000000E-03 0. -1.
        -11    1    3    3    0    0 -0.14137788372E+02 -0.78540761556E+01  0.99215590333E+01  0.18973689842E+02  0.51100000000E-03 0.  1.
         12    1    3    3    0    0  0.72795226798E+01  0.13369351172E+02  0.85056959282E+01  0.17437828547E+02  0.00000000000E+00 0. -1.
</event>
<event>
 7    1  0.6198176E-013  0.5930177E+02  0.7816164E-02  0.1266605E+00
        -11   -1    0    0    0    0  0.00000000000E+00  0.00000000000E+00  0.45593999997E+02  0.45594000000E+02  0.51100000000E-03 0. -1.
         11   -1    0    0    0    0 -0.00000000000E+00 -0.00000000000E+00 -0.45593999997E+02  0.45594000000E+02  0.51100000000E-03 0.  1.
    9900012    2    1    2    0    0  0.19552755833E+02  0.23153950767E+02 -0.99154295592E+01  0.59301773505E+02  0.49999689006E+02 0.  0.
        -12    1    1    2    0    0 -0.19552755833E+02 -0.23153950767E+02  0.99154295592E+01  0.31886226495E+02  0.00000000000E+00 0.  1.
         11    1    3    3    0    0 -0.94874503790E+00 -0.17072911404E+01  0.81406546903E+01  0.83716915395E+01  0.51100000000E-03 0. -1.
        -11    1    3    3    0    0  0.21622940837E+02  0.30599824232E+01  0.11292614232E+01  0.21867562610E+02  0.51100000000E-03 0.  1.
         12    1    3    3    0    0 -0.11214399665E+01  0.21801259484E+02 -0.19185345673E+02  0.29062519355E+02  0.00000000000E+00 0. -1.
</event>
<event>
 7    1  0.6198176E-013  0.5930193E+02  0.7816164E-02  0.1266605E+00
        -11   -1    0    0    0    0  0.00000000000E+00  0.00000000000E+00  0.45593999997E+02  0.45594000000E+02  0.51100000000E-03 0.  1.
         11   -1    0    0    0    0 -0.00000000000E+00 -0.00000000000E+00 -0.45593999997E+02  0.45594000000E+02  0.51100000000E-03 0. -1.
    9900012    2    1    2    0    0 -0.47393239945E+01  0.30281671863E+02 -0.87909430397E+01  0.59301929024E+02  0.49999972636E+02 0.  0.
        -12    1    1    2    0    0  0.47393239945E+01 -0.30281671863E+02  0.87909430397E+01  0.31886070976E+02  0.00000000000E+00 0.  1.
         11    1    3    3    0    0 -0.17622997437E+01  0.23348902653E+02 -0.18070407200E+02  0.29577298256E+02  0.51100000000E-03 0. -1.
        -11    1    3    3    0    0 -0.30401069468E+01  0.16790338378E+02  0.10107273505E+02  0.19832163046E+02  0.51100000000E-03 0.  1.
        -12    1    3    3    0    0  0.63082695981E-01 -0.98575691677E+01 -0.82780934464E+00  0.98924677221E+01  0.00000000000E+00 0.  1.
</event>
<event>
 7    1  0.6198176E-013  0.5930195E+02  0.7816164E-02  0.1266605E+00
        -11   -1    0    0    0    0  0.00000000000E+00  0.00000000000E+00  0.45593999997E+02  0.45594000000E+02  0.51100000000E-03 0. -1.
         11   -1    0    0    0    0 -0.00000000000E+00 -0.00000000000E+00 -0.45593999997E+02  0.45594000000E+02  0.51100000000E-03 0.  1.
    9900012    2    1    2    0    0 -0.18942420865E+01 -0.31660188272E+02 -0.32809764980E+01  0.59301945348E+02  0.50000002408E+02 0.  0.
        -12    1    1    2    0    0  0.18942420865E+01  0.31660188272E+02  0.32809764980E+01  0.31886054652E+02  0.00000000000E+00 0.  1.
         11    1    3    3    0    0  0.67620261627E+01 -0.30129309416E+02  0.81132463858E+01  0.31926870359E+02  0.51100000000E-03 0. -1.
        -11    1    3    3    0    0 -0.10869982810E+01  0.16059303830E+01  0.69866131265E+01  0.72507476096E+01  0.51100000000E-03 0.  1.
        -12    1    3    3    0    0 -0.75692699683E+01 -0.31368092382E+01 -0.18380836010E+02  0.20124327380E+02  0.00000000000E+00 0.  1.
</event>
<event>
 7    1  0.6198176E-013  0.5930192E+02  0.7816164E-02  0.1266605E+00
        -11   -1    0    0    0    0  0.00000000000E+00  0.00000000000E+00  0.45593999997E+02  0.45594000000E+02  0.51100000000E-03 0.  1.
         11   -1    0    0    0    0 -0.00000000000E+00 -0.00000000000E+00 -0.45593999997E+02  0.45594000000E+02  0.51100000000E-03 0. -1.
    9900012    2    1    2    0    0 -0.19244447002E+02 -0.12623322605E+02 -0.22068639235E+02  0.59301923859E+02  0.49999963217E+02 0.  0.
        -12    1    1    2    0    0  0.19244447002E+02  0.12623322605E+02  0.22068639235E+02  0.31886076141E+02  0.00000000000E+00 0.  1.
         11    1    3    3    0    0 -0.66850927159E+01  0.35701370301E+01 -0.36890062077E+01  0.84288261398E+01  0.51100000000E-03 0. -1.
        -11    1    3    3    0    0  0.35487457978E+01  0.59796419021E+01 -0.22143277036E+02  0.23209360873E+02  0.51100000000E-03 0.  1.
         12    1    3    3    0    0 -0.16108100084E+02 -0.22173101537E+02  0.37636440082E+01  0.27663736846E+02  0.00000000000E+00 0. -1.
</event>
<event>
 7    1  0.6198176E-013  0.5930194E+02  0.7816164E-02  0.1266605E+00
        -11   -1    0    0    0    0  0.00000000000E+00  0.00000000000E+00  0.45593999997E+02  0.45594000000E+02  0.51100000000E-03 0. -1.
         11   -1    0    0    0    0 -0.00000000000E+00 -0.00000000000E+00 -0.45593999997E+02  0.45594000000E+02  0.51100000000E-03 0.  1.
    9900012    2    1    2    0    0 -0.21739740037E+02 -0.14437352069E+02  0.18321224395E+02  0.59301941997E+02  0.49999996296E+02 0.  0.
        -12    1    1    2    0    0  0.21739740037E+02  0.14437352069E+02 -0.18321224395E+02  0.31886058003E+02  0.00000000000E+00 0.  1.
         11    1    3    3    0    0 -0.51372961690E+01 -0.97741605209E+01  0.23953506071E+01  0.11298837578E+02  0.51100000000E-03 0. -1.
        -11    1    3    3    0    0  0.25423100483E+01 -0.15128898841E+02 -0.65481105378E+01  0.16680068118E+02  0.51100000000E-03 0.  1.
         12    1    3    3    0    0 -0.19144753916E+02  0.10465707293E+02  0.22473984326E+02  0.31323036301E+02  0.00000000000E+00 0. -1.
</event>
<event>
 7    1  0.6198176E-013  0.5930194E+02  0.7816164E-02  0.1266605E+00
        -11   -1    0    0    0    0  0.00000000000E+00  0.00000000000E+00  0.45593999997E+02  0.45594000000E+02  0.51100000000E-03 0. -1.
         11   -1    0    0    0    0 -0.00000000000E+00 -0.00000000000E+00 -0.45593999997E+02  0.45594000000E+02  0.51100000000E-03 0.  1.
    9900012    2    1    2    0    0 -0.26314910172E+02 -0.15056947892E+02  0.98759745920E+01  0.59301936409E+02  0.49999986105E+02 0.  0.
        -12    1    1    2    0    0  0.26314910172E+02  0.15056947892E+02 -0.98759745920E+01  0.31886063591E+02  0.00000000000E+00 0.  1.
         11    1    3    3    0    0 -0.72601494050E+01 -0.10148849964E+02  0.79097807737E+01  0.14774083969E+02  0.51100000000E-03 0.  1.
        -11    1    3    3    0    0 -0.22527026133E+01 -0.76012773266E+01 -0.17174913891E+02  0.18916441353E+02  0.51100000000E-03 0. -1.
         12    1    3    3    0    0 -0.16802058154E+02  0.26931793986E+01  0.19141107709E+02  0.25611411086E+02  0.00000000000E+00 0. -1.
</event>
<event>
 7    1  0.6198176E-013  0.5930202E+02  0.7816164E-02  0.1266605E+00
        -11   -1    0    0    0    0  0.00000000000E+00  0.00000000000E+00  0.45593999997E+02  0.45594000000E+02  0.51100000000E-03 0.  1.
         11   -1    0    0    0    0 -0.00000000000E+00 -0.00000000000E+00 -0.45593999997E+02  0.45594000000E+02  0.51100000000E-03 0. -1.
    9900012    2    1    2    0    0 -0.61730632694E+00 -0.30005475006E+02 -0.10770622238E+02  0.59302017173E+02  0.50000133400E+02 0.  0.
        -12    1    1    2    0    0  0.61730632694E+00  0.30005475006E+02  0.10770622238E+02  0.31885982827E+02  0.00000000000E+00 0.  1.
         11    1    3    3    0    0 -0.43474858831E+01 -0.90114346624E+01 -0.18923353650E+01  0.10182706987E+02  0.51100000000E-03 0. -1.
        -11    1    3    3    0    0 -0.59271334875E+01 -0.32634691063E+02 -0.66939695269E+01  0.33837304864E+02  0.51100000000E-03 0.  1.
        -12    1    3    3    0    0  0.96573130437E+01  0.11640650720E+02 -0.21843173462E+01  0.15282005322E+02  0.00000000000E+00 0.  1.
</event>
<event>
 7    1  0.6198176E-013  0.5930199E+02  0.7816164E-02  0.1266605E+00
        -11   -1    0    0    0    0  0.00000000000E+00  0.00000000000E+00  0.45593999997E+02  0.45594000000E+02  0.51100000000E-03 0. -1.
         11   -1    0    0    0    0 -0.00000000000E+00 -0.00000000000E+00 -0.45593999997E+02  0.45594000000E+02  0.51100000000E-03 0.  1.
    9900012    2    1    2    0    0  0.25652339064E+02  0.16294601872E+02  0.96519874935E+01  0.59301993473E+02  0.50000090177E+02 0.  0.
        -12    1    1    2    0    0 -0.25652339064E+02 -0.16294601872E+02 -0.96519874935E+01  0.31886006527E+02  0.00000000000E+00 0.  1.
         11    1    3    3    0    0  0.16342871780E+02 -0.27939482437E+01  0.12951866296E+02  0.21039164566E+02  0.51100000000E-03 0. -1.
        -11    1    3    3    0    0  0.10131942044E+02  0.12620887378E+02  0.12966687662E+02  0.20738322906E+02  0.51100000000E-03 0.  1.
        -12    1    3    3    0    0 -0.82247476005E+00  0.64676627385E+01 -0.16266566465E+02  0.17524506001E+02  0.00000000000E+00 0.  1.
</event>
<event>
 7    1  0.6198176E-013  0.5930192E+02  0.7816164E-02  0.1266605E+00
        -11   -1    0    0    0    0  0.00000000000E+00  0.00000000000E+00  0.45593999997E+02  0.45594000000E+02  0.51100000000E-03 0.  1.
         11   -1    0    0    0    0 -0.00000000000E+00 -0.00000000000E+00 -0.45593999997E+02  0.45594000000E+02  0.51100000000E-03 0. -1.
    9900012    2    1    2    0    0 -0.23391586375E+02  0.21494951234E+02  0.27427268064E+01  0.59301924795E+02  0.49999964923E+02 0.  0.
        -12    1    1    2    0    0  0.23391586375E+02 -0.21494951234E+02 -0.27427268064E+01  0.31886075205E+02  0.00000000000E+00 0.  1.
         11    1    3    3    0    0 -0.10236800656E+02 -0.37468577934E+01 -0.11605530958E+00  0.10901582458E+02  0.51100000000E-03 0. -1.
        -11    1    3    3    0    0 -0.51150770150E+01 -0.77200772119E+01  0.10105239762E+02  0.13706913436E+02  0.51100000000E-03 0.  1.
        -12    1    3    3    0    0 -0.80397087044E+01  0.32961886239E+02 -0.72464576465E+01  0.34693428901E+02  0.00000000000E+00 0.  1.
</event>
<event>
 7    1  0.6198176E-013  0.5930195E+02  0.7816164E-02  0.1266605E+00
        -11   -1    0    0    0    0  0.00000000000E+00  0.00000000000E+00  0.45593999997E+02  0.45594000000E+02  0.51100000000E-03 0.  1.
         11   -1    0    0    0    0 -0.00000000000E+00 -0.00000000000E+00 -0.45593999997E+02  0.45594000000E+02  0.51100000000E-03 0. -1.
    9900012    2    1    2    0    0  0.32950984002E+01 -0.19370189852E+02 -0.25112915658E+02  0.59301945662E+02  0.50000002981E+02 0.  0.
        -12    1    1    2    0    0 -0.32950984002E+01  0.19370189852E+02  0.25112915658E+02  0.31886054338E+02  0.00000000000E+00 0.  1.
         11    1    3    3    0    0 -0.10775416250E+02  0.11575368611E+01 -0.62732485113E+01  0.12522105817E+02  0.51100000000E-03 0. -1.
        -11    1    3    3    0    0 -0.10057215161E+02 -0.14499121293E+02 -0.51030085271E+01  0.18368799399E+02  0.51100000000E-03 0.  1.
        -12    1    3    3    0    0  0.24127729812E+02 -0.60286054208E+01 -0.13736658620E+02  0.28411040446E+02  0.00000000000E+00 0.  1.
</event>
<event>
 7    1  0.6297030E-013  0.5930195E+02  0.7816164E-02  0.1266605E+00
        -11   -1    0    0    0    0  0.00000000000E+00  0.00000000000E+00  0.45593999997E+02  0.45594000000E+02  0.51100000000E-03 0. -1.
         11   -1    0    0    0    0 -0.00000000000E+00 -0.00000000000E+00 -0.45593999997E+02  0.45594000000E+02  0.51100000000E-03 0.  1.
    9900012    2    1    2    0    0  0.24971153086E+02 -0.70184743804E+01  0.18544607869E+02  0.59301953677E+02  0.50000017599E+02 0.  0.
        -12    1    1    2    0    0 -0.24971153086E+02  0.70184743804E+01 -0.18544607869E+02  0.31886046323E+02  0.00000000000E+00 0.  1.
         11    1    3    3    0    0  0.20455662399E+02 -0.36396843438E+01  0.67328258025E+01  0.21840612855E+02  0.51100000000E-03 0. -1.
        -11    1    3    3    0    0 -0.47047346012E+00  0.65834187681E+01 -0.10569370295E+02  0.12460912352E+02  0.51100000000E-03 0.  1.
         12    1    3    3    0    0  0.49859641470E+01 -0.99622088047E+01  0.22381152361E+02  0.25000428471E+02  0.00000000000E+00 0. -1.
</event>
<event>
 7    1  0.6198176E-013  0.5930194E+02  0.7816164E-02  0.1266605E+00
        -11   -1    0    0    0    0  0.00000000000E+00  0.00000000000E+00  0.45593999997E+02  0.45594000000E+02  0.51100000000E-03 0. -1.
         11   -1    0    0    0    0 -0.00000000000E+00 -0.00000000000E+00 -0.45593999997E+02  0.45594000000E+02  0.51100000000E-03 0.  1.
    9900012    2    1    2    0    0 -0.23680765779E+02  0.20642403578E+02  0.54619732963E+01  0.59301942770E+02  0.49999997707E+02 0.  0.
        -12    1    1    2    0    0  0.23680765779E+02 -0.20642403578E+02 -0.54619732963E+01  0.31886057230E+02  0.00000000000E+00 0.  1.
         11    1    3    3    0    0  0.70980687285E+01  0.19016375966E+01  0.27631911768E+01  0.78507344220E+01  0.51100000000E-03 0. -1.
        -11    1    3    3    0    0 -0.21026046689E+02  0.26499989744E+02 -0.82972835169E+01  0.34830862892E+02  0.51100000000E-03 0.  1.
         12    1    3    3    0    0 -0.97527878185E+01 -0.77592237618E+01  0.10996065636E+02  0.16620345457E+02  0.00000000000E+00 0. -1.
</event>
<event>
 7    1  0.6198176E-013  0.5930196E+02  0.7816164E-02  0.1266605E+00
        -11   -1    0    0    0    0  0.00000000000E+00  0.00000000000E+00  0.45593999997E+02  0.45594000000E+02  0.51100000000E-03 0. -1.
         11   -1    0    0    0    0 -0.00000000000E+00 -0.00000000000E+00 -0.45593999997E+02  0.45594000000E+02  0.51100000000E-03 0.  1.
    9900012    2    1    2    0    0 -0.28182170609E+02  0.12487991415E+01  0.14863565427E+02  0.59301955769E+02  0.50000021413E+02 0.  0.
        -12    1    1    2    0    0  0.28182170609E+02 -0.12487991415E+01 -0.14863565427E+02  0.31886044231E+02  0.00000000000E+00 0.  1.
         11    1    3    3    0    0 -0.16631557139E+01 -0.52557456174E+01  0.12326576208E+01  0.56487515431E+01  0.51100000000E-03 0. -1.
        -11    1    3    3    0    0 -0.32394219594E+02 -0.26437068759E+01 -0.41967831968E+01  0.32771750619E+02  0.51100000000E-03 0.  1.
         12    1    3    3    0    0  0.58752046992E+01  0.91482516348E+01  0.17827691003E+02  0.20881453607E+02  0.00000000000E+00 0. -1.
</event>
<event>
 7    1  0.6198176E-013  0.5930193E+02  0.7816164E-02  0.1266605E+00
        -11   -1    0    0    0    0  0.00000000000E+00  0.00000000000E+00  0.45593999997E+02  0.45594000000E+02  0.51100000000E-03 0.  1.
         11   -1    0    0    0    0 -0.00000000000E+00 -0.00000000000E+00 -0.45593999997E+02  0.45594000000E+02  0.51100000000E-03 0. -1.
    9900012    2    1    2    0    0  0.19922308328E+01  0.24410248019E+00 -0.31822839355E+02  0.59301926640E+02  0.49999968290E+02 0.  0.
        -12    1    1    2    0    0 -0.19922308328E+01 -0.24410248019E+00  0.31822839355E+02  0.31886073360E+02  0.00000000000E+00 0.  1.
         11    1    3    3    0    0 -0.46627077649E+01 -0.11875083124E+02 -0.85691307997E+00  0.12786428086E+02  0.51100000000E-03 0. -1.
        -11    1    3    3    0    0 -0.87546044441E+01 -0.56652054722E+01 -0.53088020256E+01  0.11701326045E+02  0.51100000000E-03 0.  1.
         12    1    3    3    0    0  0.15409543042E+02  0.17784391077E+02 -0.25657124249E+02  0.34814172509E+02  0.00000000000E+00 0. -1.
</event>
<event>
 7    1  0.6198176E-013  0.5930195E+02  0.7816164E-02  0.1266605E+00
        -11   -1    0    0    0    0  0.00000000000E+00  0.00000000000E+00  0.45593999997E+02  0.45594000000E+02  0.51100000000E-03 0.  1.
         11   -1    0    0    0    0 -0.00000000000E+00 -0.00000000000E+00 -0.45593999997E+02  0.45594000000E+02  0.51100000000E-03 0. -1.
    9900012    2    1    2    0    0 -0.16005275139E+02  0.16844132765E+02 -0.21836362420E+02  0.59301947178E+02  0.50000005745E+02 0.  0.
        -12    1    1    2    0    0  0.16005275139E+02 -0.16844132765E+02  0.21836362420E+02  0.31886052822E+02  0.00000000000E+00 0.  1.
         11    1    3    3    0    0 -0.79208399330E+01  0.20638120357E+02 -0.24107728239E+02  0.32708626970E+02  0.51100000000E-03 0. -1.
        -11    1    3    3    0    0 -0.77320533222E+01  0.89640899991E+01 -0.38364359956E+01  0.12444187378E+02  0.51100000000E-03 0.  1.
        -12    1    3    3    0    0 -0.35238188365E+00 -0.12758077592E+02  0.61078018148E+01  0.14149132830E+02  0.00000000000E+00 0.  1.
</event>
<event>
 7    1  0.6198176E-013  0.5930194E+02  0.7816164E-02  0.1266605E+00
        -11   -1    0    0    0    0  0.00000000000E+00  0.00000000000E+00  0.45593999997E+02  0.45594000000E+02  0.51100000000E-03 0.  1.
         11   -1    0    0    0    0 -0.00000000000E+00 -0.00000000000E+00 -0.45593999997E+02  0.45594000000E+02  0.51100000000E-03 0. -1.
    9900012    2    1    2    0    0 -0.11230100853E+02 -0.25874449673E+02  0.14870062036E+02  0.59301936336E+02  0.49999985971E+02 0.  0.
        -12    1    1    2    0    0  0.11230100853E+02  0.25874449673E+02 -0.14870062036E+02  0.31886063664E+02  0.00000000000E+00 0.  1.
         11    1    3    3    0    0 -0.11323445362E+02  0.67095717657E+00  0.20822559484E+02  0.23711802591E+02  0.51100000000E-03 0. -1.
        -11    1    3    3    0    0  0.53521138457E+01  0.12677523264E+00 -0.64722899634E+01  0.83995078551E+01  0.51100000000E-03 0.  1.
         12    1    3    3    0    0 -0.52587693366E+01 -0.26672182083E+02  0.51979251476E+00  0.27190625889E+02  0.00000000000E+00 0. -1.
</event>
<event>
 7    1  0.6198176E-013  0.5930192E+02  0.7816164E-02  0.1266605E+00
        -11   -1    0    0    0    0  0.00000000000E+00  0.00000000000E+00  0.45593999997E+02  0.45594000000E+02  0.51100000000E-03 0. -1.
         11   -1    0    0    0    0 -0.00000000000E+00 -0.00000000000E+00 -0.45593999997E+02  0.45594000000E+02  0.51100000000E-03 0.  1.
    9900012    2    1    2    0    0  0.12219337468E+02  0.28685156927E+02 -0.66761857840E+01  0.59301923215E+02  0.49999962043E+02 0.  0.
        -12    1    1    2    0    0 -0.12219337468E+02 -0.28685156927E+02  0.66761857840E+01  0.31886076785E+02  0.00000000000E+00 0.  1.
         11    1    3    3    0    0  0.38890501397E+01 -0.31937265986E+00 -0.18422684754E+02  0.18831410560E+02  0.51100000000E-03 0. -1.
        -11    1    3    3    0    0 -0.72162615842E-01  0.10110851388E+02 -0.72099360396E+01  0.12418441979E+02  0.51100000000E-03 0.  1.
         12    1    3    3    0    0  0.84024499444E+01  0.18893678199E+02  0.18956435009E+02  0.28052070676E+02  0.00000000000E+00 0. -1.
</event>
<event>
 7    1  0.6198176E-013  0.5930194E+02  0.7816164E-02  0.1266605E+00
        -11   -1    0    0    0    0  0.00000000000E+00  0.00000000000E+00  0.45593999997E+02  0.45594000000E+02  0.51100000000E-03 0.  1.
         11   -1    0    0    0    0 -0.00000000000E+00 -0.00000000000E+00 -0.45593999997E+02  0.45594000000E+02  0.51100000000E-03 0. -1.
    9900012    2    1    2    0    0  0.10693764691E+02 -0.25163828396E+02 -0.16405662595E+02  0.59301943047E+02  0.49999998212E+02 0.  0.
        -12    1    1    2    0    0 -0.10693764691E+02  0.25163828396E+02  0.16405662595E+02  0.31886056953E+02  0.00000000000E+00 0.  1.
         11    1    3    3    0    0  0.28648782940E+01  0.13236474720E+02 -0.12707923875E+02  0.18571567519E+02  0.51100000000E-03 0. -1.
        -11    1    3    3    0    0 -0.40372067670E+00 -0.15830587656E+02  0.22130216652E+01  0.15989620417E+02  0.51100000000E-03 0.  1.
        -12    1    3    3    0    0  0.82326070741E+01 -0.22569715459E+02 -0.59107603852E+01  0.24740755111E+02  0.00000000000E+00 0.  1.
</event>
<event>
 7    1  0.6198176E-013  0.5930195E+02  0.7816164E-02  0.1266605E+00
        -11   -1    0    0    0    0  0.00000000000E+00  0.00000000000E+00  0.45593999997E+02  0.45594000000E+02  0.51100000000E-03 0. -1.
         11   -1    0    0    0    0 -0.00000000000E+00 -0.00000000000E+00 -0.45593999997E+02  0.45594000000E+02  0.51100000000E-03 0.  1.
    9900012    2    1    2    0    0 -0.54433288701E+01 -0.29145750819E+02 -0.11730957535E+02  0.59301953135E+02  0.50000016610E+02 0.  0.
        -12    1    1    2    0    0  0.54433288701E+01  0.29145750819E+02  0.11730957535E+02  0.31886046865E+02  0.00000000000E+00 0.  1.
         11    1    3    3    0    0  0.25409445832E+01 -0.25740185541E+02 -0.56672552688E+01  0.26478884675E+02  0.51100000000E-03 0. -1.
        -11    1    3    3    0    0 -0.80432154345E+01 -0.44047903135E+01 -0.18340595907E+02  0.20505437101E+02  0.51100000000E-03 0.  1.
         12    1    3    3    0    0  0.58941981221E-01  0.99922503602E+00  0.12276893641E+02  0.12317631359E+02  0.00000000000E+00 0. -1.
</event>
<event>
 7    1  0.6198176E-013  0.5930194E+02  0.7816164E-02  0.1266605E+00
        -11   -1    0    0    0    0  0.00000000000E+00  0.00000000000E+00  0.45593999997E+02  0.45594000000E+02  0.51100000000E-03 0. -1.
         11   -1    0    0    0    0 -0.00000000000E+00 -0.00000000000E+00 -0.45593999997E+02  0.45594000000E+02  0.51100000000E-03 0.  1.
    9900012    2    1    2    0    0  0.13012601530E+02 -0.26662579520E+02  0.11683312069E+02  0.59301941508E+02  0.49999995405E+02 0.  0.
        -12    1    1    2    0    0 -0.13012601530E+02  0.26662579520E+02 -0.11683312069E+02  0.31886058492E+02  0.00000000000E+00 0.  1.
         11    1    3    3    0    0  0.60791300298E+01 -0.14079442433E+02  0.23543505613E+02  0.28097743289E+02  0.51100000000E-03 0. -1.
        -11    1    3    3    0    0 -0.52726613925E+01 -0.10985237921E+02  0.23433349560E+01  0.12408369325E+02  0.51100000000E-03 0.  1.
        -12    1    3    3    0    0  0.12206132893E+02 -0.15978991661E+01 -0.14203528500E+02  0.18795828893E+02  0.00000000000E+00 0.  1.
</event>
<event>
 7    1  0.6198176E-013  0.5930195E+02  0.7816164E-02  0.1266605E+00
        -11   -1    0    0    0    0  0.00000000000E+00  0.00000000000E+00  0.45593999997E+02  0.45594000000E+02  0.51100000000E-03 0. -1.
         11   -1    0    0    0    0 -0.00000000000E+00 -0.00000000000E+00 -0.45593999997E+02  0.45594000000E+02  0.51100000000E-03 0.  1.
    9900012    2    1    2    0    0  0.20181017191E+02 -0.15616191677E+02  0.19120186578E+02  0.59301946118E+02  0.50000003813E+02 0.  0.
        -12    1    1    2    0    0 -0.20181017191E+02  0.15616191677E+02 -0.19120186578E+02  0.31886053882E+02  0.00000000000E+00 0.  1.
         11    1    3    3    0    0 -0.56225557580E+01 -0.41659295125E+01  0.14850348117E+02  0.16416483832E+02  0.51100000000E-03 0. -1.
        -11    1    3    3    0    0 -0.54693673274E+01 -0.48545949853E+01 -0.58453208280E+01  0.93620963078E+01  0.51100000000E-03 0.  1.
         12    1    3    3    0    0  0.31272940277E+02 -0.65956671791E+01  0.10115159290E+02  0.33523365979E+02  0.00000000000E+00 0. -1.
</event>
<event>
 7    1  0.6198176E-013  0.5930195E+02  0.7816164E-02  0.1266605E+00
        -11   -1    0    0    0    0  0.00000000000E+00  0.00000000000E+00  0.45593999997E+02  0.45594000000E+02  0.51100000000E-03 0.  1.
         11   -1    0    0    0    0 -0.00000000000E+00 -0.00000000000E+00 -0.45593999997E+02  0.45594000000E+02  0.51100000000E-03 0. -1.
    9900012    2    1    2    0    0  0.82933058537E+01  0.16786468988E+02 -0.25809994523E+02  0.59301948499E+02  0.50000008155E+02 0.  0.
        -12    1    1    2    0    0 -0.82933058537E+01 -0.16786468988E+02  0.25809994523E+02  0.31886051501E+02  0.00000000000E+00 0.  1.
         11    1    3    3    0    0 -0.14595888608E+02 -0.68745747285E+00 -0.10933954506E+02  0.18250038999E+02  0.51100000000E-03 0.  1.
        -11    1    3    3    0    0 -0.39607059109E+01  0.93112342421E+01 -0.27859888550E+01  0.10495142142E+02  0.51100000000E-03 0. -1.
         12    1    3    3    0    0  0.26849900373E+02  0.81626922186E+01 -0.12090051162E+02  0.30556767358E+02  0.00000000000E+00 0. -1.
</event>
<event>
 7    1  0.6198176E-013  0.5930200E+02  0.7816164E-02  0.1266605E+00
        -11   -1    0    0    0    0  0.00000000000E+00  0.00000000000E+00  0.45593999997E+02  0.45594000000E+02  0.51100000000E-03 0. -1.
         11   -1    0    0    0    0 -0.00000000000E+00 -0.00000000000E+00 -0.45593999997E+02  0.45594000000E+02  0.51100000000E-03 0.  1.
    9900012    2    1    2    0    0 -0.14590655000E+02  0.21339991098E+02  0.18666400305E+02  0.59302000976E+02  0.50000103860E+02 0.  0.
        -12    1    1    2    0    0  0.14590655000E+02 -0.21339991098E+02 -0.18666400305E+02  0.31885999024E+02  0.00000000000E+00 0.  1.
         11    1    3    3    0    0 -0.80778689970E+01 -0.27527243789E+01 -0.32020669821E+01  0.91149707766E+01  0.51100000000E-03 0. -1.
        -11    1    3    3    0    0  0.14128017433E+02  0.17797389901E+01  0.34693807553E+01  0.14656225658E+02  0.51100000000E-03 0.  1.
         12    1    3    3    0    0 -0.20640803436E+02  0.22312976487E+02  0.18399086531E+02  0.35530804542E+02  0.00000000000E+00 0. -1.
</event>
<event>
 7    1  0.6198176E-013  0.5930195E+02  0.7816164E-02  0.1266605E+00
        -11   -1    0    0    0    0  0.00000000000E+00  0.00000000000E+00  0.45593999997E+02  0.45594000000E+02  0.51100000000E-03 0.  1.
         11   -1    0    0    0    0 -0.00000000000E+00 -0.00000000000E+00 -0.45593999997E+02  0.45594000000E+02  0.51100000000E-03 0. -1.
    9900012    2    1    2    0    0 -0.30739331469E+02  0.75876056929E+01 -0.37738847023E+01  0.59301945602E+02  0.50000002872E+02 0.  0.
        -12    1    1    2    0    0  0.30739331469E+02 -0.75876056929E+01  0.37738847023E+01  0.31886054398E+02  0.00000000000E+00 0.  1.
         11    1    3    3    0    0 -0.46127336773E+01  0.11377161637E+02  0.21839900171E+01  0.12469439905E+02  0.51100000000E-03 0. -1.
        -11    1    3    3    0    0 -0.26947746251E+02  0.12424314873E+02 -0.72490941009E+01  0.30546587266E+02  0.51100000000E-03 0.  1.
        -12    1    3    3    0    0  0.82114845948E+00 -0.16213870817E+02  0.12912193815E+01  0.16285918431E+02  0.00000000000E+00 0.  1.
</event>
<event>
 7    1  0.6198176E-013  0.5930195E+02  0.7816164E-02  0.1266605E+00
        -11   -1    0    0    0    0  0.00000000000E+00  0.00000000000E+00  0.45593999997E+02  0.45594000000E+02  0.51100000000E-03 0.  1.
         11   -1    0    0    0    0 -0.00000000000E+00 -0.00000000000E+00 -0.45593999997E+02  0.45594000000E+02  0.51100000000E-03 0. -1.
    9900012    2    1    2    0    0  0.49550891201E+01 -0.10582708794E+01 -0.31480901011E+02  0.59301953304E+02  0.50000016917E+02 0.  0.
        -12    1    1    2    0    0 -0.49550891201E+01  0.10582708794E+01  0.31480901011E+02  0.31886046696E+02  0.00000000000E+00 0.  1.
         11    1    3    3    0    0 -0.27461859368E+01  0.28682237118E+01  0.34095851853E+01  0.52338815288E+01  0.51100000000E-03 0. -1.
        -11    1    3    3    0    0  0.16454595494E+02  0.11190467620E+02 -0.68762323650E+01  0.21053808449E+02  0.51100000000E-03 0.  1.
         12    1    3    3    0    0 -0.87533204373E+01 -0.15116962211E+02 -0.28014253832E+02  0.33014263325E+02  0.00000000000E+00 0. -1.
</event>
<event>
 7    1  0.6198176E-013  0.5930198E+02  0.7816164E-02  0.1266605E+00
        -11   -1    0    0    0    0  0.00000000000E+00  0.00000000000E+00  0.45593999997E+02  0.45594000000E+02  0.51100000000E-03 0. -1.
         11   -1    0    0    0    0 -0.00000000000E+00 -0.00000000000E+00 -0.45593999997E+02  0.45594000000E+02  0.51100000000E-03 0.  1.
    9900012    2    1    2    0    0  0.97048905620E+00  0.17190353515E+02  0.26837808893E+02  0.59301982858E+02  0.50000070818E+02 0.  0.
        -12    1    1    2    0    0 -0.97048905620E+00 -0.17190353515E+02 -0.26837808893E+02  0.31886017142E+02  0.00000000000E+00 0.  1.
         11    1    3    3    0    0  0.12110585543E+01  0.17128415675E+02  0.11955594609E+02  0.20923325000E+02  0.51100000000E-03 0. -1.
        -11    1    3    3    0    0 -0.12682468658E+01  0.44179268624E+01 -0.11099883146E+02  0.12013905859E+02  0.51100000000E-03 0.  1.
         12    1    3    3    0    0  0.10276773677E+01 -0.43559890223E+01  0.25982097430E+02  0.26364751999E+02  0.00000000000E+00 0. -1.
</event>
<event>
 7    1  0.6198176E-013  0.5930199E+02  0.7816164E-02  0.1266605E+00
        -11   -1    0    0    0    0  0.00000000000E+00  0.00000000000E+00  0.45593999997E+02  0.45594000000E+02  0.51100000000E-03 0. -1.
         11   -1    0    0    0    0 -0.00000000000E+00 -0.00000000000E+00 -0.45593999997E+02  0.45594000000E+02  0.51100000000E-03 0.  1.
    9900012    2    1    2    0    0 -0.15825463194E+02  0.13121946531E+02  0.24373891882E+02  0.59301994111E+02  0.50000091340E+02 0.  0.
        -12    1    1    2    0    0  0.15825463194E+02 -0.13121946531E+02 -0.24373891882E+02  0.31886005889E+02  0.00000000000E+00 0.  1.
         11    1    3    3    0    0  0.12501607700E+02  0.82596416865E+01  0.10645764869E+02  0.18380538234E+02  0.51100000000E-03 0. -1.
        -11    1    3    3    0    0  0.34817396418E+01  0.18152963411E+00 -0.30707383424E+01  0.46459550332E+01  0.51100000000E-03 0.  1.
         12    1    3    3    0    0 -0.31808810535E+02  0.46807752103E+01  0.16798865355E+02  0.36275500844E+02  0.00000000000E+00 0. -1.
</event>
<event>
 7    1  0.6198176E-013  0.5930193E+02  0.7816164E-02  0.1266605E+00
        -11   -1    0    0    0    0  0.00000000000E+00  0.00000000000E+00  0.45593999997E+02  0.45594000000E+02  0.51100000000E-03 0.  1.
         11   -1    0    0    0    0 -0.00000000000E+00 -0.00000000000E+00 -0.45593999997E+02  0.45594000000E+02  0.51100000000E-03 0. -1.
    9900012    2    1    2    0    0 -0.15552397165E+02  0.18769780921E+02 -0.20555778857E+02  0.59301925017E+02  0.49999965330E+02 0.  0.
        -12    1    1    2    0    0  0.15552397165E+02 -0.18769780921E+02  0.20555778857E+02  0.31886074983E+02  0.00000000000E+00 0.  1.
         11    1    3    3    0    0 -0.19652444447E+01 -0.17158361657E+01  0.12883323245E+01  0.29096528856E+01  0.51100000000E-03 0. -1.
        -11    1    3    3    0    0 -0.10445936335E+02  0.29213440187E+01  0.13189400001E+02  0.17076653930E+02  0.51100000000E-03 0.  1.
         12    1    3    3    0    0 -0.31412163850E+01  0.17564273068E+02 -0.35033511183E+02  0.39315618201E+02  0.00000000000E+00 0. -1.
</event>
<event>
 7    1  0.6198176E-013  0.5930191E+02  0.7816164E-02  0.1266605E+00
        -11   -1    0    0    0    0  0.00000000000E+00  0.00000000000E+00  0.45593999997E+02  0.45594000000E+02  0.51100000000E-03 0. -1.
         11   -1    0    0    0    0 -0.00000000000E+00 -0.00000000000E+00 -0.45593999997E+02  0.45594000000E+02  0.51100000000E-03 0.  1.
    9900012    2    1    2    0    0 -0.17502266102E+02  0.26481213150E+02 -0.30229963115E+01  0.59301914080E+02  0.49999945382E+02 0.  0.
        -12    1    1    2    0    0  0.17502266102E+02 -0.26481213150E+02  0.30229963115E+01  0.31886085920E+02  0.00000000000E+00 0.  1.
         11    1    3    3    0    0 -0.28055012268E+02  0.30317758364E+01 -0.15191606727E+01  0.28259214913E+02  0.51100000000E-03 0. -1.
        -11    1    3    3    0    0 -0.31892927636E+01  0.13804677740E+02  0.18169697284E+00  0.14169464700E+02  0.51100000000E-03 0.  1.
        -12    1    3    3    0    0  0.13742038930E+02  0.96447595739E+01 -0.16855326116E+01  0.16873234467E+02  0.00000000000E+00 0.  1.
</event>
<event>
 7    1  0.6198176E-013  0.5930192E+02  0.7816164E-02  0.1266605E+00
        -11   -1    0    0    0    0  0.00000000000E+00  0.00000000000E+00  0.45593999997E+02  0.45594000000E+02  0.51100000000E-03 0.  1.
         11   -1    0    0    0    0 -0.00000000000E+00 -0.00000000000E+00 -0.45593999997E+02  0.45594000000E+02  0.51100000000E-03 0. -1.
    9900012    2    1    2    0    0  0.21559306677E+02 -0.15137796981E+02 -0.17965681404E+02  0.59301916670E+02  0.49999950105E+02 0.  0.
        -12    1    1    2    0    0 -0.21559306677E+02  0.15137796981E+02  0.17965681404E+02  0.31886083330E+02  0.00000000000E+00 0.  1.
         11    1    3    3    0    0  0.16546031813E+02 -0.14912448007E+02 -0.18517056916E+02  0.28966077943E+02  0.51100000000E-03 0. -1.
        -11    1    3    3    0    0 -0.17219151994E+01 -0.36532366487E+01 -0.13657532497E+02  0.14242167115E+02  0.51100000000E-03 0.  1.
        -12    1    3    3    0    0  0.67351900634E+01  0.34278876739E+01  0.14208908010E+02  0.16093671611E+02  0.00000000000E+00 0.  1.
</event>
<event>
 7    1  0.6198176E-013  0.5930197E+02  0.7816164E-02  0.1266605E+00
        -11   -1    0    0    0    0  0.00000000000E+00  0.00000000000E+00  0.45593999997E+02  0.45594000000E+02  0.51100000000E-03 0.  1.
         11   -1    0    0    0    0 -0.00000000000E+00 -0.00000000000E+00 -0.45593999997E+02  0.45594000000E+02  0.51100000000E-03 0. -1.
    9900012    2    1    2    0    0  0.19492521593E+02 -0.22521799896E+02 -0.11381090856E+02  0.59301967044E+02  0.50000041977E+02 0.  0.
        -12    1    1    2    0    0 -0.19492521593E+02  0.22521799896E+02  0.11381090856E+02  0.31886032956E+02  0.00000000000E+00 0.  1.
         11    1    3    3    0    0  0.17849368832E+02 -0.20078408627E+01 -0.18355725727E+01  0.18055490012E+02  0.51100000000E-03 0. -1.
        -11    1    3    3    0    0  0.88595894194E+01  0.71466650302E+01 -0.10854050741E+01  0.11434388929E+02  0.51100000000E-03 0.  1.
        -12    1    3    3    0    0 -0.72164366588E+01 -0.27660624063E+02 -0.84601132089E+01  0.29812088104E+02  0.00000000000E+00 0.  1.
</event>
<event>
 7    1  0.6198176E-013  0.5930195E+02  0.7816164E-02  0.1266605E+00
        -11   -1    0    0    0    0  0.00000000000E+00  0.00000000000E+00  0.45593999997E+02  0.45594000000E+02  0.51100000000E-03 0.  1.
         11   -1    0    0    0    0 -0.00000000000E+00 -0.00000000000E+00 -0.45593999997E+02  0.45594000000E+02  0.51100000000E-03 0. -1.
    9900012    2    1    2    0    0 -0.21684468269E+02  0.79794451469E+01 -0.21973449158E+02  0.59301950121E+02  0.50000011113E+02 0.  0.
        -12    1    1    2    0    0  0.21684468269E+02 -0.79794451469E+01  0.21973449158E+02  0.31886049879E+02  0.00000000000E+00 0.  1.
         11    1    3    3    0    0 -0.29320969779E+02  0.77523892832E+01 -0.10563762542E+02  0.32115601936E+02  0.51100000000E-03 0. -1.
        -11    1    3    3    0    0 -0.60943552879E+01  0.45925591564E+01 -0.10184501384E+02  0.12726226255E+02  0.51100000000E-03 0.  1.
        -12    1    3    3    0    0  0.13730856798E+02 -0.43655032927E+01 -0.12251852316E+01  0.14460121931E+02  0.00000000000E+00 0.  1.
</event>
<event>
 7    1  0.6198176E-013  0.5930188E+02  0.7816164E-02  0.1266605E+00
        -11   -1    0    0    0    0  0.00000000000E+00  0.00000000000E+00  0.45593999997E+02  0.45594000000E+02  0.51100000000E-03 0.  1.
         11   -1    0    0    0    0 -0.00000000000E+00 -0.00000000000E+00 -0.45593999997E+02  0.45594000000E+02  0.51100000000E-03 0. -1.
    9900012    2    1    2    0    0  0.19297061177E+02 -0.17292145879E+02  0.18583046567E+02  0.59301882349E+02  0.49999887513E+02 0.  0.
        -12    1    1    2    0    0 -0.19297061177E+02  0.17292145879E+02 -0.18583046567E+02  0.31886117651E+02  0.00000000000E+00 0.  1.
         11    1    3    3    0    0  0.11709322897E+02 -0.10195401006E+02  0.34256361891E+01  0.15899353067E+02  0.51100000000E-03 0. -1.
        -11    1    3    3    0    0  0.12225565956E+02 -0.15595657290E+02  0.23416755018E+02  0.30676267783E+02  0.51100000000E-03 0.  1.
         12    1    3    3    0    0 -0.46378276773E+01  0.84989124177E+01 -0.82593446403E+01  0.12726261499E+02  0.00000000000E+00 0. -1.
</event>
<event>
 7    1  0.6198176E-013  0.5930197E+02  0.7816164E-02  0.1266605E+00
        -11   -1    0    0    0    0  0.00000000000E+00  0.00000000000E+00  0.45593999997E+02  0.45594000000E+02  0.51100000000E-03 0.  1.
         11   -1    0    0    0    0 -0.00000000000E+00 -0.00000000000E+00 -0.45593999997E+02  0.45594000000E+02  0.51100000000E-03 0. -1.
    9900012    2    1    2    0    0 -0.14386096886E+02 -0.22305886873E+02 -0.17669369232E+02  0.59301968860E+02  0.50000045288E+02 0.  0.
        -12    1    1    2    0    0  0.14386096886E+02  0.22305886873E+02  0.17669369232E+02  0.31886031140E+02  0.00000000000E+00 0.  1.
         11    1    3    3    0    0 -0.32797873760E+01 -0.12874742404E+02 -0.71849154738E+00  0.13305345827E+02  0.51100000000E-03 0. -1.
        -11    1    3    3    0    0  0.30282699285E+01 -0.51762641046E+01  0.12047441934E+02  0.13457525265E+02  0.51100000000E-03 0.  1.
        -12    1    3    3    0    0 -0.14134579438E+02 -0.42548803642E+01 -0.28998319619E+02  0.32539097768E+02  0.00000000000E+00 0.  1.
</event>
<event>
 7    1  0.6198176E-013  0.5930194E+02  0.7816164E-02  0.1266605E+00
        -11   -1    0    0    0    0  0.00000000000E+00  0.00000000000E+00  0.45593999997E+02  0.45594000000E+02  0.51100000000E-03 0.  1.
         11   -1    0    0    0    0 -0.00000000000E+00 -0.00000000000E+00 -0.45593999997E+02  0.45594000000E+02  0.51100000000E-03 0. -1.
    9900012    2    1    2    0    0  0.43985914434E+01  0.28022528658E+02 -0.14564037837E+02  0.59301938512E+02  0.49999989941E+02 0.  0.
        -12    1    1    2    0    0 -0.43985914434E+01 -0.28022528658E+02  0.14564037837E+02  0.31886061488E+02  0.00000000000E+00 0.  1.
         11    1    3    3    0    0 -0.47822070550E+01  0.13057328272E+01 -0.38247916924E+01  0.62612677857E+01  0.51100000000E-03 0. -1.
        -11    1    3    3    0    0  0.90948986731E+01 -0.20569474136E+01 -0.20609661477E+02  0.22620927501E+02  0.51100000000E-03 0.  1.
        -12    1    3    3    0    0  0.85899825301E-01  0.28773743244E+02  0.98704153328E+01  0.30419743226E+02  0.00000000000E+00 0.  1.
</event>
<event>
 7    1  0.6198176E-013  0.5930193E+02  0.7816164E-02  0.1266605E+00
        -11   -1    0    0    0    0  0.00000000000E+00  0.00000000000E+00  0.45593999997E+02  0.45594000000E+02  0.51100000000E-03 0.  1.
         11   -1    0    0    0    0 -0.00000000000E+00 -0.00000000000E+00 -0.45593999997E+02  0.45594000000E+02  0.51100000000E-03 0. -1.
    9900012    2    1    2    0    0  0.11791004534E+02  0.27291247203E+02 -0.11527425955E+02  0.59301929202E+02  0.49999972961E+02 0.  0.
        -12    1    1    2    0    0 -0.11791004534E+02 -0.27291247203E+02  0.11527425955E+02  0.31886070798E+02  0.00000000000E+00 0.  1.
         11    1    3    3    0    0 -0.28257700775E+01  0.10652309757E+02 -0.40873669423E+01  0.11754286387E+02  0.51100000000E-03 0. -1.
        -11    1    3    3    0    0  0.23646132278E+02  0.24977215919E+02 -0.77341894406E+01  0.35253632059E+02  0.51100000000E-03 0.  1.
         12    1    3    3    0    0 -0.90293576663E+01 -0.83382784731E+01  0.29413042796E+00  0.12294010756E+02  0.00000000000E+00 0. -1.
</event>
<event>
 7    1  0.6198176E-013  0.5930201E+02  0.7816164E-02  0.1266605E+00
        -11   -1    0    0    0    0  0.00000000000E+00  0.00000000000E+00  0.45593999997E+02  0.45594000000E+02  0.51100000000E-03 0. -1.
         11   -1    0    0    0    0 -0.00000000000E+00 -0.00000000000E+00 -0.45593999997E+02  0.45594000000E+02  0.51100000000E-03 0.  1.
    9900012    2    1    2    0    0  0.27442303962E+02 -0.79975515366E+01  0.14130658107E+02  0.59302009724E+02  0.50000119814E+02 0.  0.
        -12    1    1    2    0    0 -0.27442303962E+02  0.79975515366E+01 -0.14130658107E+02  0.31885990276E+02  0.00000000000E+00 0.  1.
         11    1    3    3    0    0  0.16186531023E+01 -0.37897400477E+01 -0.23421416567E+01  0.47400206008E+01  0.51100000000E-03 0. -1.
        -11    1    3    3    0    0  0.22037213808E+02  0.59155243594E+01 -0.10786246302E+02  0.25238370202E+02  0.51100000000E-03 0.  1.
         12    1    3    3    0    0  0.37864370517E+01 -0.10123335848E+02  0.27259046066E+02  0.29323618922E+02  0.00000000000E+00 0. -1.
</event>
<event>
 7    1  0.6198176E-013  0.5930193E+02  0.7816164E-02  0.1266605E+00
        -11   -1    0    0    0    0  0.00000000000E+00  0.00000000000E+00  0.45593999997E+02  0.45594000000E+02  0.51100000000E-03 0.  1.
         11   -1    0    0    0    0 -0.00000000000E+00 -0.00000000000E+00 -0.45593999997E+02  0.45594000000E+02  0.51100000000E-03 0. -1.
    9900012    2    1    2    0    0  0.19086500622E+02  0.10154016275E+02 -0.23437640471E+02  0.59301928694E+02  0.49999972034E+02 0.  0.
        -12    1    1    2    0    0 -0.19086500622E+02 -0.10154016275E+02  0.23437640471E+02  0.31886071306E+02  0.00000000000E+00 0.  1.
         11    1    3    3    0    0 -0.73223993859E+01  0.38121263207E+01 -0.52777204473E+01  0.97981719332E+01  0.51100000000E-03 0. -1.
        -11    1    3    3    0    0  0.14187936337E+02 -0.12192119403E+02 -0.19804205644E+02  0.27242464545E+02  0.51100000000E-03 0.  1.
         12    1    3    3    0    0  0.12220963671E+02  0.18534009357E+02  0.16442856200E+01  0.22261292216E+02  0.00000000000E+00 0. -1.
</event>
<event>
 7    1  0.6198176E-013  0.5930196E+02  0.7816164E-02  0.1266605E+00
        -11   -1    0    0    0    0  0.00000000000E+00  0.00000000000E+00  0.45593999997E+02  0.45594000000E+02  0.51100000000E-03 0.  1.
         11   -1    0    0    0    0 -0.00000000000E+00 -0.00000000000E+00 -0.45593999997E+02  0.45594000000E+02  0.51100000000E-03 0. -1.
    9900012    2    1    2    0    0  0.16461095509E+02  0.25999246798E+02 -0.83540884001E+01  0.59301963990E+02  0.50000036407E+02 0.  0.
        -12    1    1    2    0    0 -0.16461095509E+02 -0.25999246798E+02  0.83540884001E+01  0.31886036010E+02  0.00000000000E+00 0.  1.
         11    1    3    3    0    0  0.20137516138E+02  0.53107863598E+01 -0.14401618183E+02  0.25320557152E+02  0.51100000000E-03 0. -1.
        -11    1    3    3    0    0  0.99869332786E+01  0.18596514807E+01  0.13497315547E+01  0.10247873705E+02  0.51100000000E-03 0.  1.
         12    1    3    3    0    0 -0.13663353908E+02  0.18828808958E+02  0.46977982282E+01  0.23733533133E+02  0.00000000000E+00 0. -1.
</event>
<event>
 7    1  0.6198176E-013  0.5930199E+02  0.7816164E-02  0.1266605E+00
        -11   -1    0    0    0    0  0.00000000000E+00  0.00000000000E+00  0.45593999997E+02  0.45594000000E+02  0.51100000000E-03 0. -1.
         11   -1    0    0    0    0 -0.00000000000E+00 -0.00000000000E+00 -0.45593999997E+02  0.45594000000E+02  0.51100000000E-03 0.  1.
    9900012    2    1    2    0    0  0.26122128196E+02 -0.16363497988E+02 -0.81601491510E+01  0.59301989242E+02  0.50000082461E+02 0.  0.
        -12    1    1    2    0    0 -0.26122128196E+02  0.16363497988E+02  0.81601491510E+01  0.31886010758E+02  0.00000000000E+00 0.  1.
         11    1    3    3    0    0  0.10984914004E+02 -0.68631371819E+01 -0.84663771579E+01  0.15474189158E+02  0.51100000000E-03 0. -1.
        -11    1    3    3    0    0  0.20811622625E+02 -0.11208092384E+02  0.14992259269E+02  0.27991298816E+02  0.51100000000E-03 0.  1.
        -12    1    3    3    0    0 -0.56744084327E+01  0.17077315782E+01 -0.14686031262E+02  0.15836501269E+02  0.00000000000E+00 0.  1.
</event>
<event>
 7    1  0.6198176E-013  0.5930194E+02  0.7816164E-02  0.1266605E+00
        -11   -1    0    0    0    0  0.00000000000E+00  0.00000000000E+00  0.45593999997E+02  0.45594000000E+02  0.51100000000E-03 0.  1.
         11   -1    0    0    0    0 -0.00000000000E+00 -0.00000000000E+00 -0.45593999997E+02  0.45594000000E+02  0.51100000000E-03 0. -1.
    9900012    2    1    2    0    0 -0.51206717782E+01  0.30556545965E+02 -0.75363802888E+01  0.59301940215E+02  0.49999993047E+02 0.  0.
        -12    1    1    2    0    0  0.51206717782E+01 -0.30556545965E+02  0.75363802888E+01  0.31886059785E+02  0.00000000000E+00 0.  1.
         11    1    3    3    0    0 -0.16067082113E+02  0.33660388140E+01 -0.10532180361E+01  0.16449638702E+02  0.51100000000E-03 0. -1.
        -11    1    3    3    0    0 -0.23797912432E+01 -0.60719323441E+01 -0.12309064217E+01  0.66367838320E+01  0.51100000000E-03 0.  1.
         12    1    3    3    0    0  0.13326201578E+02  0.33262439495E+02 -0.52522558309E+01  0.36215517682E+02  0.00000000000E+00 0. -1.
</event>
<event>
 7    1  0.6198176E-013  0.5930198E+02  0.7816164E-02  0.1266605E+00
        -11   -1    0    0    0    0  0.00000000000E+00  0.00000000000E+00  0.45593999997E+02  0.45594000000E+02  0.51100000000E-03 0.  1.
         11   -1    0    0    0    0 -0.00000000000E+00 -0.00000000000E+00 -0.45593999997E+02  0.45594000000E+02  0.51100000000E-03 0. -1.
    9900012    2    1    2    0    0  0.18235447712E+02 -0.25868558801E+02 -0.38735285333E+01  0.59301982516E+02  0.50000070194E+02 0.  0.
        -12    1    1    2    0    0 -0.18235447712E+02  0.25868558801E+02  0.38735285333E+01  0.31886017484E+02  0.00000000000E+00 0.  1.
         11    1    3    3    0    0 -0.10620304263E+02  0.32589497187E+01 -0.30739475488E+01  0.11526524615E+02  0.51100000000E-03 0. -1.
        -11    1    3    3    0    0 -0.40392906712E+01 -0.16794219306E+01 -0.22278518976E+01  0.49091395872E+01  0.51100000000E-03 0.  1.
        -12    1    3    3    0    0  0.32895042645E+02 -0.27448086589E+02  0.14282709131E+01  0.42866318314E+02  0.00000000000E+00 0.  1.
</event>
<event>
 7    1  0.6198176E-013  0.5930195E+02  0.7816164E-02  0.1266605E+00
        -11   -1    0    0    0    0  0.00000000000E+00  0.00000000000E+00  0.45593999997E+02  0.45594000000E+02  0.51100000000E-03 0.  1.
         11   -1    0    0    0    0 -0.00000000000E+00 -0.00000000000E+00 -0.45593999997E+02  0.45594000000E+02  0.51100000000E-03 0. -1.
    9900012    2    1    2    0    0  0.19961235677E+02  0.15089892350E+02 -0.19762702389E+02  0.59301949969E+02  0.50000010835E+02 0.  0.
        -12    1    1    2    0    0 -0.19961235677E+02 -0.15089892350E+02  0.19762702389E+02  0.31886050031E+02  0.00000000000E+00 0.  1.
         11    1    3    3    0    0  0.94506403917E+01 -0.11312452145E+02  0.39674487332E+01  0.15265216246E+02  0.51100000000E-03 0. -1.
        -11    1    3    3    0    0 -0.46377090477E+01  0.35583098657E+01  0.22565956262E+01  0.62659507173E+01  0.51100000000E-03 0.  1.
         12    1    3    3    0    0  0.15148304333E+02  0.22844034628E+02 -0.25986746748E+02  0.37770783005E+02  0.00000000000E+00 0. -1.
</event>
<event>
 7    1  0.6198176E-013  0.5930198E+02  0.7816164E-02  0.1266605E+00
        -11   -1    0    0    0    0  0.00000000000E+00  0.00000000000E+00  0.45593999997E+02  0.45594000000E+02  0.51100000000E-03 0.  1.
         11   -1    0    0    0    0 -0.00000000000E+00 -0.00000000000E+00 -0.45593999997E+02  0.45594000000E+02  0.51100000000E-03 0. -1.
    9900012    2    1    2    0    0  0.11690382673E+02 -0.25010774315E+02 -0.15953505851E+02  0.59301980684E+02  0.50000066852E+02 0.  0.
        -12    1    1    2    0    0 -0.11690382673E+02  0.25010774315E+02  0.15953505851E+02  0.31886019316E+02  0.00000000000E+00 0.  1.
         11    1    3    3    0    0 -0.54026934093E+01 -0.15584151890E+01  0.66700914640E-02  0.56229706319E+01  0.51100000000E-03 0. -1.
        -11    1    3    3    0    0  0.83729829129E+01  0.11586128914E+02 -0.23711494796E+00  0.14296903505E+02  0.51100000000E-03 0.  1.
        -12    1    3    3    0    0  0.87200931698E+01 -0.35038488040E+02 -0.15723060995E+02  0.39382106547E+02  0.00000000000E+00 0.  1.
</event>
<event>
 7    1  0.6198176E-013  0.5930194E+02  0.7816164E-02  0.1266605E+00
        -11   -1    0    0    0    0  0.00000000000E+00  0.00000000000E+00  0.45593999997E+02  0.45594000000E+02  0.51100000000E-03 0. -1.
         11   -1    0    0    0    0 -0.00000000000E+00 -0.00000000000E+00 -0.45593999997E+02  0.45594000000E+02  0.51100000000E-03 0.  1.
    9900012    2    1    2    0    0 -0.17892984742E+02 -0.52976836770E+01  0.25855302574E+02  0.59301936798E+02  0.49999986816E+02 0.  0.
        -12    1    1    2    0    0  0.17892984742E+02  0.52976836770E+01 -0.25855302574E+02  0.31886063202E+02  0.00000000000E+00 0.  1.
         11    1    3    3    0    0 -0.17548151134E+02 -0.90964776544E+01  0.35824215467E+02  0.40915253000E+02  0.51100000000E-03 0. -1.
        -11    1    3    3    0    0 -0.17856576121E+01  0.27904133679E+01  0.34908076167E+01  0.48125583580E+01  0.51100000000E-03 0.  1.
         12    1    3    3    0    0  0.14408240047E+01  0.10083806096E+01 -0.13459720510E+02  0.13574125440E+02  0.00000000000E+00 0. -1.
</event>
<event>
 7    1  0.6198176E-013  0.5930189E+02  0.7816164E-02  0.1266605E+00
        -11   -1    0    0    0    0  0.00000000000E+00  0.00000000000E+00  0.45593999997E+02  0.45594000000E+02  0.51100000000E-03 0.  1.
         11   -1    0    0    0    0 -0.00000000000E+00 -0.00000000000E+00 -0.45593999997E+02  0.45594000000E+02  0.51100000000E-03 0. -1.
    9900012    2    1    2    0    0  0.22403724039E+02 -0.22113446883E+02 -0.50786540806E+01  0.59301888429E+02  0.49999898601E+02 0.  0.
        -12    1    1    2    0    0 -0.22403724039E+02  0.22113446883E+02  0.50786540806E+01  0.31886111571E+02  0.00000000000E+00 0.  1.
         11    1    3    3    0    0  0.12149629154E+02 -0.15682112196E+02 -0.54864314007E+00  0.19845481629E+02  0.51100000000E-03 0. -1.
        -11    1    3    3    0    0  0.32057460137E+01 -0.19918255817E+02  0.58857090667E+01  0.21015596441E+02  0.51100000000E-03 0.  1.
         12    1    3    3    0    0  0.70483488721E+01  0.13486921131E+02 -0.10415720007E+02  0.18440810359E+02  0.00000000000E+00 0. -1.
</event>
<event>
 7    1  0.6198176E-013  0.5930194E+02  0.7816164E-02  0.1266605E+00
        -11   -1    0    0    0    0  0.00000000000E+00  0.00000000000E+00  0.45593999997E+02  0.45594000000E+02  0.51100000000E-03 0.  1.
         11   -1    0    0    0    0 -0.00000000000E+00 -0.00000000000E+00 -0.45593999997E+02  0.45594000000E+02  0.51100000000E-03 0. -1.
    9900012    2    1    2    0    0 -0.25355560513E+01 -0.19658308319E+02 -0.24976836883E+02  0.59301944879E+02  0.50000001553E+02 0.  0.
        -12    1    1    2    0    0  0.25355560513E+01  0.19658308319E+02  0.24976836883E+02  0.31886055121E+02  0.00000000000E+00 0.  1.
         11    1    3    3    0    0 -0.19304846225E+02  0.24452540772E+01 -0.13085681561E+02  0.23449763697E+02  0.51100000000E-03 0. -1.
        -11    1    3    3    0    0  0.53833575058E+01 -0.18971415988E+02 -0.13550606473E+02  0.23927266845E+02  0.51100000000E-03 0.  1.
        -12    1    3    3    0    0  0.11385932668E+02 -0.31321464080E+01  0.16594511505E+01  0.11924914337E+02  0.00000000000E+00 0.  1.
</event>
<event>
 7    1  0.6198176E-013  0.5930194E+02  0.7816164E-02  0.1266605E+00
        -11   -1    0    0    0    0  0.00000000000E+00  0.00000000000E+00  0.45593999997E+02  0.45594000000E+02  0.51100000000E-03 0.  1.
         11   -1    0    0    0    0 -0.00000000000E+00 -0.00000000000E+00 -0.45593999997E+02  0.45594000000E+02  0.51100000000E-03 0. -1.
    9900012    2    1    2    0    0  0.10549391057E+02  0.29121171542E+02  0.75755139791E+01  0.59301941985E+02  0.49999996275E+02 0.  0.
        -12    1    1    2    0    0 -0.10549391057E+02 -0.29121171542E+02 -0.75755139791E+01  0.31886058015E+02  0.00000000000E+00 0.  1.
         11    1    3    3    0    0 -0.42988744205E+01  0.10981494119E+02  0.14470406052E+01  0.11881391381E+02  0.51100000000E-03 0. -1.
        -11    1    3    3    0    0 -0.11590434164E+02 -0.41437998436E+01  0.32110075772E+01  0.12720841607E+02  0.51100000000E-03 0.  1.
         12    1    3    3    0    0  0.26438699642E+02  0.22283477266E+02  0.29174657967E+01  0.34699708998E+02  0.00000000000E+00 0. -1.
</event>
<event>
 7    1  0.6198176E-013  0.5930195E+02  0.7816164E-02  0.1266605E+00
        -11   -1    0    0    0    0  0.00000000000E+00  0.00000000000E+00  0.45593999997E+02  0.45594000000E+02  0.51100000000E-03 0. -1.
         11   -1    0    0    0    0 -0.00000000000E+00 -0.00000000000E+00 -0.45593999997E+02  0.45594000000E+02  0.51100000000E-03 0.  1.
    9900012    2    1    2    0    0  0.28321133490E+02 -0.14496495337E+02 -0.21178170696E+01  0.59301950882E+02  0.50000012500E+02 0.  0.
        -12    1    1    2    0    0 -0.28321133490E+02  0.14496495337E+02  0.21178170696E+01  0.31886049118E+02  0.00000000000E+00 0.  1.
         11    1    3    3    0    0  0.21899394476E+02  0.93578449082E+01  0.50542456726E+01  0.24345392569E+02  0.51100000000E-03 0.  1.
        -11    1    3    3    0    0  0.13917038707E+02 -0.69701336152E+01 -0.15242751708E+01  0.15639377994E+02  0.51100000000E-03 0. -1.
        -12    1    3    3    0    0 -0.74952996931E+01 -0.16884206631E+02 -0.56477875715E+01  0.19317180319E+02  0.00000000000E+00 0.  1.
</event>
<event>
 7    1  0.6198176E-013  0.5930193E+02  0.7816164E-02  0.1266605E+00
        -11   -1    0    0    0    0  0.00000000000E+00  0.00000000000E+00  0.45593999997E+02  0.45594000000E+02  0.51100000000E-03 0. -1.
         11   -1    0    0    0    0 -0.00000000000E+00 -0.00000000000E+00 -0.45593999997E+02  0.45594000000E+02  0.51100000000E-03 0.  1.
    9900012    2    1    2    0    0 -0.16063721201E+00 -0.18952532167E+02  0.25641713385E+02  0.59301925529E+02  0.49999966263E+02 0.  0.
        -12    1    1    2    0    0  0.16063721201E+00  0.18952532167E+02 -0.25641713385E+02  0.31886074471E+02  0.00000000000E+00 0.  1.
         11    1    3    3    0    0  0.98145676872E+00  0.14981482683E+01 -0.60267677266E+01  0.62872597461E+01  0.51100000000E-03 0.  1.
        -11    1    3    3    0    0 -0.12923590068E+02 -0.21780970498E+02  0.80292609241E+01  0.26568757730E+02  0.51100000000E-03 0. -1.
         12    1    3    3    0    0  0.11781496087E+02  0.13302900618E+01  0.23639220187E+02  0.26445908053E+02  0.00000000000E+00 0. -1.
</event>
<event>
 7    1  0.6198176E-013  0.5930197E+02  0.7816164E-02  0.1266605E+00
        -11   -1    0    0    0    0  0.00000000000E+00  0.00000000000E+00  0.45593999997E+02  0.45594000000E+02  0.51100000000E-03 0.  1.
         11   -1    0    0    0    0 -0.00000000000E+00 -0.00000000000E+00 -0.45593999997E+02  0.45594000000E+02  0.51100000000E-03 0. -1.
    9900012    2    1    2    0    0  0.17918929881E+02  0.25798159040E+02  0.54850757609E+01  0.59301966788E+02  0.50000041509E+02 0.  0.
        -12    1    1    2    0    0 -0.17918929881E+02 -0.25798159040E+02 -0.54850757609E+01  0.31886033212E+02  0.00000000000E+00 0.  1.
         11    1    3    3    0    0  0.85544359058E+01 -0.84501409659E+01 -0.80176875885E+01  0.14452216804E+02  0.51100000000E-03 0. -1.
        -11    1    3    3    0    0  0.29312816346E-01 -0.27652204961E+01 -0.22395617999E+01  0.35585026275E+01  0.51100000000E-03 0.  1.
        -12    1    3    3    0    0  0.93351811584E+01  0.37013520502E+02  0.15742325149E+02  0.41291247357E+02  0.00000000000E+00 0.  1.
</event>
<event>
 7    1  0.6198176E-013  0.5930211E+02  0.7816164E-02  0.1266604E+00
        -11   -1    0    0    0    0  0.00000000000E+00  0.00000000000E+00  0.45593999997E+02  0.45594000000E+02  0.51100000000E-03 0. -1.
         11   -1    0    0    0    0 -0.00000000000E+00 -0.00000000000E+00 -0.45593999997E+02  0.45594000000E+02  0.51100000000E-03 0.  1.
    9900012    2    1    2    0    0 -0.48552114317E+01 -0.31213016015E+02 -0.43456138067E+01  0.59302112743E+02  0.50000307696E+02 0.  0.
        -12    1    1    2    0    0  0.48552114317E+01  0.31213016015E+02  0.43456138067E+01  0.31885887257E+02  0.00000000000E+00 0.  1.
         11    1    3    3    0    0  0.12414346460E+02 -0.16072146187E+01  0.41820661388E+01  0.13198061005E+02  0.51100000000E-03 0. -1.
        -11    1    3    3    0    0 -0.43306026271E+01 -0.30924343239E+02 -0.13643856580E+01  0.31255890203E+02  0.51100000000E-03 0.  1.
         12    1    3    3    0    0 -0.12938955264E+02  0.13185418432E+01 -0.71632942875E+01  0.14848161535E+02  0.00000000000E+00 0. -1.
</event>
<event>
 7    1  0.6198176E-013  0.5930194E+02  0.7816164E-02  0.1266605E+00
        -11   -1    0    0    0    0  0.00000000000E+00  0.00000000000E+00  0.45593999997E+02  0.45594000000E+02  0.51100000000E-03 0.  1.
         11   -1    0    0    0    0 -0.00000000000E+00 -0.00000000000E+00 -0.45593999997E+02  0.45594000000E+02  0.51100000000E-03 0. -1.
    9900012    2    1    2    0    0  0.21232447250E+02  0.11999988636E+02 -0.20540308855E+02  0.59301939859E+02  0.49999992397E+02 0.  0.
        -12    1    1    2    0    0 -0.21232447250E+02 -0.11999988636E+02  0.20540308855E+02  0.31886060141E+02  0.00000000000E+00 0.  1.
         11    1    3    3    0    0  0.11088808880E+02 -0.14089705305E+02 -0.15776888987E+02  0.23882874708E+02  0.51100000000E-03 0. -1.
        -11    1    3    3    0    0  0.98636804975E+01  0.17908999193E+01 -0.48087533702E+01  0.11118616133E+02  0.51100000000E-03 0.  1.
        -12    1    3    3    0    0  0.27995787209E+00  0.24298794022E+02  0.45333501738E-01  0.24300449017E+02  0.00000000000E+00 0.  1.
</event>
<event>
 7    1  0.6198176E-013  0.5930197E+02  0.7816164E-02  0.1266605E+00
        -11   -1    0    0    0    0  0.00000000000E+00  0.00000000000E+00  0.45593999997E+02  0.45594000000E+02  0.51100000000E-03 0. -1.
         11   -1    0    0    0    0 -0.00000000000E+00 -0.00000000000E+00 -0.45593999997E+02  0.45594000000E+02  0.51100000000E-03 0.  1.
    9900012    2    1    2    0    0  0.30631166007E+02 -0.85075754116E+01 -0.24640626055E+01  0.59301972106E+02  0.50000051208E+02 0.  0.
        -12    1    1    2    0    0 -0.30631166007E+02  0.85075754116E+01  0.24640626055E+01  0.31886027894E+02  0.00000000000E+00 0.  1.
         11    1    3    3    0    0  0.14008998868E+02 -0.94053897243E+01 -0.21135018234E+01  0.17005301978E+02  0.51100000000E-03 0. -1.
        -11    1    3    3    0    0  0.29200572659E+01 -0.10400489668E+02 -0.15541102261E+02  0.18926774145E+02  0.51100000000E-03 0.  1.
        -12    1    3    3    0    0  0.13702109873E+02  0.11298303981E+02  0.15190541479E+02  0.23369895983E+02  0.00000000000E+00 0.  1.
</event>
<event>
 7    1  0.6198176E-013  0.5930194E+02  0.7816164E-02  0.1266605E+00
        -11   -1    0    0    0    0  0.00000000000E+00  0.00000000000E+00  0.45593999997E+02  0.45594000000E+02  0.51100000000E-03 0.  1.
         11   -1    0    0    0    0 -0.00000000000E+00 -0.00000000000E+00 -0.45593999997E+02  0.45594000000E+02  0.51100000000E-03 0. -1.
    9900012    2    1    2    0    0  0.13932744318E+02  0.23435020860E+02 -0.16534780986E+02  0.59301944283E+02  0.50000000466E+02 0.  0.
        -12    1    1    2    0    0 -0.13932744318E+02 -0.23435020860E+02  0.16534780986E+02  0.31886055717E+02  0.00000000000E+00 0.  1.
         11    1    3    3    0    0 -0.23589020643E+01  0.23291633422E+02 -0.82053460442E+01  0.24807102015E+02  0.51100000000E-03 0. -1.
        -11    1    3    3    0    0  0.81187924131E+01  0.95837316487E+01  0.72706234697E+01  0.14512913851E+02  0.51100000000E-03 0.  1.
         12    1    3    3    0    0  0.81728539687E+01 -0.94403442107E+01 -0.15600058412E+02  0.19981928417E+02  0.00000000000E+00 0. -1.
</event>
<event>
 7    1  0.6198176E-013  0.5930194E+02  0.7816164E-02  0.1266605E+00
        -11   -1    0    0    0    0  0.00000000000E+00  0.00000000000E+00  0.45593999997E+02  0.45594000000E+02  0.51100000000E-03 0. -1.
         11   -1    0    0    0    0 -0.00000000000E+00 -0.00000000000E+00 -0.45593999997E+02  0.45594000000E+02  0.51100000000E-03 0.  1.
    9900012    2    1    2    0    0 -0.21845862016E+02  0.21526683187E+02  0.87224373057E+01  0.59301942093E+02  0.49999996472E+02 0.  0.
        -12    1    1    2    0    0  0.21845862016E+02 -0.21526683187E+02 -0.87224373057E+01  0.31886057907E+02  0.00000000000E+00 0.  1.
         11    1    3    3    0    0 -0.10344114803E+02 -0.35248993248E+01  0.14907517969E+02  0.18484039563E+02  0.51100000000E-03 0. -1.
        -11    1    3    3    0    0  0.52995572416E+01  0.12684693492E+02  0.77007577452E+01  0.15757170623E+02  0.51100000000E-03 0.  1.
        -12    1    3    3    0    0 -0.16801304455E+02  0.12366889020E+02 -0.13885838408E+02  0.25060731907E+02  0.00000000000E+00 0.  1.
</event>
<event>
 7    1  0.6198176E-013  0.5930195E+02  0.7816164E-02  0.1266605E+00
        -11   -1    0    0    0    0  0.00000000000E+00  0.00000000000E+00  0.45593999997E+02  0.45594000000E+02  0.51100000000E-03 0.  1.
         11   -1    0    0    0    0 -0.00000000000E+00 -0.00000000000E+00 -0.45593999997E+02  0.45594000000E+02  0.51100000000E-03 0. -1.
    9900012    2    1    2    0    0 -0.10673793619E+02 -0.20123167413E+02 -0.22312517335E+02  0.59301950280E+02  0.50000011403E+02 0.  0.
        -12    1    1    2    0    0  0.10673793619E+02  0.20123167413E+02  0.22312517335E+02  0.31886049720E+02  0.00000000000E+00 0.  1.
         11    1    3    3    0    0  0.45819141038E+01  0.67275779628E+01  0.73288095128E+00  0.81725979254E+01  0.51100000000E-03 0. -1.
        -11    1    3    3    0    0  0.25623238608E+01 -0.17916818863E+02  0.29854112271E+01  0.18343679625E+02  0.51100000000E-03 0.  1.
         12    1    3    3    0    0 -0.17818031583E+02 -0.89339265131E+01 -0.26030809513E+02  0.32785672730E+02  0.00000000000E+00 0. -1.
</event>
<event>
 7    1  0.6198176E-013  0.5930196E+02  0.7816164E-02  0.1266605E+00
        -11   -1    0    0    0    0  0.00000000000E+00  0.00000000000E+00  0.45593999997E+02  0.45594000000E+02  0.51100000000E-03 0. -1.
         11   -1    0    0    0    0 -0.00000000000E+00 -0.00000000000E+00 -0.45593999997E+02  0.45594000000E+02  0.51100000000E-03 0.  1.
    9900012    2    1    2    0    0  0.14699309335E+02 -0.20102204398E+02  0.19913587045E+02  0.59301964411E+02  0.50000037174E+02 0.  0.
        -12    1    1    2    0    0 -0.14699309335E+02  0.20102204398E+02 -0.19913587045E+02  0.31886035589E+02  0.00000000000E+00 0.  1.
         11    1    3    3    0    0 -0.32719256586E+01 -0.23271673030E+02 -0.15436944667E+01  0.23551204980E+02  0.51100000000E-03 0. -1.
        -11    1    3    3    0    0  0.18294373892E+02 -0.13651800349E+01  0.54902835369E+01  0.19149178734E+02  0.51100000000E-03 0.  1.
        -12    1    3    3    0    0 -0.32313889847E+00  0.45346486670E+01  0.15966997975E+02  0.16601580697E+02  0.00000000000E+00 0.  1.
</event>
<event>
 7    1  0.6198176E-013  0.5930194E+02  0.7816164E-02  0.1266605E+00
        -11   -1    0    0    0    0  0.00000000000E+00  0.00000000000E+00  0.45593999997E+02  0.45594000000E+02  0.51100000000E-03 0. -1.
         11   -1    0    0    0    0 -0.00000000000E+00 -0.00000000000E+00 -0.45593999997E+02  0.45594000000E+02  0.51100000000E-03 0.  1.
    9900012    2    1    2    0    0  0.11802568148E+02 -0.29233537878E+02  0.47770985349E+01  0.59301936866E+02  0.49999986939E+02 0.  0.
        -12    1    1    2    0    0 -0.11802568148E+02  0.29233537878E+02 -0.47770985349E+01  0.31886063134E+02  0.00000000000E+00 0.  1.
         11    1    3    3    0    0  0.21506691351E+01 -0.80107402553E+01 -0.55226450343E+01  0.99647852763E+01  0.51100000000E-03 0. -1.
        -11    1    3    3    0    0  0.94041165019E+01  0.62622429898E+01 -0.10062984581E+02  0.15129995155E+02  0.51100000000E-03 0.  1.
        -12    1    3    3    0    0  0.24778251083E+00 -0.27485040613E+02  0.20362728150E+02  0.34207156435E+02  0.00000000000E+00 0.  1.
</event>
<event>
 7    1  0.6198176E-013  0.5930192E+02  0.7816164E-02  0.1266605E+00
        -11   -1    0    0    0    0  0.00000000000E+00  0.00000000000E+00  0.45593999997E+02  0.45594000000E+02  0.51100000000E-03 0. -1.
         11   -1    0    0    0    0 -0.00000000000E+00 -0.00000000000E+00 -0.45593999997E+02  0.45594000000E+02  0.51100000000E-03 0.  1.
    9900012    2    1    2    0    0 -0.18024474376E+02 -0.12323398561E+01  0.26273977915E+02  0.59301917557E+02  0.49999951724E+02 0.  0.
        -12    1    1    2    0    0  0.18024474376E+02  0.12323398561E+01 -0.26273977915E+02  0.31886082443E+02  0.00000000000E+00 0.  1.
         11    1    3    3    0    0 -0.73417135679E+01 -0.12642373669E+02  0.73036990974E+01  0.16342410803E+02  0.51100000000E-03 0. -1.
        -11    1    3    3    0    0 -0.18790893867E+02  0.78725859741E+01 -0.17315225033E+01  0.20446845054E+02  0.51100000000E-03 0.  1.
        -12    1    3    3    0    0  0.81081330581E+01  0.35374478386E+01  0.20701801321E+02  0.22512661700E+02  0.00000000000E+00 0.  1.
</event>
<event>
 7    1  0.6810079E-013  0.5930197E+02  0.7816164E-02  0.1266605E+00
        -11   -1    0    0    0    0  0.00000000000E+00  0.00000000000E+00  0.45593999997E+02  0.45594000000E+02  0.51100000000E-03 0. -1.
         11   -1    0    0    0    0 -0.00000000000E+00 -0.00000000000E+00 -0.45593999997E+02  0.45594000000E+02  0.51100000000E-03 0.  1.
    9900012    2    1    2    0    0 -0.22733007271E+02  0.14139360579E+01  0.22314352828E+02  0.59301965802E+02  0.50000039711E+02 0.  0.
        -12    1    1    2    0    0  0.22733007271E+02 -0.14139360579E+01 -0.22314352828E+02  0.31886034198E+02  0.00000000000E+00 0.  1.
         11    1    3    3    0    0 -0.22994772407E+02  0.35667961167E+01  0.16869831348E+02  0.28741482261E+02  0.51100000000E-03 0. -1.
        -11    1    3    3    0    0 -0.29470553914E+01  0.52896010901E+01  0.16083792744E+02  0.17185848960E+02  0.51100000000E-03 0.  1.
        -12    1    3    3    0    0  0.32088205280E+01 -0.74424611489E+01 -0.10639271264E+02  0.13374634581E+02  0.00000000000E+00 0.  1.
</event>
<event>
 7    1  0.6198176E-013  0.5930194E+02  0.7816164E-02  0.1266605E+00
        -11   -1    0    0    0    0  0.00000000000E+00  0.00000000000E+00  0.45593999997E+02  0.45594000000E+02  0.51100000000E-03 0.  1.
         11   -1    0    0    0    0 -0.00000000000E+00 -0.00000000000E+00 -0.45593999997E+02  0.45594000000E+02  0.51100000000E-03 0. -1.
    9900012    2    1    2    0    0  0.22777492603E+02  0.10801156895E+01 -0.22287658523E+02  0.59301944401E+02  0.50000000681E+02 0.  0.
        -12    1    1    2    0    0 -0.22777492603E+02 -0.10801156895E+01  0.22287658523E+02  0.31886055599E+02  0.00000000000E+00 0.  1.
         11    1    3    3    0    0  0.67116228135E+01 -0.55902610707E+01  0.10282081281E+02  0.13491408206E+02  0.51100000000E-03 0. -1.
        -11    1    3    3    0    0  0.22690097405E+00 -0.75270040144E+01 -0.19357196303E+02  0.20770371265E+02  0.51100000000E-03 0.  1.
         12    1    3    3    0    0  0.15838968815E+02  0.14197380775E+02 -0.13212543502E+02  0.25040164931E+02  0.00000000000E+00 0. -1.
</event>
<event>
 7    1  0.6198176E-013  0.5930194E+02  0.7816164E-02  0.1266605E+00
        -11   -1    0    0    0    0  0.00000000000E+00  0.00000000000E+00  0.45593999997E+02  0.45594000000E+02  0.51100000000E-03 0. -1.
         11   -1    0    0    0    0 -0.00000000000E+00 -0.00000000000E+00 -0.45593999997E+02  0.45594000000E+02  0.51100000000E-03 0.  1.
    9900012    2    1    2    0    0 -0.25824343766E+02 -0.18700794880E+02  0.32326783189E+00  0.59301937807E+02  0.49999988655E+02 0.  0.
        -12    1    1    2    0    0  0.25824343766E+02  0.18700794880E+02 -0.32326783189E+00  0.31886062193E+02  0.00000000000E+00 0.  1.
         11    1    3    3    0    0  0.42626058907E+01 -0.92749610738E+01  0.10423280300E+01  0.10260660792E+02  0.51100000000E-03 0. -1.
        -11    1    3    3    0    0 -0.25108262248E+02 -0.22742796731E+02  0.38802876817E+01  0.34098625618E+02  0.51100000000E-03 0.  1.
        -12    1    3    3    0    0 -0.49786874083E+01  0.13316962925E+02 -0.45993478797E+01  0.14942651397E+02  0.00000000000E+00 0.  1.
</event>
<event>
 7    1  0.6198176E-013  0.5930213E+02  0.7816164E-02  0.1266604E+00
        -11   -1    0    0    0    0  0.00000000000E+00  0.00000000000E+00  0.45593999997E+02  0.45594000000E+02  0.51100000000E-03 0.  1.
         11   -1    0    0    0    0 -0.00000000000E+00 -0.00000000000E+00 -0.45593999997E+02  0.45594000000E+02  0.51100000000E-03 0. -1.
    9900012    2    1    2    0    0 -0.30672287816E+02  0.48830987816E+01 -0.72162826679E+01  0.59302131201E+02  0.50000341357E+02 0.  0.
        -12    1    1    2    0    0  0.30672287816E+02 -0.48830987816E+01  0.72162826679E+01  0.31885868799E+02  0.00000000000E+00 0.  1.
         11    1    3    3    0    0  0.35191064738E+00 -0.30278085038E+00 -0.13390356721E+02  0.13398401797E+02  0.51100000000E-03 0. -1.
        -11    1    3    3    0    0 -0.79197961439E+01  0.16753954520E+02  0.75916432897E+01  0.20026263034E+02  0.51100000000E-03 0.  1.
         12    1    3    3    0    0 -0.23104402319E+02 -0.11568074888E+02 -0.14175692368E+01  0.25877466369E+02  0.00000000000E+00 0. -1.
</event>
<event>
 7    1  0.6198176E-013  0.5930191E+02  0.7816164E-02  0.1266605E+00
        -11   -1    0    0    0    0  0.00000000000E+00  0.00000000000E+00  0.45593999997E+02  0.45594000000E+02  0.51100000000E-03 0. -1.
         11   -1    0    0    0    0 -0.00000000000E+00 -0.00000000000E+00 -0.45593999997E+02  0.45594000000E+02  0.51100000000E-03 0.  1.
    9900012    2    1    2    0    0 -0.30593651462E+02  0.82922308227E+01  0.34626551315E+01  0.59301912401E+02  0.49999942321E+02 0.  0.
        -12    1    1    2    0    0  0.30593651462E+02 -0.82922308227E+01 -0.34626551315E+01  0.31886087599E+02  0.00000000000E+00 0.  1.
         11    1    3    3    0    0 -0.30814077794E+02  0.81639114613E+01 -0.67692707612E+01  0.32588032582E+02  0.51100000000E-03 0. -1.
        -11    1    3    3    0    0 -0.99933372615E+01  0.22329676450E+01  0.12380577731E+02  0.16066475635E+02  0.51100000000E-03 0.  1.
        -12    1    3    3    0    0  0.10213763593E+02 -0.21046482836E+01 -0.21486518384E+01  0.10647404184E+02  0.00000000000E+00 0.  1.
</event>
<event>
 7    1  0.6198176E-013  0.5930195E+02  0.7816164E-02  0.1266605E+00
        -11   -1    0    0    0    0  0.00000000000E+00  0.00000000000E+00  0.45593999997E+02  0.45594000000E+02  0.51100000000E-03 0. -1.
         11   -1    0    0    0    0 -0.00000000000E+00 -0.00000000000E+00 -0.45593999997E+02  0.45594000000E+02  0.51100000000E-03 0.  1.
    9900012    2    1    2    0    0  0.34179382817E+01 -0.26666397185E+02  0.17144719406E+02  0.59301945926E+02  0.50000003461E+02 0.  0.
        -12    1    1    2    0    0 -0.34179382817E+01  0.26666397185E+02 -0.17144719406E+02  0.31886054074E+02  0.00000000000E+00 0.  1.
         11    1    3    3    0    0  0.57269896401E+01  0.67501585180E+01 -0.25179586221E+01  0.92034323075E+01  0.51100000000E-03 0. -1.
        -11    1    3    3    0    0  0.99177909114E+01 -0.10446165041E+02 -0.39758164665E+01  0.14942960131E+02  0.51100000000E-03 0.  1.
        -12    1    3    3    0    0 -0.12226842270E+02 -0.22970390661E+02  0.23638494495E+02  0.35155553488E+02  0.00000000000E+00 0.  1.
</event>
<event>
 7    1  0.6733390E-013  0.5930198E+02  0.7816164E-02  0.1266605E+00
        -11   -1    0    0    0    0  0.00000000000E+00  0.00000000000E+00  0.45593999997E+02  0.45594000000E+02  0.51100000000E-03 0.  1.
         11   -1    0    0    0    0 -0.00000000000E+00 -0.00000000000E+00 -0.45593999997E+02  0.45594000000E+02  0.51100000000E-03 0. -1.
    9900012    2    1    2    0    0  0.14551099710E+02 -0.27312309132E+02 -0.76825543086E+01  0.59301978398E+02  0.50000062684E+02 0.  0.
        -12    1    1    2    0    0 -0.14551099710E+02  0.27312309132E+02  0.76825543086E+01  0.31886021602E+02  0.00000000000E+00 0.  1.
         11    1    3    3    0    0  0.54065249126E+01 -0.74774451021E+01 -0.19889630875E+02  0.21925786496E+02  0.51100000000E-03 0. -1.
        -11    1    3    3    0    0  0.13863020654E+01  0.71028014722E+01  0.33750727463E+01  0.79851573857E+01  0.51100000000E-03 0.  1.
        -12    1    3    3    0    0  0.77582727317E+01 -0.26937665502E+02  0.88320038197E+01  0.29391034517E+02  0.00000000000E+00 0.  1.
</event>
<event>
 7    1  0.6198176E-013  0.5930196E+02  0.7816164E-02  0.1266605E+00
        -11   -1    0    0    0    0  0.00000000000E+00  0.00000000000E+00  0.45593999997E+02  0.45594000000E+02  0.51100000000E-03 0.  1.
         11   -1    0    0    0    0 -0.00000000000E+00 -0.00000000000E+00 -0.45593999997E+02  0.45594000000E+02  0.51100000000E-03 0. -1.
    9900012    2    1    2    0    0  0.41152313688E+01  0.12768895729E+02 -0.28926452892E+02  0.59301960669E+02  0.50000030349E+02 0.  0.
        -12    1    1    2    0    0 -0.41152313688E+01 -0.12768895729E+02  0.28926452892E+02  0.31886039331E+02  0.00000000000E+00 0.  1.
         11    1    3    3    0    0  0.13364165761E+02 -0.60415066816E+01 -0.44917604517E+01  0.15338730120E+02  0.51100000000E-03 0. -1.
        -11    1    3    3    0    0 -0.18595690913E+00 -0.79945635211E+01 -0.33234110190E+01  0.86598318071E+01  0.51100000000E-03 0.  1.
        -12    1    3    3    0    0 -0.90629774834E+01  0.26804965932E+02 -0.21111281421E+02  0.35303398741E+02  0.00000000000E+00 0.  1.
</event>
<event>
 7    1  0.6198176E-013  0.5930193E+02  0.7816164E-02  0.1266605E+00
        -11   -1    0    0    0    0  0.00000000000E+00  0.00000000000E+00  0.45593999997E+02  0.45594000000E+02  0.51100000000E-03 0.  1.
         11   -1    0    0    0    0 -0.00000000000E+00 -0.00000000000E+00 -0.45593999997E+02  0.45594000000E+02  0.51100000000E-03 0. -1.
    9900012    2    1    2    0    0 -0.20345001010E+02  0.16922270889E+01 -0.24493646834E+02  0.59301930411E+02  0.49999975166E+02 0.  0.
        -12    1    1    2    0    0  0.20345001010E+02 -0.16922270889E+01  0.24493646834E+02  0.31886069589E+02  0.00000000000E+00 0.  1.
         11    1    3    3    0    0  0.21435683208E+01 -0.63103392657E+01  0.11641191046E+02  0.13413895632E+02  0.51100000000E-03 0. -1.
        -11    1    3    3    0    0 -0.26141834865E+01 -0.13139365037E+01  0.70075380443E+00  0.30085612164E+01  0.51100000000E-03 0.  1.
         12    1    3    3    0    0 -0.19874385844E+02  0.93165028583E+01 -0.36835591685E+02  0.42879473562E+02  0.00000000000E+00 0. -1.
</event>
<event>
 7    1  0.6198176E-013  0.5930192E+02  0.7816164E-02  0.1266605E+00
        -11   -1    0    0    0    0  0.00000000000E+00  0.00000000000E+00  0.45593999997E+02  0.45594000000E+02  0.51100000000E-03 0.  1.
         11   -1    0    0    0    0 -0.00000000000E+00 -0.00000000000E+00 -0.45593999997E+02  0.45594000000E+02  0.51100000000E-03 0. -1.
    9900012    2    1    2    0    0  0.13741623313E+02 -0.28750424526E+02 -0.11413984833E+01  0.59301922909E+02  0.49999961485E+02 0.  0.
        -12    1    1    2    0    0 -0.13741623313E+02  0.28750424526E+02  0.11413984833E+01  0.31886077091E+02  0.00000000000E+00 0.  1.
         11    1    3    3    0    0 -0.35296480940E+01  0.40822069849E+01 -0.49624842944E+01  0.73313764170E+01  0.51100000000E-03 0. -1.
        -11    1    3    3    0    0  0.87808423178E+01  0.57076859344E+01  0.66484305785E+01  0.12404938531E+02  0.51100000000E-03 0.  1.
         12    1    3    3    0    0  0.84904290896E+01 -0.38540317446E+02 -0.28273447675E+01  0.39565607962E+02  0.00000000000E+00 0. -1.
</event>
<event>
 7    1  0.6198176E-013  0.5930193E+02  0.7816164E-02  0.1266605E+00
        -11   -1    0    0    0    0  0.00000000000E+00  0.00000000000E+00  0.45593999997E+02  0.45594000000E+02  0.51100000000E-03 0.  1.
         11   -1    0    0    0    0 -0.00000000000E+00 -0.00000000000E+00 -0.45593999997E+02  0.45594000000E+02  0.51100000000E-03 0. -1.
    9900012    2    1    2    0    0  0.13717710909E+00 -0.10635614901E+02 -0.30059711185E+02  0.59301931594E+02  0.49999977324E+02 0.  0.
        -12    1    1    2    0    0 -0.13717710909E+00  0.10635614901E+02  0.30059711185E+02  0.31886068406E+02  0.00000000000E+00 0.  1.
         11    1    3    3    0    0  0.80450981306E+01 -0.15912940062E+02 -0.15301935374E+02  0.23496691082E+02  0.51100000000E-03 0. -1.
        -11    1    3    3    0    0 -0.24804831372E+00 -0.77644240756E+01  0.62143163532E+01  0.99481423990E+01  0.51100000000E-03 0.  1.
        -12    1    3    3    0    0 -0.76598727078E+01  0.13041749237E+02 -0.20972092164E+02  0.25857098113E+02  0.00000000000E+00 0.  1.
</event>
<event>
 7    1  0.6198176E-013  0.5930200E+02  0.7816164E-02  0.1266605E+00
        -11   -1    0    0    0    0  0.00000000000E+00  0.00000000000E+00  0.45593999997E+02  0.45594000000E+02  0.51100000000E-03 0.  1.
         11   -1    0    0    0    0 -0.00000000000E+00 -0.00000000000E+00 -0.45593999997E+02  0.45594000000E+02  0.51100000000E-03 0. -1.
    9900012    2    1    2    0    0 -0.15725563471E+01  0.31752518914E+02 -0.24539183442E+01  0.59301998274E+02  0.50000098932E+02 0.  0.
        -12    1    1    2    0    0  0.15725563471E+01 -0.31752518914E+02  0.24539183442E+01  0.31886001726E+02  0.00000000000E+00 0.  1.
         11    1    3    3    0    0  0.49344153992E+01  0.15013351897E+02 -0.19289151797E+02  0.24936330280E+02  0.51100000000E-03 0. -1.
        -11    1    3    3    0    0  0.73303459005E+01 -0.94318259321E+00  0.28974633076E+01  0.79384418059E+01  0.51100000000E-03 0.  1.
         12    1    3    3    0    0 -0.13837317647E+02  0.17682349610E+02  0.13937770145E+02  0.26427226188E+02  0.00000000000E+00 0. -1.
</event>
<event>
 7    1  0.6198176E-013  0.5930194E+02  0.7816164E-02  0.1266605E+00
        -11   -1    0    0    0    0  0.00000000000E+00  0.00000000000E+00  0.45593999997E+02  0.45594000000E+02  0.51100000000E-03 0. -1.
         11   -1    0    0    0    0 -0.00000000000E+00 -0.00000000000E+00 -0.45593999997E+02  0.45594000000E+02  0.51100000000E-03 0.  1.
    9900012    2    1    2    0    0 -0.53308345249E+01  0.42234025816E+01  0.31152301292E+02  0.59301940320E+02  0.49999993238E+02 0.  0.
        -12    1    1    2    0    0  0.53308345249E+01 -0.42234025816E+01 -0.31152301292E+02  0.31886059680E+02  0.00000000000E+00 0.  1.
         11    1    3    3    0    0 -0.35302008867E+01 -0.32381088320E+01  0.55048940408E+01  0.72973643029E+01  0.51100000000E-03 0. -1.
        -11    1    3    3    0    0 -0.87097348445E+01  0.46698763291E+01 -0.10895382983E+02  0.14709744954E+02  0.51100000000E-03 0.  1.
         12    1    3    3    0    0  0.69091012064E+01  0.27916350845E+01  0.36542790235E+02  0.37294831064E+02  0.00000000000E+00 0. -1.
</event>
<event>
 7    1  0.6198176E-013  0.5930195E+02  0.7816164E-02  0.1266605E+00
        -11   -1    0    0    0    0  0.00000000000E+00  0.00000000000E+00  0.45593999997E+02  0.45594000000E+02  0.51100000000E-03 0.  1.
         11   -1    0    0    0    0 -0.00000000000E+00 -0.00000000000E+00 -0.45593999997E+02  0.45594000000E+02  0.51100000000E-03 0. -1.
    9900012    2    1    2    0    0  0.50188407528E+01 -0.71752779066E+01 -0.30660185690E+02  0.59301947217E+02  0.50000005816E+02 0.  0.
        -12    1    1    2    0    0 -0.50188407528E+01  0.71752779066E+01  0.30660185690E+02  0.31886052783E+02  0.00000000000E+00 0.  1.
         11    1    3    3    0    0 -0.72806516246E+01  0.11879900410E+02 -0.11804624403E+02  0.18261683367E+02  0.51100000000E-03 0. -1.
        -11    1    3    3    0    0 -0.60703495293E+00 -0.46071980140E+01  0.72013271712E+01  0.85705238033E+01  0.51100000000E-03 0.  1.
        -12    1    3    3    0    0  0.12906527330E+02 -0.14447980303E+02 -0.26056888459E+02  0.32469740047E+02  0.00000000000E+00 0.  1.
</event>
<event>
 7    1  0.6198176E-013  0.5930194E+02  0.7816164E-02  0.1266605E+00
        -11   -1    0    0    0    0  0.00000000000E+00  0.00000000000E+00  0.45593999997E+02  0.45594000000E+02  0.51100000000E-03 0. -1.
         11   -1    0    0    0    0 -0.00000000000E+00 -0.00000000000E+00 -0.45593999997E+02  0.45594000000E+02  0.51100000000E-03 0.  1.
    9900012    2    1    2    0    0 -0.38973158950E+01 -0.31561622401E+02 -0.23228477632E+01  0.59301941895E+02  0.49999996110E+02 0.  0.
        -12    1    1    2    0    0  0.38973158950E+01  0.31561622401E+02  0.23228477632E+01  0.31886058105E+02  0.00000000000E+00 0.  1.
         11    1    3    3    0    0 -0.46873721796E+01 -0.21346566583E+02 -0.21092278054E+01  0.21956689300E+02  0.51100000000E-03 0. -1.
        -11    1    3    3    0    0 -0.54634302131E+01 -0.22581049716E+02  0.19743122317E+01  0.23316320143E+02  0.51100000000E-03 0.  1.
        -12    1    3    3    0    0  0.62534864977E+01  0.12365993898E+02 -0.21879321895E+01  0.14028932452E+02  0.00000000000E+00 0.  1.
</event>
<event>
 7    1  0.6198176E-013  0.5930195E+02  0.7816164E-02  0.1266605E+00
        -11   -1    0    0    0    0  0.00000000000E+00  0.00000000000E+00  0.45593999997E+02  0.45594000000E+02  0.51100000000E-03 0.  1.
         11   -1    0    0    0    0 -0.00000000000E+00 -0.00000000000E+00 -0.45593999997E+02  0.45594000000E+02  0.51100000000E-03 0. -1.
    9900012    2    1    2    0    0  0.16846710984E+02  0.26349853677E+02 -0.62124032020E+01  0.59301946414E+02  0.50000004352E+02 0.  0.
        -12    1    1    2    0    0 -0.16846710984E+02 -0.26349853677E+02  0.62124032020E+01  0.31886053586E+02  0.00000000000E+00 0.  1.
         11    1    3    3    0    0  0.37315854529E+01  0.16814127051E+01 -0.44910296145E+01  0.60762838920E+01  0.51100000000E-03 0. -1.
        -11    1    3    3    0    0  0.12071231583E+02  0.33073448857E+02 -0.14350223031E+02  0.38019686381E+02  0.51100000000E-03 0.  1.
        -12    1    3    3    0    0  0.10438939476E+01 -0.84050078851E+01  0.12628849444E+02  0.15205976141E+02  0.00000000000E+00 0.  1.
</event>
<event>
 7    1  0.6198176E-013  0.5930194E+02  0.7816164E-02  0.1266605E+00
        -11   -1    0    0    0    0  0.00000000000E+00  0.00000000000E+00  0.45593999997E+02  0.45594000000E+02  0.51100000000E-03 0.  1.
         11   -1    0    0    0    0 -0.00000000000E+00 -0.00000000000E+00 -0.45593999997E+02  0.45594000000E+02  0.51100000000E-03 0. -1.
    9900012    2    1    2    0    0  0.21655779604E+02  0.10901332718E+02 -0.20710115228E+02  0.59301941635E+02  0.49999995637E+02 0.  0.
        -12    1    1    2    0    0 -0.21655779604E+02 -0.10901332718E+02  0.20710115228E+02  0.31886058365E+02  0.00000000000E+00 0.  1.
         11    1    3    3    0    0 -0.10684874080E-01  0.34439484464E+01 -0.26478519898E+01  0.43441933070E+01  0.51100000000E-03 0. -1.
        -11    1    3    3    0    0  0.21628208829E+02  0.14224478149E+02  0.87339249738E+01  0.27320260640E+02  0.51100000000E-03 0.  1.
         12    1    3    3    0    0  0.38255648960E-01 -0.67670938766E+01 -0.26796188212E+02  0.27637487688E+02  0.00000000000E+00 0. -1.
</event>
<event>
 7    1  0.6198176E-013  0.5930213E+02  0.7816164E-02  0.1266604E+00
        -11   -1    0    0    0    0  0.00000000000E+00  0.00000000000E+00  0.45593999997E+02  0.45594000000E+02  0.51100000000E-03 0. -1.
         11   -1    0    0    0    0 -0.00000000000E+00 -0.00000000000E+00 -0.45593999997E+02  0.45594000000E+02  0.51100000000E-03 0.  1.
    9900012    2    1    2    0    0 -0.66425237143E+01 -0.31151427407E+02 -0.14745803434E+01  0.59302126357E+02  0.50000332525E+02 0.  0.
        -12    1    1    2    0    0  0.66425237143E+01  0.31151427407E+02  0.14745803434E+01  0.31885873643E+02  0.00000000000E+00 0.  1.
         11    1    3    3    0    0 -0.59915516404E+01 -0.94707422958E+01  0.97328011925E+01  0.14843216296E+02  0.51100000000E-03 0. -1.
        -11    1    3    3    0    0  0.11324350102E+02 -0.77494253786E+01 -0.19870314671E+02  0.24147958595E+02  0.51100000000E-03 0.  1.
         12    1    3    3    0    0 -0.11975322176E+02 -0.13931259732E+02  0.86629331352E+01  0.20310951466E+02  0.00000000000E+00 0. -1.
</event>
<event>
 7    1  0.6198176E-013  0.5930193E+02  0.7816164E-02  0.1266605E+00
        -11   -1    0    0    0    0  0.00000000000E+00  0.00000000000E+00  0.45593999997E+02  0.45594000000E+02  0.51100000000E-03 0.  1.
         11   -1    0    0    0    0 -0.00000000000E+00 -0.00000000000E+00 -0.45593999997E+02  0.45594000000E+02  0.51100000000E-03 0. -1.
    9900012    2    1    2    0    0  0.14351367118E+02 -0.19849630630E+02 -0.20414501303E+02  0.59301930349E+02  0.49999975054E+02 0.  0.
        -12    1    1    2    0    0 -0.14351367118E+02  0.19849630630E+02  0.20414501303E+02  0.31886069651E+02  0.00000000000E+00 0.  1.
         11    1    3    3    0    0  0.18774715065E+02 -0.26354977192E+02 -0.17152172739E+02  0.36623377486E+02  0.51100000000E-03 0. -1.
        -11    1    3    3    0    0 -0.75766439835E+01 -0.15101261620E+00  0.68181560827E+01  0.10193899720E+02  0.51100000000E-03 0.  1.
        -12    1    3    3    0    0  0.31532960367E+01  0.66563591784E+01 -0.10080484647E+02  0.12484653144E+02  0.00000000000E+00 0.  1.
</event>
<event>
 7    1  0.6198176E-013  0.5930194E+02  0.7816164E-02  0.1266605E+00
        -11   -1    0    0    0    0  0.00000000000E+00  0.00000000000E+00  0.45593999997E+02  0.45594000000E+02  0.51100000000E-03 0. -1.
         11   -1    0    0    0    0 -0.00000000000E+00 -0.00000000000E+00 -0.45593999997E+02  0.45594000000E+02  0.51100000000E-03 0.  1.
    9900012    2    1    2    0    0  0.11596186376E+02 -0.12797685019E+02  0.26804260267E+02  0.59301942722E+02  0.49999997618E+02 0.  0.
        -12    1    1    2    0    0 -0.11596186376E+02  0.12797685019E+02 -0.26804260267E+02  0.31886057278E+02  0.00000000000E+00 0.  1.
         11    1    3    3    0    0 -0.10180221767E+02 -0.18188213395E+02  0.27832272770E+01  0.21028418297E+02  0.51100000000E-03 0. -1.
        -11    1    3    3    0    0  0.21362808753E+00  0.10480241237E+01  0.14105823281E+02  0.14146315500E+02  0.51100000000E-03 0.  1.
        -12    1    3    3    0    0  0.21562780056E+02  0.43425042529E+01  0.99152097085E+01  0.24127208924E+02  0.00000000000E+00 0.  1.
</event>
<event>
 7    1  0.6198176E-013  0.5930195E+02  0.7816164E-02  0.1266605E+00
        -11   -1    0    0    0    0  0.00000000000E+00  0.00000000000E+00  0.45593999997E+02  0.45594000000E+02  0.51100000000E-03 0. -1.
         11   -1    0    0    0    0 -0.00000000000E+00 -0.00000000000E+00 -0.45593999997E+02  0.45594000000E+02  0.51100000000E-03 0.  1.
    9900012    2    1    2    0    0 -0.30118873034E+02  0.15801588161E+01 -0.10347778147E+02  0.59301954035E+02  0.50000018251E+02 0.  0.
        -12    1    1    2    0    0  0.30118873034E+02 -0.15801588161E+01  0.10347778147E+02  0.31886045965E+02  0.00000000000E+00 0.  1.
         11    1    3    3    0    0  0.62115313168E+01  0.13672941218E+02 -0.26772655704E+01  0.15254513891E+02  0.51100000000E-03 0. -1.
        -11    1    3    3    0    0 -0.11929982587E+01  0.10158736648E+01  0.43832967367E+01  0.46549473350E+01  0.51100000000E-03 0.  1.
         12    1    3    3    0    0 -0.35137406092E+02 -0.13108656067E+02 -0.12053809314E+02  0.39392492809E+02  0.00000000000E+00 0. -1.
</event>
<event>
 7    1  0.6198176E-013  0.5930193E+02  0.7816164E-02  0.1266605E+00
        -11   -1    0    0    0    0  0.00000000000E+00  0.00000000000E+00  0.45593999997E+02  0.45594000000E+02  0.51100000000E-03 0.  1.
         11   -1    0    0    0    0 -0.00000000000E+00 -0.00000000000E+00 -0.45593999997E+02  0.45594000000E+02  0.51100000000E-03 0. -1.
    9900012    2    1    2    0    0 -0.19703451498E+02  0.15507270998E+02 -0.19698221215E+02  0.59301931353E+02  0.49999976884E+02 0.  0.
        -12    1    1    2    0    0  0.19703451498E+02 -0.15507270998E+02  0.19698221215E+02  0.31886068647E+02  0.00000000000E+00 0.  1.
         11    1    3    3    0    0 -0.23674608053E+02 -0.31711980617E+01  0.16603357346E+01  0.23943689745E+02  0.51100000000E-03 0. -1.
        -11    1    3    3    0    0 -0.70445603636E+01  0.72748163989E+00 -0.61510422935E+01  0.93803188545E+01  0.51100000000E-03 0.  1.
        -12    1    3    3    0    0  0.11015716918E+02  0.17950987420E+02 -0.15207514656E+02  0.25977922753E+02  0.00000000000E+00 0.  1.
</event>
<event>
 7    1  0.6198176E-013  0.5930194E+02  0.7816164E-02  0.1266605E+00
        -11   -1    0    0    0    0  0.00000000000E+00  0.00000000000E+00  0.45593999997E+02  0.45594000000E+02  0.51100000000E-03 0.  1.
         11   -1    0    0    0    0 -0.00000000000E+00 -0.00000000000E+00 -0.45593999997E+02  0.45594000000E+02  0.51100000000E-03 0. -1.
    9900012    2    1    2    0    0 -0.47365278355E+01  0.77291372755E+01 -0.30570355176E+02  0.59301939181E+02  0.49999991160E+02 0.  0.
        -12    1    1    2    0    0  0.47365278355E+01 -0.77291372755E+01  0.30570355176E+02  0.31886060819E+02  0.00000000000E+00 0.  1.
         11    1    3    3    0    0 -0.83701117749E+01  0.82472230448E+01 -0.99053637881E+01  0.15368529244E+02  0.51100000000E-03 0. -1.
        -11    1    3    3    0    0  0.69296872106E+01  0.17487313013E+02 -0.41124836052E+01  0.19254589139E+02  0.51100000000E-03 0.  1.
         12    1    3    3    0    0 -0.32961032713E+01 -0.18005398782E+02 -0.16552507783E+02  0.24678820798E+02  0.00000000000E+00 0. -1.
</event>
<event>
 7    1  0.6198176E-013  0.5930192E+02  0.7816164E-02  0.1266605E+00
        -11   -1    0    0    0    0  0.00000000000E+00  0.00000000000E+00  0.45593999997E+02  0.45594000000E+02  0.51100000000E-03 0.  1.
         11   -1    0    0    0    0 -0.00000000000E+00 -0.00000000000E+00 -0.45593999997E+02  0.45594000000E+02  0.51100000000E-03 0. -1.
    9900012    2    1    2    0    0 -0.63933302021E+01 -0.29605355755E+02  0.99684723014E+01  0.59301918390E+02  0.49999953242E+02 0.  0.
        -12    1    1    2    0    0  0.63933302021E+01  0.29605355755E+02 -0.99684723014E+01  0.31886081610E+02  0.00000000000E+00 0.  1.
         11    1    3    3    0    0  0.76890640727E+01 -0.28813501466E+02  0.14540745042E+02  0.33177896854E+02  0.51100000000E-03 0. -1.
        -11    1    3    3    0    0 -0.45747887594E+01 -0.10642548528E+02 -0.45162163559E+01  0.12433372101E+02  0.51100000000E-03 0.  1.
        -12    1    3    3    0    0 -0.95076055154E+01  0.98506942390E+01 -0.56056384516E-01  0.13690649435E+02  0.00000000000E+00 0.  1.
</event>
<event>
 7    1  0.6198176E-013  0.5930199E+02  0.7816164E-02  0.1266605E+00
        -11   -1    0    0    0    0  0.00000000000E+00  0.00000000000E+00  0.45593999997E+02  0.45594000000E+02  0.51100000000E-03 0.  1.
         11   -1    0    0    0    0 -0.00000000000E+00 -0.00000000000E+00 -0.45593999997E+02  0.45594000000E+02  0.51100000000E-03 0. -1.
    9900012    2    1    2    0    0 -0.98680302043E+01 -0.27691976224E+02 -0.12348858901E+02  0.59301986084E+02  0.50000076701E+02 0.  0.
        -12    1    1    2    0    0  0.98680302043E+01  0.27691976224E+02  0.12348858901E+02  0.31886013916E+02  0.00000000000E+00 0.  1.
         11    1    3    3    0    0  0.68728840147E+01 -0.58035538639E+01 -0.15510649738E+00  0.89967677761E+01  0.51100000000E-03 0. -1.
        -11    1    3    3    0    0  0.95350043249E+01 -0.11829892099E+02 -0.15822771963E+02  0.21936790271E+02  0.51100000000E-03 0.  1.
        -12    1    3    3    0    0 -0.26275918544E+02 -0.10058530261E+02  0.36290195590E+01  0.28368428037E+02  0.00000000000E+00 0.  1.
</event>
<event>
 7    1  0.6198176E-013  0.5930193E+02  0.7816164E-02  0.1266605E+00
        -11   -1    0    0    0    0  0.00000000000E+00  0.00000000000E+00  0.45593999997E+02  0.45594000000E+02  0.51100000000E-03 0.  1.
         11   -1    0    0    0    0 -0.00000000000E+00 -0.00000000000E+00 -0.45593999997E+02  0.45594000000E+02  0.51100000000E-03 0. -1.
    9900012    2    1    2    0    0 -0.25784381665E+02 -0.79696600893E+01 -0.16981500733E+02  0.59301934282E+02  0.49999982226E+02 0.  0.
        -12    1    1    2    0    0  0.25784381665E+02  0.79696600893E+01  0.16981500733E+02  0.31886065718E+02  0.00000000000E+00 0.  1.
         11    1    3    3    0    0 -0.15322902483E+02 -0.34199743568E+01 -0.13375187481E+02  0.20624820132E+02  0.51100000000E-03 0. -1.
        -11    1    3    3    0    0  0.11796390016E+02  0.52761428828E+01 -0.59649801698E+01  0.14232831406E+02  0.51100000000E-03 0.  1.
         12    1    3    3    0    0 -0.22257869199E+02 -0.98258286154E+01  0.23586669172E+01  0.24444282744E+02  0.00000000000E+00 0. -1.
</event>
<event>
 7    1  0.6198176E-013  0.5930192E+02  0.7816164E-02  0.1266605E+00
        -11   -1    0    0    0    0  0.00000000000E+00  0.00000000000E+00  0.45593999997E+02  0.45594000000E+02  0.51100000000E-03 0.  1.
         11   -1    0    0    0    0 -0.00000000000E+00 -0.00000000000E+00 -0.45593999997E+02  0.45594000000E+02  0.51100000000E-03 0. -1.
    9900012    2    1    2    0    0 -0.22700666316E+02  0.17448940209E+02 -0.14033403202E+02  0.59301918851E+02  0.49999954083E+02 0.  0.
        -12    1    1    2    0    0  0.22700666316E+02 -0.17448940209E+02  0.14033403202E+02  0.31886081149E+02  0.00000000000E+00 0.  1.
         11    1    3    3    0    0 -0.13046655604E+02  0.16579452573E+02  0.12430352537E+02  0.24486876782E+02  0.51100000000E-03 0.  1.
        -11    1    3    3    0    0 -0.74447019357E+01 -0.66961716048E+00  0.70982856303E+00  0.75083840407E+01  0.51100000000E-03 0. -1.
        -12    1    3    3    0    0 -0.22093087760E+01  0.15391047965E+01 -0.27173584302E+02  0.27306658028E+02  0.00000000000E+00 0.  1.
</event>
<event>
 7    1  0.6198176E-013  0.5930194E+02  0.7816164E-02  0.1266605E+00
        -11   -1    0    0    0    0  0.00000000000E+00  0.00000000000E+00  0.45593999997E+02  0.45594000000E+02  0.51100000000E-03 0.  1.
         11   -1    0    0    0    0 -0.00000000000E+00 -0.00000000000E+00 -0.45593999997E+02  0.45594000000E+02  0.51100000000E-03 0. -1.
    9900012    2    1    2    0    0 -0.15121416973E+02  0.15473592540E+02 -0.23422887447E+02  0.59301937626E+02  0.49999988325E+02 0.  0.
        -12    1    1    2    0    0  0.15121416973E+02 -0.15473592540E+02  0.23422887447E+02  0.31886062374E+02  0.00000000000E+00 0.  1.
         11    1    3    3    0    0 -0.18707814135E+02  0.20669154788E+01 -0.87673898259E+01  0.20763467291E+02  0.51100000000E-03 0. -1.
        -11    1    3    3    0    0  0.85790634614E+01 -0.85128084630E+01 -0.97505010060E+01  0.15528699493E+02  0.51100000000E-03 0.  1.
        -12    1    3    3    0    0 -0.49926662988E+01  0.21919485524E+02 -0.49049966152E+01  0.23009770842E+02  0.00000000000E+00 0.  1.
</event>
<event>
 7    1  0.8874298E-013  0.5930194E+02  0.7816164E-02  0.1266605E+00
        -11   -1    0    0    0    0  0.00000000000E+00  0.00000000000E+00  0.45593999997E+02  0.45594000000E+02  0.51100000000E-03 0. -1.
         11   -1    0    0    0    0 -0.00000000000E+00 -0.00000000000E+00 -0.45593999997E+02  0.45594000000E+02  0.51100000000E-03 0.  1.
    9900012    2    1    2    0    0 -0.21660091011E+02 -0.20818402973E+02  0.10684346993E+02  0.59301941674E+02  0.49999995707E+02 0.  0.
        -12    1    1    2    0    0  0.21660091011E+02  0.20818402973E+02 -0.10684346993E+02  0.31886058326E+02  0.00000000000E+00 0.  1.
         11    1    3    3    0    0 -0.16984799955E+02 -0.19469796454E+02  0.25989277574E+02  0.36646950113E+02  0.51100000000E-03 0. -1.
        -11    1    3    3    0    0 -0.48051395949E+01  0.52554253716E+01 -0.13949398398E+01  0.72563571977E+01  0.51100000000E-03 0.  1.
        -12    1    3    3    0    0  0.12984853927E+00 -0.66040318898E+01 -0.13909990741E+02  0.15398634363E+02  0.00000000000E+00 0.  1.
</event>
<event>
 7    1  0.6198176E-013  0.5930195E+02  0.7816164E-02  0.1266605E+00
        -11   -1    0    0    0    0  0.00000000000E+00  0.00000000000E+00  0.45593999997E+02  0.45594000000E+02  0.51100000000E-03 0.  1.
         11   -1    0    0    0    0 -0.00000000000E+00 -0.00000000000E+00 -0.45593999997E+02  0.45594000000E+02  0.51100000000E-03 0. -1.
    9900012    2    1    2    0    0  0.24621148035E+02  0.17268539166E+02 -0.10597970913E+02  0.59301947203E+02  0.50000005791E+02 0.  0.
        -12    1    1    2    0    0 -0.24621148035E+02 -0.17268539166E+02  0.10597970913E+02  0.31886052797E+02  0.00000000000E+00 0.  1.
         11    1    3    3    0    0  0.22195082643E+02  0.78056643983E+01 -0.40069018949E+01  0.23866406376E+02  0.51100000000E-03 0.  1.
        -11    1    3    3    0    0 -0.17801797927E+01  0.20437782414E+02  0.23757599498E+01  0.20652269263E+02  0.51100000000E-03 0. -1.
         12    1    3    3    0    0  0.42062451843E+01 -0.10974907646E+02 -0.89668289683E+01  0.14783271564E+02  0.00000000000E+00 0. -1.
</event>
<event>
 7    1  0.6198176E-013  0.5930193E+02  0.7816164E-02  0.1266605E+00
        -11   -1    0    0    0    0  0.00000000000E+00  0.00000000000E+00  0.45593999997E+02  0.45594000000E+02  0.51100000000E-03 0.  1.
         11   -1    0    0    0    0 -0.00000000000E+00 -0.00000000000E+00 -0.45593999997E+02  0.45594000000E+02  0.51100000000E-03 0. -1.
    9900012    2    1    2    0    0  0.41411698595E+01 -0.21504536718E+02 -0.23176006633E+02  0.59301926697E+02  0.49999968392E+02 0.  0.
        -12    1    1    2    0    0 -0.41411698595E+01  0.21504536718E+02  0.23176006633E+02  0.31886073303E+02  0.00000000000E+00 0.  1.
         11    1    3    3    0    0  0.13100771744E+02 -0.63130186767E+01 -0.50785056581E+01  0.15403754252E+02  0.51100000000E-03 0. -1.
        -11    1    3    3    0    0  0.28534492118E+01 -0.11421950805E+01  0.99300341306E+01  0.10394823717E+02  0.51100000000E-03 0.  1.
         12    1    3    3    0    0 -0.11813051096E+02 -0.14049322961E+02 -0.28027535106E+02  0.33503348727E+02  0.00000000000E+00 0. -1.
</event>
<event>
 7    1  0.6198176E-013  0.5930190E+02  0.7816164E-02  0.1266605E+00
        -11   -1    0    0    0    0  0.00000000000E+00  0.00000000000E+00  0.45593999997E+02  0.45594000000E+02  0.51100000000E-03 0.  1.
         11   -1    0    0    0    0 -0.00000000000E+00 -0.00000000000E+00 -0.45593999997E+02  0.45594000000E+02  0.51100000000E-03 0. -1.
    9900012    2    1    2    0    0  0.16860428295E+02 -0.52726184783E+01 -0.26545223536E+02  0.59301898945E+02  0.49999917780E+02 0.  0.
        -12    1    1    2    0    0 -0.16860428295E+02  0.52726184783E+01  0.26545223536E+02  0.31886101055E+02  0.00000000000E+00 0.  1.
         11    1    3    3    0    0  0.67389705581E+01 -0.78367588163E+00 -0.12334341957E+02  0.14077068723E+02  0.51100000000E-03 0. -1.
        -11    1    3    3    0    0 -0.54915539201E+01  0.15433989822E+02 -0.10948353276E+02  0.19703594748E+02  0.51100000000E-03 0.  1.
        -12    1    3    3    0    0  0.15613011657E+02 -0.19922932419E+02 -0.32625283024E+01  0.25521235473E+02  0.00000000000E+00 0.  1.
</event>
<event>
 7    1  0.6198176E-013  0.5930196E+02  0.7816164E-02  0.1266605E+00
        -11   -1    0    0    0    0  0.00000000000E+00  0.00000000000E+00  0.45593999997E+02  0.45594000000E+02  0.51100000000E-03 0.  1.
         11   -1    0    0    0    0 -0.00000000000E+00 -0.00000000000E+00 -0.45593999997E+02  0.45594000000E+02  0.51100000000E-03 0. -1.
    9900012    2    1    2    0    0 -0.21952947288E+02  0.92719771663E+01 -0.21185323557E+02  0.59301962469E+02  0.50000033633E+02 0.  0.
        -12    1    1    2    0    0  0.21952947288E+02 -0.92719771663E+01  0.21185323557E+02  0.31886037531E+02  0.00000000000E+00 0.  1.
         11    1    3    3    0    0 -0.18562766262E+01 -0.13462231100E+01  0.45623229298E+01  0.51061600398E+01  0.51100000000E-03 0. -1.
        -11    1    3    3    0    0 -0.10938063277E+02 -0.15646596290E+02 -0.57510553090E+01  0.19938200549E+02  0.51100000000E-03 0.  1.
         12    1    3    3    0    0 -0.91586073848E+01  0.26264796566E+02 -0.19996591177E+02  0.34257601880E+02  0.00000000000E+00 0. -1.
</event>
<event>
 7    1  0.6198176E-013  0.5930200E+02  0.7816164E-02  0.1266605E+00
        -11   -1    0    0    0    0  0.00000000000E+00  0.00000000000E+00  0.45593999997E+02  0.45594000000E+02  0.51100000000E-03 0. -1.
         11   -1    0    0    0    0 -0.00000000000E+00 -0.00000000000E+00 -0.45593999997E+02  0.45594000000E+02  0.51100000000E-03 0.  1.
    9900012    2    1    2    0    0  0.17017549483E+02  0.26962124934E+02 -0.40491185946E+00  0.59301997977E+02  0.50000098391E+02 0.  0.
        -12    1    1    2    0    0 -0.17017549483E+02 -0.26962124934E+02  0.40491185946E+00  0.31886002023E+02  0.00000000000E+00 0.  1.
         11    1    3    3    0    0  0.10167843942E+02  0.10951886108E+02 -0.16705556578E+02  0.22414381111E+02  0.51100000000E-03 0.  1.
        -11    1    3    3    0    0  0.74062628519E+01  0.41528319802E+01 -0.68245496783E+01  0.10893723948E+02  0.51100000000E-03 0. -1.
        -12    1    3    3    0    0 -0.55655731053E+00  0.11857406846E+02  0.23125194397E+02  0.25993892918E+02  0.00000000000E+00 0.  1.
</event>
<event>
 7    1  0.6198176E-013  0.5930192E+02  0.7816164E-02  0.1266605E+00
        -11   -1    0    0    0    0  0.00000000000E+00  0.00000000000E+00  0.45593999997E+02  0.45594000000E+02  0.51100000000E-03 0. -1.
         11   -1    0    0    0    0 -0.00000000000E+00 -0.00000000000E+00 -0.45593999997E+02  0.45594000000E+02  0.51100000000E-03 0.  1.
    9900012    2    1    2    0    0 -0.12471555694E+00 -0.27401441163E+02  0.16305439819E+02  0.59301923110E+02  0.49999961850E+02 0.  0.
        -12    1    1    2    0    0  0.12471555694E+00  0.27401441163E+02 -0.16305439819E+02  0.31886076890E+02  0.00000000000E+00 0.  1.
         11    1    3    3    0    0 -0.53045457508E+01 -0.27764229844E+02  0.18302903601E+00  0.28267015484E+02  0.51100000000E-03 0. -1.
        -11    1    3    3    0    0  0.11687220314E+02 -0.70317487785E+01  0.19537938911E+01  0.13778748868E+02  0.51100000000E-03 0.  1.
        -12    1    3    3    0    0 -0.65073901199E+01  0.73945374601E+01  0.14168616892E+02  0.17256158757E+02  0.00000000000E+00 0.  1.
</event>
<event>
 7    1  0.6198176E-013  0.5930196E+02  0.7816164E-02  0.1266605E+00
        -11   -1    0    0    0    0  0.00000000000E+00  0.00000000000E+00  0.45593999997E+02  0.45594000000E+02  0.51100000000E-03 0.  1.
         11   -1    0    0    0    0 -0.00000000000E+00 -0.00000000000E+00 -0.45593999997E+02  0.45594000000E+02  0.51100000000E-03 0. -1.
    9900012    2    1    2    0    0 -0.25308582983E+02  0.17819072817E+02 -0.76600190800E+01  0.59301958838E+02  0.50000027011E+02 0.  0.
        -12    1    1    2    0    0  0.25308582983E+02 -0.17819072817E+02  0.76600190800E+01  0.31886041162E+02  0.00000000000E+00 0.  1.
         11    1    3    3    0    0  0.21223936541E+01  0.20018876810E+01  0.11758724029E+02  0.12115267234E+02  0.51100000000E-03 0. -1.
        -11    1    3    3    0    0 -0.20126870338E+02  0.10309345818E+02  0.31523342160E+01  0.22832230116E+02  0.51100000000E-03 0.  1.
         12    1    3    3    0    0 -0.73041062986E+01  0.55078393179E+01 -0.22571077325E+02  0.24354461488E+02  0.00000000000E+00 0. -1.
</event>
<event>
 7    1  0.6198176E-013  0.5930196E+02  0.7816164E-02  0.1266605E+00
        -11   -1    0    0    0    0  0.00000000000E+00  0.00000000000E+00  0.45593999997E+02  0.45594000000E+02  0.51100000000E-03 0.  1.
         11   -1    0    0    0    0 -0.00000000000E+00 -0.00000000000E+00 -0.45593999997E+02  0.45594000000E+02  0.51100000000E-03 0. -1.
    9900012    2    1    2    0    0 -0.53364462443E+01 -0.17990240876E+02 -0.25779707858E+02  0.59301956619E+02  0.50000022963E+02 0.  0.
        -12    1    1    2    0    0  0.53364462443E+01  0.17990240876E+02  0.25779707858E+02  0.31886043381E+02  0.00000000000E+00 0.  1.
         11    1    3    3    0    0 -0.14491648567E+02 -0.10609583999E+02 -0.62399919534E+01  0.19013380832E+02  0.51100000000E-03 0.  1.
        -11    1    3    3    0    0  0.37243581394E+01 -0.22384505688E+01 -0.28379003715E+02  0.28709743235E+02  0.51100000000E-03 0. -1.
         12    1    3    3    0    0  0.54308441831E+01 -0.51422063081E+01  0.88392878109E+01  0.11578832552E+02  0.00000000000E+00 0. -1.
</event>
<event>
 7    1  0.6198176E-013  0.5930180E+02  0.7816164E-02  0.1266605E+00
        -11   -1    0    0    0    0  0.00000000000E+00  0.00000000000E+00  0.45593999997E+02  0.45594000000E+02  0.51100000000E-03 0.  1.
         11   -1    0    0    0    0 -0.00000000000E+00 -0.00000000000E+00 -0.45593999997E+02  0.45594000000E+02  0.51100000000E-03 0. -1.
    9900012    2    1    2    0    0  0.91425852263E+01  0.10137021318E+02 -0.28816381016E+02  0.59301797958E+02  0.49999733603E+02 0.  0.
        -12    1    1    2    0    0 -0.91425852263E+01 -0.10137021318E+02  0.28816381016E+02  0.31886202042E+02  0.00000000000E+00 0.  1.
         11    1    3    3    0    0  0.23755216475E+01  0.46842413894E+01 -0.16768701749E+02  0.17571982788E+02  0.51100000000E-03 0. -1.
        -11    1    3    3    0    0 -0.89492461144E+01 -0.53750386379E+01 -0.18784601199E+02  0.21490492987E+02  0.51100000000E-03 0.  1.
        -12    1    3    3    0    0  0.15716309693E+02  0.10827818567E+02  0.67369219319E+01  0.20239322182E+02  0.00000000000E+00 0.  1.
</event>
<event>
 7    1  0.6198176E-013  0.5930197E+02  0.7816164E-02  0.1266605E+00
        -11   -1    0    0    0    0  0.00000000000E+00  0.00000000000E+00  0.45593999997E+02  0.45594000000E+02  0.51100000000E-03 0. -1.
         11   -1    0    0    0    0 -0.00000000000E+00 -0.00000000000E+00 -0.45593999997E+02  0.45594000000E+02  0.51100000000E-03 0.  1.
    9900012    2    1    2    0    0  0.20405324219E+02 -0.24328893115E+02  0.29063568377E+01  0.59301965333E+02  0.50000038856E+02 0.  0.
        -12    1    1    2    0    0 -0.20405324219E+02  0.24328893115E+02 -0.29063568377E+01  0.31886034667E+02  0.00000000000E+00 0.  1.
         11    1    3    3    0    0  0.17070131511E+02 -0.12409175922E+01  0.16113231246E+02  0.23506711546E+02  0.51100000000E-03 0. -1.
        -11    1    3    3    0    0  0.66060943316E+00  0.48545459464E+01 -0.32431391929E+00  0.49100102798E+01  0.51100000000E-03 0.  1.
        -12    1    3    3    0    0  0.26745832753E+01 -0.27942521469E+02 -0.12882560489E+02  0.30885243507E+02  0.00000000000E+00 0.  1.
</event>
<event>
 7    1  0.6198176E-013  0.5930197E+02  0.7816164E-02  0.1266605E+00
        -11   -1    0    0    0    0  0.00000000000E+00  0.00000000000E+00  0.45593999997E+02  0.45594000000E+02  0.51100000000E-03 0.  1.
         11   -1    0    0    0    0 -0.00000000000E+00 -0.00000000000E+00 -0.45593999997E+02  0.45594000000E+02  0.51100000000E-03 0. -1.
    9900012    2    1    2    0    0  0.17256474938E+02  0.23609050295E+02  0.12710070829E+02  0.59301967265E+02  0.50000042379E+02 0.  0.
        -12    1    1    2    0    0 -0.17256474938E+02 -0.23609050295E+02 -0.12710070829E+02  0.31886032735E+02  0.00000000000E+00 0.  1.
         11    1    3    3    0    0  0.99438114140E+01  0.51316469715E+01 -0.14826144437E+02  0.18574922482E+02  0.51100000000E-03 0. -1.
        -11    1    3    3    0    0  0.75022850171E+01  0.17012064313E+02  0.65861015111E+01  0.19724891535E+02  0.51100000000E-03 0.  1.
         12    1    3    3    0    0 -0.18962149320E+00  0.14653390100E+01  0.20950113755E+02  0.21002153249E+02  0.00000000000E+00 0. -1.
</event>
<event>
 7    1  0.6198176E-013  0.5930195E+02  0.7816164E-02  0.1266605E+00
        -11   -1    0    0    0    0  0.00000000000E+00  0.00000000000E+00  0.45593999997E+02  0.45594000000E+02  0.51100000000E-03 0.  1.
         11   -1    0    0    0    0 -0.00000000000E+00 -0.00000000000E+00 -0.45593999997E+02  0.45594000000E+02  0.51100000000E-03 0. -1.
    9900012    2    1    2    0    0  0.25993951502E+02  0.17995483347E+02 -0.41469396876E+01  0.59301952199E+02  0.50000014903E+02 0.  0.
        -12    1    1    2    0    0 -0.25993951502E+02 -0.17995483347E+02  0.41469396876E+01  0.31886047801E+02  0.00000000000E+00 0.  1.
         11    1    3    3    0    0 -0.10262776224E+02  0.34068353222E+01  0.34195910992E+01  0.11341283273E+02  0.51100000000E-03 0. -1.
        -11    1    3    3    0    0  0.12752562910E+02 -0.39630237099E+01  0.65297776850E+01  0.14865107284E+02  0.51100000000E-03 0.  1.
         12    1    3    3    0    0  0.23504164816E+02  0.18551671734E+02 -0.14096308472E+02  0.33095561642E+02  0.00000000000E+00 0. -1.
</event>
<event>
 7    1  0.6198176E-013  0.5930195E+02  0.7816164E-02  0.1266605E+00
        -11   -1    0    0    0    0  0.00000000000E+00  0.00000000000E+00  0.45593999997E+02  0.45594000000E+02  0.51100000000E-03 0.  1.
         11   -1    0    0    0    0 -0.00000000000E+00 -0.00000000000E+00 -0.45593999997E+02  0.45594000000E+02  0.51100000000E-03 0. -1.
    9900012    2    1    2    0    0 -0.17064274185E+02  0.23962072149E+01 -0.26828881711E+02  0.59301950443E+02  0.50000011700E+02 0.  0.
        -12    1    1    2    0    0  0.17064274185E+02 -0.23962072149E+01  0.26828881711E+02  0.31886049557E+02  0.00000000000E+00 0.  1.
         11    1    3    3    0    0 -0.90340775110E+01 -0.29089960563E+01 -0.27104272022E+02  0.28717910380E+02  0.51100000000E-03 0. -1.
        -11    1    3    3    0    0  0.84536861861E+01 -0.51566898066E+01 -0.38586693030E+01  0.10627586224E+02  0.51100000000E-03 0.  1.
         12    1    3    3    0    0 -0.16483882860E+02  0.10461893078E+02  0.41340596137E+01  0.19956453839E+02  0.00000000000E+00 0. -1.
</event>
<event>
 7    1  0.6198176E-013  0.5930189E+02  0.7816164E-02  0.1266605E+00
        -11   -1    0    0    0    0  0.00000000000E+00  0.00000000000E+00  0.45593999997E+02  0.45594000000E+02  0.51100000000E-03 0.  1.
         11   -1    0    0    0    0 -0.00000000000E+00 -0.00000000000E+00 -0.45593999997E+02  0.45594000000E+02  0.51100000000E-03 0. -1.
    9900012    2    1    2    0    0  0.24799867221E+02  0.76942184225E+01 -0.18506467757E+02  0.59301893932E+02  0.49999908638E+02 0.  0.
        -12    1    1    2    0    0 -0.24799867221E+02 -0.76942184225E+01  0.18506467757E+02  0.31886106068E+02  0.00000000000E+00 0.  1.
         11    1    3    3    0    0 -0.63537427936E+01  0.36665343523E+01 -0.10340809823E+02  0.12678559449E+02  0.51100000000E-03 0. -1.
        -11    1    3    3    0    0  0.19175428137E+02  0.14852095311E+02  0.61762520497E+01  0.25028541088E+02  0.51100000000E-03 0.  1.
         12    1    3    3    0    0  0.11978181878E+02 -0.10824411241E+02 -0.14341909984E+02  0.21594793396E+02  0.00000000000E+00 0. -1.
</event>
<event>
 7    1  0.6198176E-013  0.5930192E+02  0.7816164E-02  0.1266605E+00
        -11   -1    0    0    0    0  0.00000000000E+00  0.00000000000E+00  0.45593999997E+02  0.45594000000E+02  0.51100000000E-03 0.  1.
         11   -1    0    0    0    0 -0.00000000000E+00 -0.00000000000E+00 -0.45593999997E+02  0.45594000000E+02  0.51100000000E-03 0. -1.
    9900012    2    1    2    0    0 -0.28554923295E+02 -0.39988640725E+01 -0.13614243983E+02  0.59301918436E+02  0.49999953327E+02 0.  0.
        -12    1    1    2    0    0  0.28554923295E+02  0.39988640725E+01  0.13614243983E+02  0.31886081564E+02  0.00000000000E+00 0.  1.
         11    1    3    3    0    0 -0.28851077820E+02 -0.10043689276E+02 -0.63571121632E+01  0.31203737932E+02  0.51100000000E-03 0. -1.
        -11    1    3    3    0    0 -0.11880560110E+02  0.80184994784E+01 -0.12788982630E+01  0.14390261410E+02  0.51100000000E-03 0.  1.
        -12    1    3    3    0    0  0.12176714634E+02 -0.19736742751E+01 -0.59782335566E+01  0.13707919094E+02  0.00000000000E+00 0.  1.
</event>
<event>
 7    1  0.6198176E-013  0.5930186E+02  0.7816164E-02  0.1266605E+00
        -11   -1    0    0    0    0  0.00000000000E+00  0.00000000000E+00  0.45593999997E+02  0.45594000000E+02  0.51100000000E-03 0. -1.
         11   -1    0    0    0    0 -0.00000000000E+00 -0.00000000000E+00 -0.45593999997E+02  0.45594000000E+02  0.51100000000E-03 0.  1.
    9900012    2    1    2    0    0 -0.16262175968E+02 -0.14288998514E+02 -0.23411363709E+02  0.59301862001E+02  0.49999850403E+02 0.  0.
        -12    1    1    2    0    0  0.16262175968E+02  0.14288998514E+02  0.23411363709E+02  0.31886137999E+02  0.00000000000E+00 0.  1.
         11    1    3    3    0    0 -0.29440239734E+02 -0.66829223584E+01 -0.13853765230E+01  0.30220993286E+02  0.51100000000E-03 0. -1.
        -11    1    3    3    0    0  0.54991928175E+00  0.26323185712E+01 -0.38367507044E+01  0.46853141309E+01  0.51100000000E-03 0.  1.
        -12    1    3    3    0    0  0.12628144483E+02 -0.10238394727E+02 -0.18189236482E+02  0.24395554584E+02  0.00000000000E+00 0.  1.
</event>
<event>
 7    1  0.6198176E-013  0.5930191E+02  0.7816164E-02  0.1266605E+00
        -11   -1    0    0    0    0  0.00000000000E+00  0.00000000000E+00  0.45593999997E+02  0.45594000000E+02  0.51100000000E-03 0.  1.
         11   -1    0    0    0    0 -0.00000000000E+00 -0.00000000000E+00 -0.45593999997E+02  0.45594000000E+02  0.51100000000E-03 0. -1.
    9900012    2    1    2    0    0  0.30835915335E+02  0.72519092175E+01 -0.36440160944E+01  0.59301910319E+02  0.49999938524E+02 0.  0.
        -12    1    1    2    0    0 -0.30835915335E+02 -0.72519092175E+01  0.36440160944E+01  0.31886089681E+02  0.00000000000E+00 0.  1.
         11    1    3    3    0    0  0.15264150069E+02  0.10565124206E+02 -0.10626895574E+02  0.21390349147E+02  0.51100000000E-03 0. -1.
        -11    1    3    3    0    0  0.22091753951E+02 -0.81085026208E+01  0.13842494177E+02  0.27302162051E+02  0.51100000000E-03 0.  1.
         12    1    3    3    0    0 -0.65199886849E+01  0.47952876325E+01 -0.68596146973E+01  0.10609399122E+02  0.00000000000E+00 0. -1.
</event>
<event>
 7    1  0.6198176E-013  0.5930194E+02  0.7816164E-02  0.1266605E+00
        -11   -1    0    0    0    0  0.00000000000E+00  0.00000000000E+00  0.45593999997E+02  0.45594000000E+02  0.51100000000E-03 0. -1.
         11   -1    0    0    0    0 -0.00000000000E+00 -0.00000000000E+00 -0.45593999997E+02  0.45594000000E+02  0.51100000000E-03 0.  1.
    9900012    2    1    2    0    0 -0.31536785457E+02  0.31190165605E+00  0.46962394636E+01  0.59301940589E+02  0.49999993729E+02 0.  0.
        -12    1    1    2    0    0  0.31536785457E+02 -0.31190165605E+00 -0.46962394636E+01  0.31886059411E+02  0.00000000000E+00 0.  1.
         11    1    3    3    0    0 -0.18649420537E+02 -0.36527931313E+01  0.16501524005E+02  0.25168314977E+02  0.51100000000E-03 0. -1.
        -11    1    3    3    0    0 -0.28015478518E+01  0.15982797029E+02 -0.45801437191E+01  0.16860491926E+02  0.51100000000E-03 0.  1.
         12    1    3    3    0    0 -0.10085817069E+02 -0.12018102242E+02 -0.72251408227E+01  0.17273133687E+02  0.00000000000E+00 0. -1.
</event>
<event>
 7    1  0.6198176E-013  0.5930193E+02  0.7816164E-02  0.1266605E+00
        -11   -1    0    0    0    0  0.00000000000E+00  0.00000000000E+00  0.45593999997E+02  0.45594000000E+02  0.51100000000E-03 0.  1.
         11   -1    0    0    0    0 -0.00000000000E+00 -0.00000000000E+00 -0.45593999997E+02  0.45594000000E+02  0.51100000000E-03 0. -1.
    9900012    2    1    2    0    0 -0.71391973737E+01  0.29280715029E+02 -0.10411193499E+02  0.59301931540E+02  0.49999977226E+02 0.  0.
        -12    1    1    2    0    0  0.71391973737E+01 -0.29280715029E+02  0.10411193499E+02  0.31886068460E+02  0.00000000000E+00 0.  1.
         11    1    3    3    0    0 -0.75096973300E+01  0.30755935339E+02 -0.11143329870E+02  0.33563326912E+02  0.51100000000E-03 0. -1.
        -11    1    3    3    0    0  0.40908651210E+01  0.75296525137E+01 -0.86760819307E+01  0.12194475895E+02  0.51100000000E-03 0.  1.
        -12    1    3    3    0    0 -0.37203651646E+01 -0.90048728241E+01  0.94082183015E+01  0.13544128733E+02  0.00000000000E+00 0.  1.
</event>
<event>
 7    1  0.6198176E-013  0.5930194E+02  0.7816164E-02  0.1266605E+00
        -11   -1    0    0    0    0  0.00000000000E+00  0.00000000000E+00  0.45593999997E+02  0.45594000000E+02  0.51100000000E-03 0. -1.
         11   -1    0    0    0    0 -0.00000000000E+00 -0.00000000000E+00 -0.45593999997E+02  0.45594000000E+02  0.51100000000E-03 0.  1.
    9900012    2    1    2    0    0 -0.22837844467E+01 -0.18309584854E+02  0.26005078906E+02  0.59301941952E+02  0.49999996215E+02 0.  0.
        -12    1    1    2    0    0  0.22837844467E+01  0.18309584854E+02 -0.26005078906E+02  0.31886058048E+02  0.00000000000E+00 0.  1.
         11    1    3    3    0    0 -0.13122510046E+02 -0.97626725188E+01  0.20174587098E+02  0.25971600056E+02  0.51100000000E-03 0. -1.
        -11    1    3    3    0    0 -0.39205312610E+01  0.81719602054E+01 -0.26932838459E+01  0.94554363783E+01  0.51100000000E-03 0.  1.
         12    1    3    3    0    0  0.14759256860E+02 -0.16718872541E+02  0.85237756537E+01  0.23874905518E+02  0.00000000000E+00 0. -1.
</event>
<event>
 7    1  0.6198176E-013  0.5930193E+02  0.7816164E-02  0.1266605E+00
        -11   -1    0    0    0    0  0.00000000000E+00  0.00000000000E+00  0.45593999997E+02  0.45594000000E+02  0.51100000000E-03 0.  1.
         11   -1    0    0    0    0 -0.00000000000E+00 -0.00000000000E+00 -0.45593999997E+02  0.45594000000E+02  0.51100000000E-03 0. -1.
    9900012    2    1    2    0    0  0.11755072168E+02  0.28980022930E+02  0.62207890019E+01  0.59301926762E+02  0.49999968511E+02 0.  0.
        -12    1    1    2    0    0 -0.11755072168E+02 -0.28980022930E+02 -0.62207890019E+01  0.31886073238E+02  0.00000000000E+00 0.  1.
         11    1    3    3    0    0  0.70720061805E+01  0.22801670186E+01 -0.16608746904E+02  0.18195134158E+02  0.51100000000E-03 0. -1.
        -11    1    3    3    0    0  0.74346506813E+01  0.19304266261E+01  0.58831122861E+00  0.77036801644E+01  0.51100000000E-03 0.  1.
        -12    1    3    3    0    0 -0.27515846934E+01  0.24769429286E+02  0.22241224678E+02  0.33403112439E+02  0.00000000000E+00 0.  1.
</event>
<event>
 7    1  0.6198176E-013  0.5930196E+02  0.7816164E-02  0.1266605E+00
        -11   -1    0    0    0    0  0.00000000000E+00  0.00000000000E+00  0.45593999997E+02  0.45594000000E+02  0.51100000000E-03 0.  1.
         11   -1    0    0    0    0 -0.00000000000E+00 -0.00000000000E+00 -0.45593999997E+02  0.45594000000E+02  0.51100000000E-03 0. -1.
    9900012    2    1    2    0    0 -0.14192830616E+01  0.10208910463E+02 -0.30174218660E+02  0.59301957772E+02  0.50000025066E+02 0.  0.
        -12    1    1    2    0    0  0.14192830616E+01 -0.10208910463E+02  0.30174218660E+02  0.31886042228E+02  0.00000000000E+00 0.  1.
         11    1    3    3    0    0 -0.63060441917E+01  0.81100452501E+01 -0.57729479821E+01  0.11784140018E+02  0.51100000000E-03 0. -1.
        -11    1    3    3    0    0 -0.17563067237E+02  0.10743855051E+01 -0.63991955887E+01  0.18723390170E+02  0.51100000000E-03 0.  1.
         12    1    3    3    0    0  0.22449828367E+02  0.10244797075E+01 -0.18002075089E+02  0.28794427584E+02  0.00000000000E+00 0. -1.
</event>
<event>
 7    1  0.6198176E-013  0.5930193E+02  0.7816164E-02  0.1266605E+00
        -11   -1    0    0    0    0  0.00000000000E+00  0.00000000000E+00  0.45593999997E+02  0.45594000000E+02  0.51100000000E-03 0.  1.
         11   -1    0    0    0    0 -0.00000000000E+00 -0.00000000000E+00 -0.45593999997E+02  0.45594000000E+02  0.51100000000E-03 0. -1.
    9900012    2    1    2    0    0  0.28201571775E+02 -0.14661890254E+02  0.25340974415E+01  0.59301932098E+02  0.49999978244E+02 0.  0.
        -12    1    1    2    0    0 -0.28201571775E+02  0.14661890254E+02 -0.25340974415E+01  0.31886067902E+02  0.00000000000E+00 0.  1.
         11    1    3    3    0    0  0.38448931142E+01 -0.10347255609E+02 -0.30119037691E+01  0.11442048167E+02  0.51100000000E-03 0. -1.
        -11    1    3    3    0    0 -0.10994243637E+02 -0.51080219896E+01  0.41775759563E+00  0.12130119681E+02  0.51100000000E-03 0.  1.
        -12    1    3    3    0    0  0.35350922298E+02  0.79338734409E+00  0.51282436149E+01  0.35729764250E+02  0.00000000000E+00 0.  1.
</event>
<event>
 7    1  0.6198176E-013  0.5930191E+02  0.7816164E-02  0.1266605E+00
        -11   -1    0    0    0    0  0.00000000000E+00  0.00000000000E+00  0.45593999997E+02  0.45594000000E+02  0.51100000000E-03 0. -1.
         11   -1    0    0    0    0 -0.00000000000E+00 -0.00000000000E+00 -0.45593999997E+02  0.45594000000E+02  0.51100000000E-03 0.  1.
    9900012    2    1    2    0    0  0.18020084582E+02  0.92601335076E+01  0.24622128723E+02  0.59301909870E+02  0.49999937705E+02 0.  0.
        -12    1    1    2    0    0 -0.18020084582E+02 -0.92601335076E+01 -0.24622128723E+02  0.31886090130E+02  0.00000000000E+00 0.  1.
         11    1    3    3    0    0  0.12633193277E+02  0.87806652265E+01 -0.56217545299E+01  0.16379919977E+02  0.51100000000E-03 0.  1.
        -11    1    3    3    0    0  0.10586110064E+02  0.12906393918E+02  0.13751424529E+02  0.21627353215E+02  0.51100000000E-03 0. -1.
         12    1    3    3    0    0 -0.51992187599E+01 -0.12426925636E+02  0.16492458724E+02  0.21294636678E+02  0.00000000000E+00 0. -1.
</event>
<event>
 7    1  0.6198176E-013  0.5930191E+02  0.7816164E-02  0.1266605E+00
        -11   -1    0    0    0    0  0.00000000000E+00  0.00000000000E+00  0.45593999997E+02  0.45594000000E+02  0.51100000000E-03 0. -1.
         11   -1    0    0    0    0 -0.00000000000E+00 -0.00000000000E+00 -0.45593999997E+02  0.45594000000E+02  0.51100000000E-03 0.  1.
    9900012    2    1    2    0    0  0.26895580278E+02 -0.12664033291E+01  0.17080586567E+02  0.59301914424E+02  0.49999946010E+02 0.  0.
        -12    1    1    2    0    0 -0.26895580278E+02  0.12664033291E+01 -0.17080586567E+02  0.31886085576E+02  0.00000000000E+00 0.  1.
         11    1    3    3    0    0 -0.84490595884E+01 -0.24309053588E+01  0.60816046066E+01  0.10690267707E+02  0.51100000000E-03 0. -1.
        -11    1    3    3    0    0 -0.58609129328E+01  0.17728887127E+01  0.97918189071E+00  0.62009863917E+01  0.51100000000E-03 0.  1.
         12    1    3    3    0    0  0.41205552799E+02 -0.60838668303E+00  0.10019800070E+02  0.42410660326E+02  0.00000000000E+00 0. -1.
</event>
<event>
 7    1  0.6198176E-013  0.5930195E+02  0.7816164E-02  0.1266605E+00
        -11   -1    0    0    0    0  0.00000000000E+00  0.00000000000E+00  0.45593999997E+02  0.45594000000E+02  0.51100000000E-03 0.  1.
         11   -1    0    0    0    0 -0.00000000000E+00 -0.00000000000E+00 -0.45593999997E+02  0.45594000000E+02  0.51100000000E-03 0. -1.
    9900012    2    1    2    0    0 -0.18410125822E+02 -0.98835331139E+01 -0.24085326913E+02  0.59301953959E+02  0.50000018113E+02 0.  0.
        -12    1    1    2    0    0  0.18410125822E+02  0.98835331139E+01  0.24085326913E+02  0.31886046041E+02  0.00000000000E+00 0.  1.
         11    1    3    3    0    0 -0.12457587174E+02  0.61152496394E+01 -0.28938802363E+02  0.32094268006E+02  0.51100000000E-03 0. -1.
        -11    1    3    3    0    0 -0.12745524229E+02 -0.48166121461E+01  0.15489313601E+01  0.13713035005E+02  0.51100000000E-03 0.  1.
        -12    1    3    3    0    0  0.67929855809E+01 -0.11182170607E+02  0.33045440893E+01  0.13494650949E+02  0.00000000000E+00 0.  1.
</event>
<event>
 7    1  0.6198176E-013  0.5930193E+02  0.7816164E-02  0.1266605E+00
        -11   -1    0    0    0    0  0.00000000000E+00  0.00000000000E+00  0.45593999997E+02  0.45594000000E+02  0.51100000000E-03 0.  1.
         11   -1    0    0    0    0 -0.00000000000E+00 -0.00000000000E+00 -0.45593999997E+02  0.45594000000E+02  0.51100000000E-03 0. -1.
    9900012    2    1    2    0    0 -0.11501611427E+02 -0.11113402308E+02 -0.27584896438E+02  0.59301932701E+02  0.49999979343E+02 0.  0.
        -12    1    1    2    0    0  0.11501611427E+02  0.11113402308E+02  0.27584896438E+02  0.31886067299E+02  0.00000000000E+00 0.  1.
         11    1    3    3    0    0 -0.75729623614E+01 -0.17836501489E+02  0.16309334915E+01  0.19446091859E+02  0.51100000000E-03 0. -1.
        -11    1    3    3    0    0 -0.32343613785E+01  0.77752631540E+01  0.19667675616E+01  0.86477734443E+01  0.51100000000E-03 0.  1.
         12    1    3    3    0    0 -0.69428768736E+00 -0.10521639735E+01 -0.31182597491E+02  0.31208067398E+02  0.00000000000E+00 0. -1.
</event>
<event>
 7    1  0.6198176E-013  0.5930201E+02  0.7816164E-02  0.1266605E+00
        -11   -1    0    0    0    0  0.00000000000E+00  0.00000000000E+00  0.45593999997E+02  0.45594000000E+02  0.51100000000E-03 0. -1.
         11   -1    0    0    0    0 -0.00000000000E+00 -0.00000000000E+00 -0.45593999997E+02  0.45594000000E+02  0.51100000000E-03 0.  1.
    9900012    2    1    2    0    0  0.13535107328E+02 -0.10842133273E+02  0.26757530383E+02  0.59302009087E+02  0.50000118653E+02 0.  0.
        -12    1    1    2    0    0 -0.13535107328E+02  0.10842133273E+02 -0.26757530383E+02  0.31885990913E+02  0.00000000000E+00 0.  1.
         11    1    3    3    0    0 -0.18510132749E+01  0.10890613549E+02  0.83506968481E+01  0.13847954785E+02  0.51100000000E-03 0. -1.
        -11    1    3    3    0    0  0.17426981005E+02  0.13233531202E+00  0.10432515214E+01  0.17458681324E+02  0.51100000000E-03 0.  1.
         12    1    3    3    0    0 -0.20408604015E+01 -0.21865082134E+02  0.17363582013E+02  0.27995372979E+02  0.00000000000E+00 0. -1.
</event>
<event>
 7    1  0.6198176E-013  0.5930190E+02  0.7816164E-02  0.1266605E+00
        -11   -1    0    0    0    0  0.00000000000E+00  0.00000000000E+00  0.45593999997E+02  0.45594000000E+02  0.51100000000E-03 0.  1.
         11   -1    0    0    0    0 -0.00000000000E+00 -0.00000000000E+00 -0.45593999997E+02  0.45594000000E+02  0.51100000000E-03 0. -1.
    9900012    2    1    2    0    0  0.20818572360E+02  0.22742251831E+02  0.81302295244E+01  0.59301896356E+02  0.49999913059E+02 0.  0.
        -12    1    1    2    0    0 -0.20818572360E+02 -0.22742251831E+02 -0.81302295244E+01  0.31886103644E+02  0.00000000000E+00 0.  1.
         11    1    3    3    0    0  0.19827856549E+02 -0.60846679294E+00  0.13224262565E+02  0.23841041249E+02  0.51100000000E-03 0. -1.
        -11    1    3    3    0    0  0.76189131113E+00 -0.26042586593E+01 -0.88298839121E+01  0.92373963700E+01  0.51100000000E-03 0.  1.
         12    1    3    3    0    0  0.22882449964E+00  0.25954977283E+02  0.37358508719E+01  0.26223458738E+02  0.00000000000E+00 0. -1.
</event>
<event>
 7    1  0.6198176E-013  0.5930208E+02  0.7816164E-02  0.1266604E+00
        -11   -1    0    0    0    0  0.00000000000E+00  0.00000000000E+00  0.45593999997E+02  0.45594000000E+02  0.51100000000E-03 0.  1.
         11   -1    0    0    0    0 -0.00000000000E+00 -0.00000000000E+00 -0.45593999997E+02  0.45594000000E+02  0.51100000000E-03 0. -1.
    9900012    2    1    2    0    0  0.10061143933E+02 -0.28891922113E+02 -0.89856444274E+01  0.59302084827E+02  0.50000256784E+02 0.  0.
        -12    1    1    2    0    0 -0.10061143933E+02  0.28891922113E+02  0.89856444274E+01  0.31885915173E+02  0.00000000000E+00 0.  1.
         11    1    3    3    0    0  0.56338539611E+01 -0.13379366031E+02 -0.57560687848E+01  0.15616660141E+02  0.51100000000E-03 0. -1.
        -11    1    3    3    0    0  0.16903187831E+02 -0.36163483090E+00  0.10345933703E+02  0.19821374398E+02  0.51100000000E-03 0.  1.
         12    1    3    3    0    0 -0.12475897859E+02 -0.15150921251E+02 -0.13575509346E+02  0.23864050288E+02  0.00000000000E+00 0. -1.
</event>
<event>
 7    1  0.6198176E-013  0.5930194E+02  0.7816164E-02  0.1266605E+00
        -11   -1    0    0    0    0  0.00000000000E+00  0.00000000000E+00  0.45593999997E+02  0.45594000000E+02  0.51100000000E-03 0.  1.
         11   -1    0    0    0    0 -0.00000000000E+00 -0.00000000000E+00 -0.45593999997E+02  0.45594000000E+02  0.51100000000E-03 0. -1.
    9900012    2    1    2    0    0  0.18192754159E+02 -0.25711024713E+02 -0.49686875739E+01  0.59301937968E+02  0.49999988949E+02 0.  0.
        -12    1    1    2    0    0 -0.18192754159E+02  0.25711024713E+02  0.49686875739E+01  0.31886062032E+02  0.00000000000E+00 0.  1.
         11    1    3    3    0    0  0.13785591621E+01  0.55297943072E+01 -0.33329913013E+01  0.66021119136E+01  0.51100000000E-03 0.  1.
        -11    1    3    3    0    0  0.10936183520E+02  0.64655506120E+00 -0.14192360649E+02  0.17928782571E+02  0.51100000000E-03 0. -1.
         12    1    3    3    0    0  0.58780114771E+01 -0.31887374081E+02  0.12556664376E+02  0.34771043484E+02  0.00000000000E+00 0. -1.
</event>
<event>
 7    1  0.6198176E-013  0.5930194E+02  0.7816164E-02  0.1266605E+00
        -11   -1    0    0    0    0  0.00000000000E+00  0.00000000000E+00  0.45593999997E+02  0.45594000000E+02  0.51100000000E-03 0.  1.
         11   -1    0    0    0    0 -0.00000000000E+00 -0.00000000000E+00 -0.45593999997E+02  0.45594000000E+02  0.51100000000E-03 0. -1.
    9900012    2    1    2    0    0 -0.14755768195E+02 -0.25513322005E+02  0.12167940186E+02  0.59301936224E+02  0.49999985768E+02 0.  0.
        -12    1    1    2    0    0  0.14755768195E+02  0.25513322005E+02 -0.12167940186E+02  0.31886063776E+02  0.00000000000E+00 0.  1.
         11    1    3    3    0    0  0.34422195678E+01 -0.79382174282E+01 -0.90048405039E+00  0.86991403757E+01  0.51100000000E-03 0. -1.
        -11    1    3    3    0    0  0.84770289759E+01 -0.11178760004E+02  0.17906834611E+02  0.22748174026E+02  0.51100000000E-03 0.  1.
        -12    1    3    3    0    0 -0.26675016739E+02 -0.63963445727E+01 -0.48384103739E+01  0.27854621822E+02  0.00000000000E+00 0.  1.
</event>
<event>
 7    1  0.6198176E-013  0.5930194E+02  0.7816164E-02  0.1266605E+00
        -11   -1    0    0    0    0  0.00000000000E+00  0.00000000000E+00  0.45593999997E+02  0.45594000000E+02  0.51100000000E-03 0.  1.
         11   -1    0    0    0    0 -0.00000000000E+00 -0.00000000000E+00 -0.45593999997E+02  0.45594000000E+02  0.51100000000E-03 0. -1.
    9900012    2    1    2    0    0  0.26873269980E+02 -0.17134965222E+02  0.97022863887E+00  0.59301936961E+02  0.49999987111E+02 0.  0.
        -12    1    1    2    0    0 -0.26873269980E+02  0.17134965222E+02 -0.97022863887E+00  0.31886063039E+02  0.00000000000E+00 0.  1.
         11    1    3    3    0    0  0.30204660758E+00  0.64175867710E+01  0.84160057267E+01  0.10588002870E+02  0.51100000000E-03 0. -1.
        -11    1    3    3    0    0  0.13867214692E+02  0.48066337598E+01  0.46084905217E+01  0.15383158212E+02  0.51100000000E-03 0.  1.
        -12    1    3    3    0    0  0.12704008680E+02 -0.28359185753E+02 -0.12054267610E+02  0.33330775879E+02  0.00000000000E+00 0.  1.
</event>
<event>
 7    1  0.6198176E-013  0.5930195E+02  0.7816164E-02  0.1266605E+00
        -11   -1    0    0    0    0  0.00000000000E+00  0.00000000000E+00  0.45593999997E+02  0.45594000000E+02  0.51100000000E-03 0.  1.
         11   -1    0    0    0    0 -0.00000000000E+00 -0.00000000000E+00 -0.45593999997E+02  0.45594000000E+02  0.51100000000E-03 0. -1.
    9900012    2    1    2    0    0  0.10567725133E+02  0.12907075681E+01 -0.30056234434E+02  0.59301953383E+02  0.50000017062E+02 0.  0.
        -12    1    1    2    0    0 -0.10567725133E+02 -0.12907075681E+01  0.30056234434E+02  0.31886046617E+02  0.00000000000E+00 0.  1.
         11    1    3    3    0    0  0.15385734974E+02  0.11748289976E+02 -0.58539973023E+01  0.20224056040E+02  0.51100000000E-03 0. -1.
        -11    1    3    3    0    0  0.84145740964E+01  0.42792504865E+01 -0.26454743344E+01  0.98038551941E+01  0.51100000000E-03 0.  1.
        -12    1    3    3    0    0 -0.13232583938E+02 -0.14736832894E+02 -0.21556762797E+02  0.29274042149E+02  0.00000000000E+00 0.  1.
</event>
<event>
 7    1  0.6198176E-013  0.5930196E+02  0.7816164E-02  0.1266605E+00
        -11   -1    0    0    0    0  0.00000000000E+00  0.00000000000E+00  0.45593999997E+02  0.45594000000E+02  0.51100000000E-03 0. -1.
         11   -1    0    0    0    0 -0.00000000000E+00 -0.00000000000E+00 -0.45593999997E+02  0.45594000000E+02  0.51100000000E-03 0.  1.
    9900012    2    1    2    0    0  0.77410503167E+01  0.30506439651E+02  0.51139594878E+01  0.59301963843E+02  0.50000036138E+02 0.  0.
        -12    1    1    2    0    0 -0.77410503167E+01 -0.30506439651E+02 -0.51139594878E+01  0.31886036157E+02  0.00000000000E+00 0.  1.
         11    1    3    3    0    0  0.67232970467E+01 -0.10585720059E+01 -0.37013388778E+01  0.77474645930E+01  0.51100000000E-03 0.  1.
        -11    1    3    3    0    0 -0.10744555213E+02  0.24145963463E+02  0.20454826455E+02  0.33419649069E+02  0.51100000000E-03 0. -1.
         12    1    3    3    0    0  0.11762308484E+02  0.74190481933E+01 -0.11639528089E+02  0.18134850181E+02  0.00000000000E+00 0. -1.
</event>
<event>
 7    1  0.6198176E-013  0.5930194E+02  0.7816164E-02  0.1266605E+00
        -11   -1    0    0    0    0  0.00000000000E+00  0.00000000000E+00  0.45593999997E+02  0.45594000000E+02  0.51100000000E-03 0.  1.
         11   -1    0    0    0    0 -0.00000000000E+00 -0.00000000000E+00 -0.45593999997E+02  0.45594000000E+02  0.51100000000E-03 0. -1.
    9900012    2    1    2    0    0  0.29698359403E+02  0.39215520020E+01 -0.10924729372E+02  0.59301939830E+02  0.49999992344E+02 0.  0.
        -12    1    1    2    0    0 -0.29698359403E+02 -0.39215520020E+01  0.10924729372E+02  0.31886060170E+02  0.00000000000E+00 0.  1.
         11    1    3    3    0    0  0.64798132461E+01 -0.11133352233E+02 -0.96709475510E+01  0.16107971270E+02  0.51100000000E-03 0. -1.
        -11    1    3    3    0    0 -0.56026896834E+01  0.37523361337E+01  0.83941944820E+01  0.10767202952E+02  0.51100000000E-03 0.  1.
        -12    1    3    3    0    0  0.28821235840E+02  0.11302568101E+02 -0.96479763029E+01  0.32426765608E+02  0.00000000000E+00 0.  1.
</event>
<event>
 7    1  0.6198176E-013  0.5930199E+02  0.7816164E-02  0.1266605E+00
        -11   -1    0    0    0    0  0.00000000000E+00  0.00000000000E+00  0.45593999997E+02  0.45594000000E+02  0.51100000000E-03 0. -1.
         11   -1    0    0    0    0 -0.00000000000E+00 -0.00000000000E+00 -0.45593999997E+02  0.45594000000E+02  0.51100000000E-03 0.  1.
    9900012    2    1    2    0    0  0.53364830262E+01 -0.21811099032E+02  0.22638803622E+02  0.59301991760E+02  0.50000087052E+02 0.  0.
        -12    1    1    2    0    0 -0.53364830262E+01  0.21811099032E+02 -0.22638803622E+02  0.31886008240E+02  0.00000000000E+00 0.  1.
         11    1    3    3    0    0  0.22480148733E+01 -0.16148000010E+00 -0.27581431429E+01  0.35618815981E+01  0.51100000000E-03 0. -1.
        -11    1    3    3    0    0  0.27898522341E+00  0.13265166643E+02  0.13022082184E+02  0.18590780067E+02  0.51100000000E-03 0.  1.
         12    1    3    3    0    0  0.28094829295E+01 -0.34914785676E+02  0.12374864581E+02  0.37149330095E+02  0.00000000000E+00 0. -1.
</event>
<event>
 7    1  0.6198176E-013  0.5930195E+02  0.7816164E-02  0.1266605E+00
        -11   -1    0    0    0    0  0.00000000000E+00  0.00000000000E+00  0.45593999997E+02  0.45594000000E+02  0.51100000000E-03 0.  1.
         11   -1    0    0    0    0 -0.00000000000E+00 -0.00000000000E+00 -0.45593999997E+02  0.45594000000E+02  0.51100000000E-03 0. -1.
    9900012    2    1    2    0    0 -0.27621405842E+01 -0.24294502440E+02 -0.20466269198E+02  0.59301945928E+02  0.50000003465E+02 0.  0.
        -12    1    1    2    0    0  0.27621405842E+01  0.24294502440E+02  0.20466269198E+02  0.31886054072E+02  0.00000000000E+00 0.  1.
         11    1    3    3    0    0  0.10714370943E+02 -0.11719741267E+02  0.82285405552E+01  0.17884601198E+02  0.51100000000E-03 0. -1.
        -11    1    3    3    0    0 -0.47299108959E+00  0.57771148968E+01 -0.12258768436E+02  0.13560095167E+02  0.51100000000E-03 0.  1.
        -12    1    3    3    0    0 -0.13003520438E+02 -0.18351876069E+02 -0.16436041317E+02  0.27857249563E+02  0.00000000000E+00 0.  1.
</event>
<event>
 7    1  0.6198176E-013  0.5930190E+02  0.7816164E-02  0.1266605E+00
        -11   -1    0    0    0    0  0.00000000000E+00  0.00000000000E+00  0.45593999997E+02  0.45594000000E+02  0.51100000000E-03 0. -1.
         11   -1    0    0    0    0 -0.00000000000E+00 -0.00000000000E+00 -0.45593999997E+02  0.45594000000E+02  0.51100000000E-03 0.  1.
    9900012    2    1    2    0    0 -0.17200034601E+01 -0.30694486543E+02 -0.84624738154E+01  0.59301899908E+02  0.49999919536E+02 0.  0.
        -12    1    1    2    0    0  0.17200034601E+01  0.30694486543E+02  0.84624738154E+01  0.31886100092E+02  0.00000000000E+00 0.  1.
         11    1    3    3    0    0  0.70981770992E+01 -0.13806838981E+01 -0.11519649642E+01  0.73223923480E+01  0.51100000000E-03 0. -1.
        -11    1    3    3    0    0  0.10680281993E+02  0.27396479442E+01  0.55166902042E+01  0.12329151040E+02  0.51100000000E-03 0.  1.
        -12    1    3    3    0    0 -0.19498462552E+02 -0.32053450589E+02 -0.12827199055E+02  0.39650356520E+02  0.00000000000E+00 0.  1.
</event>
<event>
 7    1  0.6198176E-013  0.5930195E+02  0.7816164E-02  0.1266605E+00
        -11   -1    0    0    0    0  0.00000000000E+00  0.00000000000E+00  0.45593999997E+02  0.45594000000E+02  0.51100000000E-03 0. -1.
         11   -1    0    0    0    0 -0.00000000000E+00 -0.00000000000E+00 -0.45593999997E+02  0.45594000000E+02  0.51100000000E-03 0.  1.
    9900012    2    1    2    0    0  0.46269831773E+00 -0.15411877977E+02  0.27910216344E+02  0.59301948992E+02  0.50000009053E+02 0.  0.
        -12    1    1    2    0    0 -0.46269831773E+00  0.15411877977E+02 -0.27910216344E+02  0.31886051008E+02  0.00000000000E+00 0.  1.
         11    1    3    3    0    0 -0.42904904056E+01 -0.53730383853E+01  0.10606689185E+02  0.12640399722E+02  0.51100000000E-03 0. -1.
        -11    1    3    3    0    0 -0.14377486156E+02  0.43259856628E+01  0.17074707719E+02  0.22737016165E+02  0.51100000000E-03 0.  1.
        -12    1    3    3    0    0  0.19130674879E+02 -0.14364825255E+02  0.22881943984E+00  0.23924533105E+02  0.00000000000E+00 0.  1.
</event>
<event>
 7    1  0.6198176E-013  0.5930193E+02  0.7816164E-02  0.1266605E+00
        -11   -1    0    0    0    0  0.00000000000E+00  0.00000000000E+00  0.45593999997E+02  0.45594000000E+02  0.51100000000E-03 0. -1.
         11   -1    0    0    0    0 -0.00000000000E+00 -0.00000000000E+00 -0.45593999997E+02  0.45594000000E+02  0.51100000000E-03 0.  1.
    9900012    2    1    2    0    0 -0.30998713649E+01 -0.25181219032E+02  0.19313690568E+02  0.59301927213E+02  0.49999969334E+02 0.  0.
        -12    1    1    2    0    0  0.30998713649E+01  0.25181219032E+02 -0.19313690568E+02  0.31886072787E+02  0.00000000000E+00 0.  1.
         11    1    3    3    0    0  0.18324882823E+02 -0.17613997662E+02  0.16965775131E+01  0.25474155917E+02  0.51100000000E-03 0. -1.
        -11    1    3    3    0    0 -0.36588196662E+01 -0.54965362980E+01 -0.23614328424E+01  0.70125058257E+01  0.51100000000E-03 0.  1.
         12    1    3    3    0    0 -0.17765934522E+02 -0.20706850715E+01  0.19978545897E+02  0.26815265471E+02  0.00000000000E+00 0. -1.
</event>
<event>
 7    1  0.6198176E-013  0.5930185E+02  0.7816164E-02  0.1266605E+00
        -11   -1    0    0    0    0  0.00000000000E+00  0.00000000000E+00  0.45593999997E+02  0.45594000000E+02  0.51100000000E-03 0.  1.
         11   -1    0    0    0    0 -0.00000000000E+00 -0.00000000000E+00 -0.45593999997E+02  0.45594000000E+02  0.51100000000E-03 0. -1.
    9900012    2    1    2    0    0  0.54643151978E+01  0.26679108460E+02 -0.16585919270E+02  0.59301854312E+02  0.49999836380E+02 0.  0.
        -12    1    1    2    0    0 -0.54643151978E+01 -0.26679108460E+02  0.16585919270E+02  0.31886145688E+02  0.00000000000E+00 0.  1.
         11    1    3    3    0    0  0.40706360420E+01  0.35104022118E+02 -0.20480476605E+02  0.40844979727E+02  0.51100000000E-03 0. -1.
        -11    1    3    3    0    0  0.85636437141E+01 -0.52159271913E+01  0.33929641661E+01  0.10585560742E+02  0.51100000000E-03 0.  1.
        -12    1    3    3    0    0 -0.71699645583E+01 -0.32089864668E+01  0.50159316896E+00  0.78713138433E+01  0.00000000000E+00 0.  1.
</event>
<event>
 7    1  0.6198176E-013  0.5930197E+02  0.7816164E-02  0.1266605E+00
        -11   -1    0    0    0    0  0.00000000000E+00  0.00000000000E+00  0.45593999997E+02  0.45594000000E+02  0.51100000000E-03 0. -1.
         11   -1    0    0    0    0 -0.00000000000E+00 -0.00000000000E+00 -0.45593999997E+02  0.45594000000E+02  0.51100000000E-03 0.  1.
    9900012    2    1    2    0    0 -0.95790751176E+01 -0.17081740529E+02  0.25162957782E+02  0.59301968828E+02  0.50000045229E+02 0.  0.
        -12    1    1    2    0    0  0.95790751176E+01  0.17081740529E+02 -0.25162957782E+02  0.31886031172E+02  0.00000000000E+00 0.  1.
         11    1    3    3    0    0  0.68305141669E+00  0.29719589419E+01 -0.13797005278E+01  0.33470394378E+01  0.51100000000E-03 0. -1.
        -11    1    3    3    0    0  0.11643180731E+02  0.40072782236E+01  0.18856161409E+02  0.22520585242E+02  0.51100000000E-03 0.  1.
         12    1    3    3    0    0 -0.21905307266E+02 -0.24060977694E+02  0.76864969002E+01  0.33434344148E+02  0.00000000000E+00 0. -1.
</event>
<event>
 7    1  0.6198176E-013  0.5930194E+02  0.7816164E-02  0.1266605E+00
        -11   -1    0    0    0    0  0.00000000000E+00  0.00000000000E+00  0.45593999997E+02  0.45594000000E+02  0.51100000000E-03 0.  1.
         11   -1    0    0    0    0 -0.00000000000E+00 -0.00000000000E+00 -0.45593999997E+02  0.45594000000E+02  0.51100000000E-03 0. -1.
    9900012    2    1    2    0    0  0.14904376370E+02  0.59233570376E+01 -0.27558919053E+02  0.59301943283E+02  0.49999998642E+02 0.  0.
        -12    1    1    2    0    0 -0.14904376370E+02 -0.59233570376E+01  0.27558919053E+02  0.31886056717E+02  0.00000000000E+00 0.  1.
         11    1    3    3    0    0 -0.44722399190E+01  0.13813861814E+02 -0.10993919580E+02  0.18212357785E+02  0.51100000000E-03 0. -1.
        -11    1    3    3    0    0 -0.65356258630E+01 -0.16008678412E+01  0.36253307732E+01  0.76433112420E+01  0.51100000000E-03 0.  1.
         12    1    3    3    0    0  0.25912242152E+02 -0.62896369351E+01 -0.20190330246E+02  0.33446274256E+02  0.00000000000E+00 0. -1.
</event>
<event>
 7    1  0.6198176E-013  0.5930194E+02  0.7816164E-02  0.1266605E+00
        -11   -1    0    0    0    0  0.00000000000E+00  0.00000000000E+00  0.45593999997E+02  0.45594000000E+02  0.51100000000E-03 0. -1.
         11   -1    0    0    0    0 -0.00000000000E+00 -0.00000000000E+00 -0.45593999997E+02  0.45594000000E+02  0.51100000000E-03 0.  1.
    9900012    2    1    2    0    0 -0.14500495383E+02 -0.38585392902E+01  0.28134820608E+02  0.59301939998E+02  0.49999992651E+02 0.  0.
        -12    1    1    2    0    0  0.14500495383E+02  0.38585392902E+01 -0.28134820608E+02  0.31886060002E+02  0.00000000000E+00 0.  1.
         11    1    3    3    0    0  0.71604076226E+01  0.50306573238E+01  0.27563720412E+01  0.91747772465E+01  0.51100000000E-03 0. -1.
        -11    1    3    3    0    0 -0.30844291237E+01 -0.14633462899E+02  0.26737181366E+02  0.30635417528E+02  0.51100000000E-03 0.  1.
         12    1    3    3    0    0 -0.18576473882E+02  0.57442662846E+01 -0.13587327999E+01  0.19491745224E+02  0.00000000000E+00 0. -1.
</event>
<event>
 7    1  0.6198176E-013  0.5930193E+02  0.7816164E-02  0.1266605E+00
        -11   -1    0    0    0    0  0.00000000000E+00  0.00000000000E+00  0.45593999997E+02  0.45594000000E+02  0.51100000000E-03 0.  1.
         11   -1    0    0    0    0 -0.00000000000E+00 -0.00000000000E+00 -0.45593999997E+02  0.45594000000E+02  0.51100000000E-03 0. -1.
    9900012    2    1    2    0    0  0.28892090920E+02  0.13468886595E+02 -0.74662393656E+00  0.59301932962E+02  0.49999979819E+02 0.  0.
        -12    1    1    2    0    0 -0.28892090920E+02 -0.13468886595E+02  0.74662393656E+00  0.31886067038E+02  0.00000000000E+00 0.  1.
         11    1    3    3    0    0  0.16895679814E+02  0.83170964964E+01 -0.10149480386E+02  0.21392756785E+02  0.51100000000E-03 0. -1.
        -11    1    3    3    0    0  0.24160652427E+02  0.26594257873E+01  0.60901778095E+01  0.25057931624E+02  0.51100000000E-03 0.  1.
         12    1    3    3    0    0 -0.12164241321E+02  0.24923643115E+01  0.33126786402E+01  0.12851244553E+02  0.00000000000E+00 0. -1.
</event>
<event>
 7    1  0.6198176E-013  0.5930195E+02  0.7816164E-02  0.1266605E+00
        -11   -1    0    0    0    0  0.00000000000E+00  0.00000000000E+00  0.45593999997E+02  0.45594000000E+02  0.51100000000E-03 0.  1.
         11   -1    0    0    0    0 -0.00000000000E+00 -0.00000000000E+00 -0.45593999997E+02  0.45594000000E+02  0.51100000000E-03 0. -1.
    9900012    2    1    2    0    0  0.23499852043E+01  0.91902156267E+01  0.30442365641E+02  0.59301951020E+02  0.50000012752E+02 0.  0.
        -12    1    1    2    0    0 -0.23499852043E+01 -0.91902156267E+01 -0.30442365641E+02  0.31886048980E+02  0.00000000000E+00 0.  1.
         11    1    3    3    0    0 -0.44172191677E-01 -0.16573447486E+01  0.14802584096E+02  0.14895141456E+02  0.51100000000E-03 0.  1.
        -11    1    3    3    0    0  0.10945941167E+02  0.71623413015E+01  0.26829908155E+02  0.29848898352E+02  0.51100000000E-03 0. -1.
         12    1    3    3    0    0 -0.85517837711E+01  0.36852190737E+01 -0.11190126611E+02  0.14557911212E+02  0.00000000000E+00 0. -1.
</event>
<event>
 7    1  0.6198176E-013  0.5930224E+02  0.7816164E-02  0.1266604E+00
        -11   -1    0    0    0    0  0.00000000000E+00  0.00000000000E+00  0.45593999997E+02  0.45594000000E+02  0.51100000000E-03 0. -1.
         11   -1    0    0    0    0 -0.00000000000E+00 -0.00000000000E+00 -0.45593999997E+02  0.45594000000E+02  0.51100000000E-03 0.  1.
    9900012    2    1    2    0    0  0.16244284914E+02  0.80198023787E+00  0.27425928326E+02  0.59302242847E+02  0.50000544972E+02 0.  0.
        -12    1    1    2    0    0 -0.16244284914E+02 -0.80198023787E+00 -0.27425928326E+02  0.31885757153E+02  0.00000000000E+00 0.  1.
         11    1    3    3    0    0  0.10408131117E+01 -0.15428783438E+01 -0.83011807330E+00  0.20378571574E+01  0.51100000000E-03 0. -1.
        -11    1    3    3    0    0  0.21545646020E+02  0.17806776489E+02  0.46414546974E+01  0.28334418175E+02  0.51100000000E-03 0.  1.
         12    1    3    3    0    0 -0.63421742174E+01 -0.15461917907E+02  0.23614591702E+02  0.28929967515E+02  0.00000000000E+00 0. -1.
</event>
<event>
 7    1  0.6198176E-013  0.5930197E+02  0.7816164E-02  0.1266605E+00
        -11   -1    0    0    0    0  0.00000000000E+00  0.00000000000E+00  0.45593999997E+02  0.45594000000E+02  0.51100000000E-03 0.  1.
         11   -1    0    0    0    0 -0.00000000000E+00 -0.00000000000E+00 -0.45593999997E+02  0.45594000000E+02  0.51100000000E-03 0. -1.
    9900012    2    1    2    0    0 -0.10067363561E+02  0.23216218131E+02 -0.19400372138E+02  0.59301968067E+02  0.50000043842E+02 0.  0.
        -12    1    1    2    0    0  0.10067363561E+02 -0.23216218131E+02  0.19400372138E+02  0.31886031933E+02  0.00000000000E+00 0.  1.
         11    1    3    3    0    0  0.11053359951E+02 -0.17286601042E+00  0.57649206282E+01  0.12467596359E+02  0.51100000000E-03 0. -1.
        -11    1    3    3    0    0  0.50285985737E+01  0.19623050319E+01 -0.55826934056E+01  0.77655592571E+01  0.51100000000E-03 0.  1.
         12    1    3    3    0    0 -0.26149322086E+02  0.21426779109E+02 -0.19582599360E+02  0.39068812450E+02  0.00000000000E+00 0. -1.
</event>
<event>
 7    1  0.6198176E-013  0.5930195E+02  0.7816164E-02  0.1266605E+00
        -11   -1    0    0    0    0  0.00000000000E+00  0.00000000000E+00  0.45593999997E+02  0.45594000000E+02  0.51100000000E-03 0.  1.
         11   -1    0    0    0    0 -0.00000000000E+00 -0.00000000000E+00 -0.45593999997E+02  0.45594000000E+02  0.51100000000E-03 0. -1.
    9900012    2    1    2    0    0 -0.26184605216E+02  0.40042928832E+01 -0.17749708417E+02  0.59301951943E+02  0.50000014436E+02 0.  0.
        -12    1    1    2    0    0  0.26184605216E+02 -0.40042928832E+01  0.17749708417E+02  0.31886048057E+02  0.00000000000E+00 0.  1.
         11    1    3    3    0    0 -0.34476126414E+01 -0.42549833927E+01  0.47268849928E+01  0.72342489999E+01  0.51100000000E-03 0. -1.
        -11    1    3    3    0    0 -0.94500762505E+00  0.15241565346E+02  0.52222027282E+01  0.16139075414E+02  0.51100000000E-03 0.  1.
         12    1    3    3    0    0 -0.21791984949E+02 -0.69822890704E+01 -0.27698796138E+02  0.35928627530E+02  0.00000000000E+00 0. -1.
</event>
<event>
 7    1  0.6198176E-013  0.5930197E+02  0.7816164E-02  0.1266605E+00
        -11   -1    0    0    0    0  0.00000000000E+00  0.00000000000E+00  0.45593999997E+02  0.45594000000E+02  0.51100000000E-03 0. -1.
         11   -1    0    0    0    0 -0.00000000000E+00 -0.00000000000E+00 -0.45593999997E+02  0.45594000000E+02  0.51100000000E-03 0.  1.
    9900012    2    1    2    0    0  0.26371350778E+02  0.17744530520E+02 -0.25303073045E+01  0.59301969199E+02  0.50000045906E+02 0.  0.
        -12    1    1    2    0    0 -0.26371350778E+02 -0.17744530520E+02  0.25303073045E+01  0.31886030801E+02  0.00000000000E+00 0.  1.
         11    1    3    3    0    0  0.28484833629E+02  0.17784556655E+01 -0.40994172451E+01  0.28833207824E+02  0.51100000000E-03 0. -1.
        -11    1    3    3    0    0  0.85554960404E+01  0.11124088450E+02  0.89282632778E+01  0.16632971525E+02  0.51100000000E-03 0.  1.
        -12    1    3    3    0    0 -0.10668978891E+02  0.48419864038E+01 -0.73591533373E+01  0.13835789849E+02  0.00000000000E+00 0.  1.
</event>
<event>
 7    1  0.6198176E-013  0.5930193E+02  0.7816164E-02  0.1266605E+00
        -11   -1    0    0    0    0  0.00000000000E+00  0.00000000000E+00  0.45593999997E+02  0.45594000000E+02  0.51100000000E-03 0. -1.
         11   -1    0    0    0    0 -0.00000000000E+00 -0.00000000000E+00 -0.45593999997E+02  0.45594000000E+02  0.51100000000E-03 0.  1.
    9900012    2    1    2    0    0  0.15604792685E+02  0.78537646613E+01  0.26674523830E+02  0.59301931010E+02  0.49999976259E+02 0.  0.
        -12    1    1    2    0    0 -0.15604792685E+02 -0.78537646613E+01 -0.26674523830E+02  0.31886068990E+02  0.00000000000E+00 0.  1.
         11    1    3    3    0    0 -0.10344193873E+02  0.15145080400E+02  0.90819348507E+01  0.20466004693E+02  0.51100000000E-03 0. -1.
        -11    1    3    3    0    0  0.14925983547E+02 -0.49260071594E+01 -0.23840211677E+01  0.15897612669E+02  0.51100000000E-03 0.  1.
        -12    1    3    3    0    0  0.11023003011E+02 -0.23653085793E+01  0.19976610147E+02  0.22938313648E+02  0.00000000000E+00 0.  1.
</event>
<event>
 7    1  0.6198176E-013  0.5930199E+02  0.7816164E-02  0.1266605E+00
        -11   -1    0    0    0    0  0.00000000000E+00  0.00000000000E+00  0.45593999997E+02  0.45594000000E+02  0.51100000000E-03 0.  1.
         11   -1    0    0    0    0 -0.00000000000E+00 -0.00000000000E+00 -0.45593999997E+02  0.45594000000E+02  0.51100000000E-03 0. -1.
    9900012    2    1    2    0    0 -0.24805813222E+02 -0.13738397027E+02 -0.14582368864E+02  0.59301993600E+02  0.50000090408E+02 0.  0.
        -12    1    1    2    0    0  0.24805813222E+02  0.13738397027E+02  0.14582368864E+02  0.31886006400E+02  0.00000000000E+00 0.  1.
         11    1    3    3    0    0 -0.92274537494E-01  0.12288524380E+02  0.61345905830E+00  0.12304173207E+02  0.51100000000E-03 0. -1.
        -11    1    3    3    0    0  0.50350369827E+01 -0.13805761916E+01 -0.45516374673E+01  0.69263981933E+01  0.51100000000E-03 0.  1.
        -12    1    3    3    0    0 -0.29748575667E+02 -0.24646345215E+02 -0.10644190455E+02  0.40071422200E+02  0.00000000000E+00 0.  1.
</event>
<event>
 7    1  0.6198176E-013  0.5930194E+02  0.7816164E-02  0.1266605E+00
        -11   -1    0    0    0    0  0.00000000000E+00  0.00000000000E+00  0.45593999997E+02  0.45594000000E+02  0.51100000000E-03 0. -1.
         11   -1    0    0    0    0 -0.00000000000E+00 -0.00000000000E+00 -0.45593999997E+02  0.45594000000E+02  0.51100000000E-03 0.  1.
    9900012    2    1    2    0    0 -0.92018114335E+01 -0.30504932387E+02  0.12232559762E+01  0.59301943662E+02  0.49999999334E+02 0.  0.
        -12    1    1    2    0    0  0.92018114335E+01  0.30504932387E+02 -0.12232559762E+01  0.31886056338E+02  0.00000000000E+00 0.  1.
         11    1    3    3    0    0 -0.11500003927E+02 -0.88124185284E+01 -0.36646247976E+00  0.14492863956E+02  0.51100000000E-03 0. -1.
        -11    1    3    3    0    0 -0.98328575916E-02 -0.31698326323E+02 -0.57123709143E+01  0.32208929974E+02  0.51100000000E-03 0.  1.
         12    1    3    3    0    0  0.23080253509E+01  0.10005812465E+02  0.73020893703E+01  0.12600149732E+02  0.00000000000E+00 0. -1.
</event>
<event>
 7    1  0.6198176E-013  0.5930195E+02  0.7816164E-02  0.1266605E+00
        -11   -1    0    0    0    0  0.00000000000E+00  0.00000000000E+00  0.45593999997E+02  0.45594000000E+02  0.51100000000E-03 0.  1.
         11   -1    0    0    0    0 -0.00000000000E+00 -0.00000000000E+00 -0.45593999997E+02  0.45594000000E+02  0.51100000000E-03 0. -1.
    9900012    2    1    2    0    0 -0.13689216604E+02 -0.28794837869E+02  0.42759147599E+00  0.59301950172E+02  0.50000011206E+02 0.  0.
        -12    1    1    2    0    0  0.13689216604E+02  0.28794837869E+02 -0.42759147599E+00  0.31886049828E+02  0.00000000000E+00 0.  1.
         11    1    3    3    0    0 -0.95231966682E+01 -0.85287533363E+00 -0.14556868775E+02  0.17416116097E+02  0.51100000000E-03 0. -1.
        -11    1    3    3    0    0 -0.21670251580E+01  0.53107494661E+01  0.30758592528E+01  0.65085304279E+01  0.51100000000E-03 0.  1.
         12    1    3    3    0    0 -0.19989947778E+01 -0.33252712002E+02  0.11908600998E+02  0.35377303647E+02  0.00000000000E+00 0. -1.
</event>
<event>
 7    1  0.6198176E-013  0.5930196E+02  0.7816164E-02  0.1266605E+00
        -11   -1    0    0    0    0  0.00000000000E+00  0.00000000000E+00  0.45593999997E+02  0.45594000000E+02  0.51100000000E-03 0. -1.
         11   -1    0    0    0    0 -0.00000000000E+00 -0.00000000000E+00 -0.45593999997E+02  0.45594000000E+02  0.51100000000E-03 0.  1.
    9900012    2    1    2    0    0  0.13007719067E+02  0.28267262896E+02  0.69627859668E+01  0.59301963943E+02  0.50000036321E+02 0.  0.
        -12    1    1    2    0    0 -0.13007719067E+02 -0.28267262896E+02 -0.69627859668E+01  0.31886036057E+02  0.00000000000E+00 0.  1.
         11    1    3    3    0    0  0.11193282538E+02  0.31205503289E+02 -0.10719820089E+02  0.34842324154E+02  0.51100000000E-03 0. -1.
        -11    1    3    3    0    0  0.73655896491E+01 -0.46716442512E+01  0.40063503454E+01  0.95982818379E+01  0.51100000000E-03 0.  1.
        -12    1    3    3    0    0 -0.55511531199E+01  0.17334038588E+01  0.13676255710E+02  0.14861357951E+02  0.00000000000E+00 0.  1.
</event>
<event>
 7    1  0.1156356E-012  0.5930194E+02  0.7816164E-02  0.1266605E+00
        -11   -1    0    0    0    0  0.00000000000E+00  0.00000000000E+00  0.45593999997E+02  0.45594000000E+02  0.51100000000E-03 0.  1.
         11   -1    0    0    0    0 -0.00000000000E+00 -0.00000000000E+00 -0.45593999997E+02  0.45594000000E+02  0.51100000000E-03 0. -1.
    9900012    2    1    2    0    0 -0.22609070013E+02 -0.19865348782E+02 -0.10531786925E+02  0.59301942468E+02  0.49999997156E+02 0.  0.
        -12    1    1    2    0    0  0.22609070013E+02  0.19865348782E+02  0.10531786925E+02  0.31886057532E+02  0.00000000000E+00 0.  1.
         11    1    3    3    0    0 -0.27838077350E+02 -0.39584883412E+01 -0.90312438206E+01  0.29532889221E+02  0.51100000000E-03 0. -1.
        -11    1    3    3    0    0 -0.34617105236E+01 -0.19505478903E+02 -0.35913428523E+01  0.20133178853E+02  0.51100000000E-03 0.  1.
        -12    1    3    3    0    0  0.86907178608E+01  0.35986184617E+01  0.20907997479E+01  0.96358743949E+01  0.00000000000E+00 0.  1.
</event>
<event>
 7    1  0.6198176E-013  0.5930194E+02  0.7816164E-02  0.1266605E+00
        -11   -1    0    0    0    0  0.00000000000E+00  0.00000000000E+00  0.45593999997E+02  0.45594000000E+02  0.51100000000E-03 0.  1.
         11   -1    0    0    0    0 -0.00000000000E+00 -0.00000000000E+00 -0.45593999997E+02  0.45594000000E+02  0.51100000000E-03 0. -1.
    9900012    2    1    2    0    0  0.79744525229E+01  0.30838691038E+02 -0.14504550705E+01  0.59301943833E+02  0.49999999644E+02 0.  0.
        -12    1    1    2    0    0 -0.79744525229E+01 -0.30838691038E+02  0.14504550705E+01  0.31886056167E+02  0.00000000000E+00 0.  1.
         11    1    3    3    0    0  0.14891938177E+02  0.24815730495E+02 -0.78434249369E+00  0.28951778806E+02  0.51100000000E-03 0. -1.
        -11    1    3    3    0    0  0.10389413311E+00  0.16099107196E+02 -0.56980560896E+01  0.17078052874E+02  0.51100000000E-03 0.  1.
        -12    1    3    3    0    0 -0.70213797868E+01 -0.10076146652E+02  0.50319435128E+01  0.13272112152E+02  0.00000000000E+00 0.  1.
</event>
<event>
 7    1  0.6198176E-013  0.5930196E+02  0.7816164E-02  0.1266605E+00
        -11   -1    0    0    0    0  0.00000000000E+00  0.00000000000E+00  0.45593999997E+02  0.45594000000E+02  0.51100000000E-03 0. -1.
         11   -1    0    0    0    0 -0.00000000000E+00 -0.00000000000E+00 -0.45593999997E+02  0.45594000000E+02  0.51100000000E-03 0.  1.
    9900012    2    1    2    0    0  0.10945834258E+02  0.96493867889E+01  0.28351328675E+02  0.59301956177E+02  0.50000022158E+02 0.  0.
        -12    1    1    2    0    0 -0.10945834258E+02 -0.96493867889E+01 -0.28351328675E+02  0.31886043823E+02  0.00000000000E+00 0.  1.
         11    1    3    3    0    0  0.92584540945E+01 -0.49749830917E+00  0.11033855128E+02  0.14412232167E+02  0.51100000000E-03 0. -1.
        -11    1    3    3    0    0  0.11306471868E+02 -0.33830925955E+01 -0.82543442847E+01  0.14401938114E+02  0.51100000000E-03 0.  1.
        -12    1    3    3    0    0 -0.96190917049E+01  0.13529977694E+02  0.25571817832E+02  0.30487785896E+02  0.00000000000E+00 0.  1.
</event>
<event>
 7    1  0.6198176E-013  0.5930195E+02  0.7816164E-02  0.1266605E+00
        -11   -1    0    0    0    0  0.00000000000E+00  0.00000000000E+00  0.45593999997E+02  0.45594000000E+02  0.51100000000E-03 0.  1.
         11   -1    0    0    0    0 -0.00000000000E+00 -0.00000000000E+00 -0.45593999997E+02  0.45594000000E+02  0.51100000000E-03 0. -1.
    9900012    2    1    2    0    0  0.13845273810E+02 -0.27477472581E+02 -0.83676352141E+01  0.59301946224E+02  0.50000004005E+02 0.  0.
        -12    1    1    2    0    0 -0.13845273810E+02  0.27477472581E+02  0.83676352141E+01  0.31886053776E+02  0.00000000000E+00 0.  1.
         11    1    3    3    0    0 -0.89547299651E+01 -0.13682734942E+02 -0.38881547418E+01  0.16808395872E+02  0.51100000000E-03 0. -1.
        -11    1    3    3    0    0 -0.51532824168E+01 -0.89500958563E+01  0.63536661039E+01  0.12125576635E+02  0.51100000000E-03 0.  1.
        -12    1    3    3    0    0  0.27953286192E+02 -0.48446417833E+01 -0.10833146576E+02  0.30367973717E+02  0.00000000000E+00 0.  1.
</event>
<event>
 7    1  0.6198176E-013  0.5930195E+02  0.7816164E-02  0.1266605E+00
        -11   -1    0    0    0    0  0.00000000000E+00  0.00000000000E+00  0.45593999997E+02  0.45594000000E+02  0.51100000000E-03 0.  1.
         11   -1    0    0    0    0 -0.00000000000E+00 -0.00000000000E+00 -0.45593999997E+02  0.45594000000E+02  0.51100000000E-03 0. -1.
    9900012    2    1    2    0    0 -0.10127982268E+01 -0.17013263340E+02 -0.26948906885E+02  0.59301945493E+02  0.50000002672E+02 0.  0.
        -12    1    1    2    0    0  0.10127982268E+01  0.17013263340E+02  0.26948906885E+02  0.31886054507E+02  0.00000000000E+00 0.  1.
         11    1    3    3    0    0  0.33798409236E+01 -0.26117759836E+02 -0.20417736154E+02  0.33323334969E+02  0.51100000000E-03 0. -1.
        -11    1    3    3    0    0  0.82544190593E+01 -0.11715010585E+01 -0.47258198062E+01  0.95833825886E+01  0.51100000000E-03 0.  1.
         12    1    3    3    0    0 -0.12647058210E+02  0.10275997554E+02 -0.18053509247E+01  0.16395227936E+02  0.00000000000E+00 0. -1.
</event>
<event>
 7    1  0.6198176E-013  0.5930194E+02  0.7816164E-02  0.1266605E+00
        -11   -1    0    0    0    0  0.00000000000E+00  0.00000000000E+00  0.45593999997E+02  0.45594000000E+02  0.51100000000E-03 0.  1.
         11   -1    0    0    0    0 -0.00000000000E+00 -0.00000000000E+00 -0.45593999997E+02  0.45594000000E+02  0.51100000000E-03 0. -1.
    9900012    2    1    2    0    0  0.25126681707E+02  0.26779162003E+01 -0.19447351652E+02  0.59301939487E+02  0.49999991719E+02 0.  0.
        -12    1    1    2    0    0 -0.25126681707E+02 -0.26779162003E+01  0.19447351652E+02  0.31886060513E+02  0.00000000000E+00 0.  1.
         11    1    3    3    0    0  0.10508942408E+02  0.46058124896E+01 -0.10101386872E+02  0.15286902767E+02  0.51100000000E-03 0. -1.
        -11    1    3    3    0    0  0.10501389698E+02  0.17357132648E+02  0.33508544821E+01  0.20561553087E+02  0.51100000000E-03 0.  1.
        -12    1    3    3    0    0  0.41163496002E+01 -0.19285028937E+02 -0.12696819262E+02  0.23453483633E+02  0.00000000000E+00 0.  1.
</event>
<event>
 7    1  0.6198176E-013  0.5930196E+02  0.7816164E-02  0.1266605E+00
        -11   -1    0    0    0    0  0.00000000000E+00  0.00000000000E+00  0.45593999997E+02  0.45594000000E+02  0.51100000000E-03 0.  1.
         11   -1    0    0    0    0 -0.00000000000E+00 -0.00000000000E+00 -0.45593999997E+02  0.45594000000E+02  0.51100000000E-03 0. -1.
    9900012    2    1    2    0    0 -0.20445413500E+02  0.11054654630E+02 -0.21828859283E+02  0.59301961993E+02  0.50000032765E+02 0.  0.
        -12    1    1    2    0    0  0.20445413500E+02 -0.11054654630E+02  0.21828859283E+02  0.31886038007E+02  0.00000000000E+00 0.  1.
         11    1    3    3    0    0  0.16201934731E+01 -0.13185116898E+02 -0.15291808363E+02  0.20256153084E+02  0.51100000000E-03 0. -1.
        -11    1    3    3    0    0  0.20801607098E+01 -0.13636537663E+01  0.15563516988E+01  0.29340843622E+01  0.51100000000E-03 0.  1.
         12    1    3    3    0    0 -0.24145767682E+02  0.25603425294E+02 -0.80934026192E+01  0.36111724547E+02  0.00000000000E+00 0. -1.
</event>
<event>
 7    1  0.6198176E-013  0.5930193E+02  0.7816164E-02  0.1266605E+00
        -11   -1    0    0    0    0  0.00000000000E+00  0.00000000000E+00  0.45593999997E+02  0.45594000000E+02  0.51100000000E-03 0.  1.
         11   -1    0    0    0    0 -0.00000000000E+00 -0.00000000000E+00 -0.45593999997E+02  0.45594000000E+02  0.51100000000E-03 0. -1.
    9900012    2    1    2    0    0 -0.17533813808E+02 -0.25925182459E+02  0.60968722603E+01  0.59301928377E+02  0.49999971457E+02 0.  0.
        -12    1    1    2    0    0  0.17533813808E+02  0.25925182459E+02 -0.60968722603E+01  0.31886071623E+02  0.00000000000E+00 0.  1.
         11    1    3    3    0    0 -0.96296845897E+01 -0.13459341935E+02  0.35339894750E+01  0.16922582323E+02  0.51100000000E-03 0. -1.
        -11    1    3    3    0    0 -0.17530291712E+02 -0.15035028437E+02 -0.10975563503E+02  0.25570025461E+02  0.51100000000E-03 0.  1.
         12    1    3    3    0    0  0.96261624942E+01  0.25691879125E+01  0.13538446288E+02  0.16809320593E+02  0.00000000000E+00 0. -1.
</event>
<event>
 7    1  0.6198176E-013  0.5930192E+02  0.7816164E-02  0.1266605E+00
        -11   -1    0    0    0    0  0.00000000000E+00  0.00000000000E+00  0.45593999997E+02  0.45594000000E+02  0.51100000000E-03 0.  1.
         11   -1    0    0    0    0 -0.00000000000E+00 -0.00000000000E+00 -0.45593999997E+02  0.45594000000E+02  0.51100000000E-03 0. -1.
    9900012    2    1    2    0    0 -0.12019262845E+02 -0.52177465228E+01 -0.29069482560E+02  0.59301915662E+02  0.49999948267E+02 0.  0.
        -12    1    1    2    0    0  0.12019262845E+02  0.52177465228E+01  0.29069482560E+02  0.31886084338E+02  0.00000000000E+00 0.  1.
         11    1    3    3    0    0  0.68029016744E+01 -0.42686395024E+01  0.41483490978E+01  0.90393337637E+01  0.51100000000E-03 0. -1.
        -11    1    3    3    0    0 -0.74450348709E-01  0.13135307488E+02 -0.18095330844E+02  0.22360296158E+02  0.51100000000E-03 0.  1.
         12    1    3    3    0    0 -0.18747714171E+02 -0.14084414508E+02 -0.15122500814E+02  0.27902285740E+02  0.00000000000E+00 0. -1.
</event>
<event>
 7    1  0.6198176E-013  0.5930193E+02  0.7816164E-02  0.1266605E+00
        -11   -1    0    0    0    0  0.00000000000E+00  0.00000000000E+00  0.45593999997E+02  0.45594000000E+02  0.51100000000E-03 0.  1.
         11   -1    0    0    0    0 -0.00000000000E+00 -0.00000000000E+00 -0.45593999997E+02  0.45594000000E+02  0.51100000000E-03 0. -1.
    9900012    2    1    2    0    0  0.17194134778E+02 -0.21449278710E+02 -0.16155850840E+02  0.59301931816E+02  0.49999977728E+02 0.  0.
        -12    1    1    2    0    0 -0.17194134778E+02  0.21449278710E+02  0.16155850840E+02  0.31886068184E+02  0.00000000000E+00 0.  1.
         11    1    3    3    0    0  0.62078319529E+01  0.35223872953E+01 -0.12189236661E+02  0.14125221430E+02  0.51100000000E-03 0. -1.
        -11    1    3    3    0    0  0.21382723000E+02 -0.82020146260E+01 -0.93307721208E+01  0.24729682478E+02  0.51100000000E-03 0.  1.
        -12    1    3    3    0    0 -0.10396420175E+02 -0.16769651379E+02  0.53641579424E+01  0.20447027908E+02  0.00000000000E+00 0.  1.
</event>
<event>
 7    1  0.6198176E-013  0.5930195E+02  0.7816164E-02  0.1266605E+00
        -11   -1    0    0    0    0  0.00000000000E+00  0.00000000000E+00  0.45593999997E+02  0.45594000000E+02  0.51100000000E-03 0.  1.
         11   -1    0    0    0    0 -0.00000000000E+00 -0.00000000000E+00 -0.45593999997E+02  0.45594000000E+02  0.51100000000E-03 0. -1.
    9900012    2    1    2    0    0 -0.22648143627E+02 -0.83040591786E+01 -0.20852443747E+02  0.59301949463E+02  0.50000009913E+02 0.  0.
        -12    1    1    2    0    0  0.22648143627E+02  0.83040591786E+01  0.20852443747E+02  0.31886050537E+02  0.00000000000E+00 0.  1.
         11    1    3    3    0    0 -0.24699126305E+02 -0.62530711272E+01  0.37879708208E+01  0.25758425067E+02  0.51100000000E-03 0. -1.
        -11    1    3    3    0    0 -0.11583426664E+01 -0.24331597932E+01  0.39441319589E+01  0.47768401148E+01  0.51100000000E-03 0.  1.
         12    1    3    3    0    0  0.32093253439E+01  0.38217174187E+00 -0.28584546527E+02  0.28766684281E+02  0.00000000000E+00 0. -1.
</event>
<event>
 7    1  0.6198176E-013  0.5930194E+02  0.7816164E-02  0.1266605E+00
        -11   -1    0    0    0    0  0.00000000000E+00  0.00000000000E+00  0.45593999997E+02  0.45594000000E+02  0.51100000000E-03 0.  1.
         11   -1    0    0    0    0 -0.00000000000E+00 -0.00000000000E+00 -0.45593999997E+02  0.45594000000E+02  0.51100000000E-03 0. -1.
    9900012    2    1    2    0    0 -0.42977481294E+01  0.22463058636E+02 -0.22218492852E+02  0.59301936165E+02  0.49999985661E+02 0.  0.
        -12    1    1    2    0    0  0.42977481294E+01 -0.22463058636E+02  0.22218492852E+02  0.31886063835E+02  0.00000000000E+00 0.  1.
         11    1    3    3    0    0 -0.94585252191E+01 -0.43074503755E+01 -0.19710591887E+02  0.22282846785E+02  0.51100000000E-03 0.  1.
        -11    1    3    3    0    0  0.69516289664E+01 -0.23278891123E+01 -0.28448834509E+01  0.78636871196E+01  0.51100000000E-03 0. -1.
         12    1    3    3    0    0 -0.17908518766E+01  0.29098398123E+02  0.33698248515E+00  0.29155402261E+02  0.00000000000E+00 0. -1.
</event>
<event>
 7    1  0.6198176E-013  0.5930198E+02  0.7816164E-02  0.1266605E+00
        -11   -1    0    0    0    0  0.00000000000E+00  0.00000000000E+00  0.45593999997E+02  0.45594000000E+02  0.51100000000E-03 0. -1.
         11   -1    0    0    0    0 -0.00000000000E+00 -0.00000000000E+00 -0.45593999997E+02  0.45594000000E+02  0.51100000000E-03 0.  1.
    9900012    2    1    2    0    0 -0.28714297698E+02 -0.13848562746E+02  0.65159012747E+00  0.59301981871E+02  0.50000069018E+02 0.  0.
        -12    1    1    2    0    0  0.28714297698E+02  0.13848562746E+02 -0.65159012747E+00  0.31886018129E+02  0.00000000000E+00 0.  1.
         11    1    3    3    0    0 -0.12461109211E+02 -0.17365364768E+02 -0.16177009065E+02  0.26805424056E+02  0.51100000000E-03 0. -1.
        -11    1    3    3    0    0  0.31724766615E+01  0.14901995689E+01 -0.30371033257E+01  0.46378119620E+01  0.51100000000E-03 0.  1.
        -12    1    3    3    0    0 -0.19425665149E+02  0.20266024526E+01  0.19865702518E+02  0.27858745853E+02  0.00000000000E+00 0.  1.
</event>
<event>
 7    1  0.6198176E-013  0.5930195E+02  0.7816164E-02  0.1266605E+00
        -11   -1    0    0    0    0  0.00000000000E+00  0.00000000000E+00  0.45593999997E+02  0.45594000000E+02  0.51100000000E-03 0. -1.
         11   -1    0    0    0    0 -0.00000000000E+00 -0.00000000000E+00 -0.45593999997E+02  0.45594000000E+02  0.51100000000E-03 0.  1.
    9900012    2    1    2    0    0  0.24197146864E+02 -0.55242343686E+01  0.20017519415E+02  0.59301950303E+02  0.50000011445E+02 0.  0.
        -12    1    1    2    0    0 -0.24197146864E+02  0.55242343686E+01 -0.20017519415E+02  0.31886049697E+02  0.00000000000E+00 0.  1.
         11    1    3    3    0    0 -0.81284266988E+01 -0.48262178948E+01 -0.80429228218E+01  0.12411780998E+02  0.51100000000E-03 0. -1.
        -11    1    3    3    0    0 -0.42436661213E+00  0.27139077369E+01  0.77029304643E+01  0.81780511263E+01  0.51100000000E-03 0.  1.
         12    1    3    3    0    0  0.32749940175E+02 -0.34119242106E+01  0.20357511773E+02  0.38712118179E+02  0.00000000000E+00 0. -1.
</event>
<event>
 7    1  0.6198176E-013  0.5930194E+02  0.7816164E-02  0.1266605E+00
        -11   -1    0    0    0    0  0.00000000000E+00  0.00000000000E+00  0.45593999997E+02  0.45594000000E+02  0.51100000000E-03 0.  1.
         11   -1    0    0    0    0 -0.00000000000E+00 -0.00000000000E+00 -0.45593999997E+02  0.45594000000E+02  0.51100000000E-03 0. -1.
    9900012    2    1    2    0    0  0.31561842129E+02 -0.44664553584E+01  0.78830721174E+00  0.59301944580E+02  0.50000001006E+02 0.  0.
        -12    1    1    2    0    0 -0.31561842129E+02  0.44664553584E+01 -0.78830721174E+00  0.31886055420E+02  0.00000000000E+00 0.  1.
         11    1    3    3    0    0  0.22765733542E+02  0.14520361827E+02 -0.10445613609E+02  0.28952208469E+02  0.51100000000E-03 0. -1.
        -11    1    3    3    0    0  0.30679891962E+01 -0.95246997022E+01 -0.46175978837E+01  0.11020647558E+02  0.51100000000E-03 0.  1.
        -12    1    3    3    0    0  0.57281193908E+01 -0.94621174833E+01  0.15851518705E+02  0.19329088553E+02  0.00000000000E+00 0.  1.
</event>
<event>
 7    1  0.6198176E-013  0.5930179E+02  0.7816164E-02  0.1266605E+00
        -11   -1    0    0    0    0  0.00000000000E+00  0.00000000000E+00  0.45593999997E+02  0.45594000000E+02  0.51100000000E-03 0. -1.
         11   -1    0    0    0    0 -0.00000000000E+00 -0.00000000000E+00 -0.45593999997E+02  0.45594000000E+02  0.51100000000E-03 0.  1.
    9900012    2    1    2    0    0  0.13664223914E+02 -0.28458877569E+02 -0.44845984105E+01  0.59301790590E+02  0.49999720165E+02 0.  0.
        -12    1    1    2    0    0 -0.13664223914E+02  0.28458877569E+02  0.44845984105E+01  0.31886209410E+02  0.00000000000E+00 0.  1.
         11    1    3    3    0    0 -0.10652842521E+01 -0.50479601528E+01  0.63931830178E+01  0.82152006428E+01  0.51100000000E-03 0. -1.
        -11    1    3    3    0    0  0.10095290850E+02 -0.35228720245E+02 -0.46286710110E+01  0.36937815624E+02  0.51100000000E-03 0.  1.
        -12    1    3    3    0    0  0.46342173161E+01  0.11817802829E+02 -0.62491104172E+01  0.14148774323E+02  0.00000000000E+00 0.  1.
</event>
<event>
 7    1  0.6198176E-013  0.5930195E+02  0.7816164E-02  0.1266605E+00
        -11   -1    0    0    0    0  0.00000000000E+00  0.00000000000E+00  0.45593999997E+02  0.45594000000E+02  0.51100000000E-03 0. -1.
         11   -1    0    0    0    0 -0.00000000000E+00 -0.00000000000E+00 -0.45593999997E+02  0.45594000000E+02  0.51100000000E-03 0.  1.
    9900012    2    1    2    0    0 -0.93554498009E+00 -0.19657691344E+02  0.25088244123E+02  0.59301951851E+02  0.50000014269E+02 0.  0.
        -12    1    1    2    0    0  0.93554498009E+00  0.19657691344E+02 -0.25088244123E+02  0.31886048149E+02  0.00000000000E+00 0.  1.
         11    1    3    3    0    0 -0.53862033095E+01 -0.14468257311E+02  0.22513468239E+01  0.15601609484E+02  0.51100000000E-03 0. -1.
        -11    1    3    3    0    0 -0.15821503185E+02 -0.22088997398E+01  0.56119295931E+01  0.16932009778E+02  0.51100000000E-03 0.  1.
         12    1    3    3    0    0  0.20272161515E+02 -0.29805342927E+01  0.17224967706E+02  0.26768332589E+02  0.00000000000E+00 0. -1.
</event>
<event>
 7    1  0.6198176E-013  0.5930189E+02  0.7816164E-02  0.1266605E+00
        -11   -1    0    0    0    0  0.00000000000E+00  0.00000000000E+00  0.45593999997E+02  0.45594000000E+02  0.51100000000E-03 0.  1.
         11   -1    0    0    0    0 -0.00000000000E+00 -0.00000000000E+00 -0.45593999997E+02  0.45594000000E+02  0.51100000000E-03 0. -1.
    9900012    2    1    2    0    0  0.11130123050E+02 -0.86098506565E+01 -0.28613191921E+02  0.59301891436E+02  0.49999904085E+02 0.  0.
        -12    1    1    2    0    0 -0.11130123050E+02  0.86098506565E+01  0.28613191921E+02  0.31886108564E+02  0.00000000000E+00 0.  1.
         11    1    3    3    0    0  0.21976495879E+02 -0.11400144105E+02 -0.20288220177E+02  0.32008460365E+02  0.51100000000E-03 0. -1.
        -11    1    3    3    0    0 -0.13228701845E+01 -0.91179288172E+01 -0.77418565807E+01  0.12034240941E+02  0.51100000000E-03 0.  1.
        -12    1    3    3    0    0 -0.95235026442E+01  0.11908222266E+02 -0.58311516359E+00  0.15259190131E+02  0.00000000000E+00 0.  1.
</event>
<event>
 7    1  0.6198176E-013  0.5930200E+02  0.7816164E-02  0.1266605E+00
        -11   -1    0    0    0    0  0.00000000000E+00  0.00000000000E+00  0.45593999997E+02  0.45594000000E+02  0.51100000000E-03 0.  1.
         11   -1    0    0    0    0 -0.00000000000E+00 -0.00000000000E+00 -0.45593999997E+02  0.45594000000E+02  0.51100000000E-03 0. -1.
    9900012    2    1    2    0    0  0.13367017798E+02  0.17528211595E+02 -0.23039129679E+02  0.59302002087E+02  0.50000105886E+02 0.  0.
        -12    1    1    2    0    0 -0.13367017798E+02 -0.17528211595E+02  0.23039129679E+02  0.31885997913E+02  0.00000000000E+00 0.  1.
         11    1    3    3    0    0  0.25524862361E+01  0.76826088178E+01  0.38487107145E+00  0.81046770593E+01  0.51100000000E-03 0. -1.
        -11    1    3    3    0    0 -0.13385836087E+02  0.12994038792E+02 -0.18555356495E+02  0.26312105709E+02  0.51100000000E-03 0.  1.
        -12    1    3    3    0    0  0.24200367649E+02 -0.31484360154E+01 -0.48686442551E+01  0.24885219319E+02  0.00000000000E+00 0.  1.
</event>
<event>
 7    1  0.6198176E-013  0.5930196E+02  0.7816164E-02  0.1266605E+00
        -11   -1    0    0    0    0  0.00000000000E+00  0.00000000000E+00  0.45593999997E+02  0.45594000000E+02  0.51100000000E-03 0. -1.
         11   -1    0    0    0    0 -0.00000000000E+00 -0.00000000000E+00 -0.45593999997E+02  0.45594000000E+02  0.51100000000E-03 0.  1.
    9900012    2    1    2    0    0  0.11291431343E+02 -0.26295907484E+02  0.14062310349E+02  0.59301956901E+02  0.50000023478E+02 0.  0.
        -12    1    1    2    0    0 -0.11291431343E+02  0.26295907484E+02 -0.14062310349E+02  0.31886043099E+02  0.00000000000E+00 0.  1.
         11    1    3    3    0    0  0.10364934581E+02 -0.31718731669E+02  0.18137541085E+02  0.37979997425E+02  0.51100000000E-03 0. -1.
        -11    1    3    3    0    0  0.33453193837E+01  0.17279702926E+01  0.77950617441E+01  0.86567910317E+01  0.51100000000E-03 0.  1.
        -12    1    3    3    0    0 -0.24188226221E+01  0.36948538929E+01 -0.11870292479E+02  0.12665168444E+02  0.00000000000E+00 0.  1.
</event>
<event>
 7    1  0.6198176E-013  0.5930195E+02  0.7816164E-02  0.1266605E+00
        -11   -1    0    0    0    0  0.00000000000E+00  0.00000000000E+00  0.45593999997E+02  0.45594000000E+02  0.51100000000E-03 0. -1.
         11   -1    0    0    0    0 -0.00000000000E+00 -0.00000000000E+00 -0.45593999997E+02  0.45594000000E+02  0.51100000000E-03 0.  1.
    9900012    2    1    2    0    0 -0.29822444793E+02 -0.88510432076E+01 -0.70000746871E+01  0.59301949368E+02  0.50000009739E+02 0.  0.
        -12    1    1    2    0    0  0.29822444793E+02  0.88510432076E+01  0.70000746871E+01  0.31886050632E+02  0.00000000000E+00 0.  1.
         11    1    3    3    0    0 -0.44575319572E+01 -0.11927165883E+02  0.39381836419E+01  0.13328021901E+02  0.51100000000E-03 0. -1.
        -11    1    3    3    0    0 -0.28805784943E+02  0.72636395998E+01  0.40997643460E+01  0.29989027566E+02  0.51100000000E-03 0.  1.
         12    1    3    3    0    0  0.34408721066E+01 -0.41875169248E+01 -0.15038022675E+02  0.15984899900E+02  0.00000000000E+00 0. -1.
</event>
<event>
 7    1  0.6198176E-013  0.5930158E+02  0.7816164E-02  0.1266606E+00
        -11   -1    0    0    0    0  0.00000000000E+00  0.00000000000E+00  0.45593999997E+02  0.45594000000E+02  0.51100000000E-03 0.  1.
         11   -1    0    0    0    0 -0.00000000000E+00 -0.00000000000E+00 -0.45593999997E+02  0.45594000000E+02  0.51100000000E-03 0. -1.
    9900012    2    1    2    0    0 -0.47281133274E+01  0.18167179822E+02 -0.25774839176E+02  0.59301579490E+02  0.49999335167E+02 0.  0.
        -12    1    1    2    0    0  0.47281133274E+01 -0.18167179822E+02  0.25774839176E+02  0.31886420510E+02  0.00000000000E+00 0.  1.
         11    1    3    3    0    0  0.11468034203E+01  0.20454283943E+01  0.59368235102E+01  0.63831660681E+01  0.51100000000E-03 0. -1.
        -11    1    3    3    0    0 -0.78147118809E+01 -0.10735098491E+02 -0.31132100756E+01  0.13638333426E+02  0.51100000000E-03 0.  1.
         12    1    3    3    0    0  0.19397951333E+01  0.26856849920E+02 -0.28598452611E+02  0.39280079996E+02  0.00000000000E+00 0. -1.
</event>
<event>
 7    1  0.6198176E-013  0.5930199E+02  0.7816164E-02  0.1266605E+00
        -11   -1    0    0    0    0  0.00000000000E+00  0.00000000000E+00  0.45593999997E+02  0.45594000000E+02  0.51100000000E-03 0.  1.
         11   -1    0    0    0    0 -0.00000000000E+00 -0.00000000000E+00 -0.45593999997E+02  0.45594000000E+02  0.51100000000E-03 0. -1.
    9900012    2    1    2    0    0 -0.24797587698E+02  0.69275401560E+01 -0.18809743914E+02  0.59301989990E+02  0.50000083824E+02 0.  0.
        -12    1    1    2    0    0  0.24797587698E+02 -0.69275401560E+01  0.18809743914E+02  0.31886010010E+02  0.00000000000E+00 0.  1.
         11    1    3    3    0    0 -0.22099502438E+02  0.12730439637E+02 -0.15187704786E+01  0.25549144122E+02  0.51100000000E-03 0.  1.
        -11    1    3    3    0    0 -0.51899863455E+01 -0.94017434925E+01 -0.23683885043E+02  0.26004906267E+02  0.51100000000E-03 0. -1.
         12    1    3    3    0    0  0.24919010850E+01  0.35988440112E+01  0.63929116073E+01  0.77479396005E+01  0.00000000000E+00 0. -1.
</event>
<event>
 7    1  0.6198176E-013  0.5930194E+02  0.7816164E-02  0.1266605E+00
        -11   -1    0    0    0    0  0.00000000000E+00  0.00000000000E+00  0.45593999997E+02  0.45594000000E+02  0.51100000000E-03 0.  1.
         11   -1    0    0    0    0 -0.00000000000E+00 -0.00000000000E+00 -0.45593999997E+02  0.45594000000E+02  0.51100000000E-03 0. -1.
    9900012    2    1    2    0    0  0.21188427662E+02  0.14607940029E+02 -0.18824966769E+02  0.59301941094E+02  0.49999994650E+02 0.  0.
        -12    1    1    2    0    0 -0.21188427662E+02 -0.14607940029E+02  0.18824966769E+02  0.31886058906E+02  0.00000000000E+00 0.  1.
         11    1    3    3    0    0  0.66020560513E+01  0.21125515721E+02  0.11726299528E+01  0.22164151683E+02  0.51100000000E-03 0. -1.
        -11    1    3    3    0    0  0.20553208289E+02  0.98051409213E+00 -0.87447314260E+01  0.22357685632E+02  0.51100000000E-03 0.  1.
         12    1    3    3    0    0 -0.59668366779E+01 -0.74980897842E+01 -0.11252865296E+02  0.14780103779E+02  0.00000000000E+00 0. -1.
</event>
<event>
 7    1  0.6198176E-013  0.5930198E+02  0.7816164E-02  0.1266605E+00
        -11   -1    0    0    0    0  0.00000000000E+00  0.00000000000E+00  0.45593999997E+02  0.45594000000E+02  0.51100000000E-03 0.  1.
         11   -1    0    0    0    0 -0.00000000000E+00 -0.00000000000E+00 -0.45593999997E+02  0.45594000000E+02  0.51100000000E-03 0. -1.
    9900012    2    1    2    0    0  0.38553612051E+00 -0.30023740949E+02 -0.10730534681E+02  0.59301983736E+02  0.50000072418E+02 0.  0.
        -12    1    1    2    0    0 -0.38553612051E+00  0.30023740949E+02  0.10730534681E+02  0.31886016264E+02  0.00000000000E+00 0.  1.
         11    1    3    3    0    0  0.44678133227E-01 -0.12469578805E+02  0.98538417752E+01  0.15893098808E+02  0.51100000000E-03 0. -1.
        -11    1    3    3    0    0 -0.44872319076E+01  0.70466452425E+01  0.31093169442E+01  0.89139391678E+01  0.51100000000E-03 0.  1.
         12    1    3    3    0    0  0.48280898949E+01 -0.24600807386E+02 -0.23693693400E+02  0.34494945760E+02  0.00000000000E+00 0. -1.
</event>
<event>
 7    1  0.6198176E-013  0.5930193E+02  0.7816164E-02  0.1266605E+00
        -11   -1    0    0    0    0  0.00000000000E+00  0.00000000000E+00  0.45593999997E+02  0.45594000000E+02  0.51100000000E-03 0. -1.
         11   -1    0    0    0    0 -0.00000000000E+00 -0.00000000000E+00 -0.45593999997E+02  0.45594000000E+02  0.51100000000E-03 0.  1.
    9900012    2    1    2    0    0  0.18729192974E+01 -0.31268266183E+02  0.59589442916E+01  0.59301932293E+02  0.49999978598E+02 0.  0.
        -12    1    1    2    0    0 -0.18729192974E+01  0.31268266183E+02 -0.59589442916E+01  0.31886067707E+02  0.00000000000E+00 0.  1.
         11    1    3    3    0    0  0.61273042807E+01 -0.40976060273E+01 -0.17679718472E+01  0.75802346677E+01  0.51100000000E-03 0. -1.
        -11    1    3    3    0    0  0.58000620486E+01 -0.26216607003E+02 -0.12115099345E+02  0.29457203447E+02  0.51100000000E-03 0.  1.
        -12    1    3    3    0    0 -0.10054447032E+02 -0.95405315203E+00  0.19842015484E+02  0.22264494178E+02  0.00000000000E+00 0.  1.
</event>
<event>
 7    1  0.6198176E-013  0.5930194E+02  0.7816164E-02  0.1266605E+00
        -11   -1    0    0    0    0  0.00000000000E+00  0.00000000000E+00  0.45593999997E+02  0.45594000000E+02  0.51100000000E-03 0.  1.
         11   -1    0    0    0    0 -0.00000000000E+00 -0.00000000000E+00 -0.45593999997E+02  0.45594000000E+02  0.51100000000E-03 0. -1.
    9900012    2    1    2    0    0 -0.15975981756E+01  0.10058512123E+01 -0.31830122648E+02  0.59301940908E+02  0.49999994311E+02 0.  0.
        -12    1    1    2    0    0  0.15975981756E+01 -0.10058512123E+01  0.31830122648E+02  0.31886059092E+02  0.00000000000E+00 0.  1.
         11    1    3    3    0    0 -0.18090761533E+02 -0.16377617200E+01 -0.13523217644E+02  0.22645867879E+02  0.51100000000E-03 0. -1.
        -11    1    3    3    0    0 -0.35910377201E+01 -0.80226145851E+01 -0.71254410580E+01  0.11315025728E+02  0.51100000000E-03 0.  1.
        -12    1    3    3    0    0  0.20084201077E+02  0.10666227517E+02 -0.11181463946E+02  0.25341047302E+02  0.00000000000E+00 0.  1.
</event>
<event>
 7    1  0.6198176E-013  0.5930195E+02  0.7816164E-02  0.1266605E+00
        -11   -1    0    0    0    0  0.00000000000E+00  0.00000000000E+00  0.45593999997E+02  0.45594000000E+02  0.51100000000E-03 0.  1.
         11   -1    0    0    0    0 -0.00000000000E+00 -0.00000000000E+00 -0.45593999997E+02  0.45594000000E+02  0.51100000000E-03 0. -1.
    9900012    2    1    2    0    0  0.62533773635E+01  0.29567181233E+02 -0.10168453605E+02  0.59301946885E+02  0.50000005211E+02 0.  0.
        -12    1    1    2    0    0 -0.62533773635E+01 -0.29567181233E+02  0.10168453605E+02  0.31886053115E+02  0.00000000000E+00 0.  1.
         11    1    3    3    0    0  0.18005223735E+02  0.11052880825E+02  0.55457050349E+01  0.21842827218E+02  0.51100000000E-03 0. -1.
        -11    1    3    3    0    0  0.29558885485E+01  0.11854336354E+02  0.31621389581E+01  0.12619892653E+02  0.51100000000E-03 0.  1.
        -12    1    3    3    0    0 -0.14707734920E+02  0.66599640536E+01 -0.18876297598E+02  0.24839227014E+02  0.00000000000E+00 0.  1.
</event>
<event>
 7    1  0.6418554E-013  0.5930195E+02  0.7816164E-02  0.1266605E+00
        -11   -1    0    0    0    0  0.00000000000E+00  0.00000000000E+00  0.45593999997E+02  0.45594000000E+02  0.51100000000E-03 0.  1.
         11   -1    0    0    0    0 -0.00000000000E+00 -0.00000000000E+00 -0.45593999997E+02  0.45594000000E+02  0.51100000000E-03 0. -1.
    9900012    2    1    2    0    0 -0.25737789936E+02  0.15327718279E+02 -0.10924638356E+02  0.59301945028E+02  0.50000001825E+02 0.  0.
        -12    1    1    2    0    0  0.25737789936E+02 -0.15327718279E+02  0.10924638356E+02  0.31886054972E+02  0.00000000000E+00 0.  1.
         11    1    3    3    0    0  0.14600431996E+01  0.17032150646E+02 -0.98508281837E+01  0.19729792141E+02  0.51100000000E-03 0. -1.
        -11    1    3    3    0    0  0.22381446812E+01  0.74870344592E+01  0.31913545955E+01  0.84409549829E+01  0.51100000000E-03 0.  1.
        -12    1    3    3    0    0 -0.29435977817E+02 -0.91914668258E+01 -0.42651647680E+01  0.31131197904E+02  0.00000000000E+00 0.  1.
</event>
<event>
 7    1  0.7168289E-013  0.5930194E+02  0.7816164E-02  0.1266605E+00
        -11   -1    0    0    0    0  0.00000000000E+00  0.00000000000E+00  0.45593999997E+02  0.45594000000E+02  0.51100000000E-03 0.  1.
         11   -1    0    0    0    0 -0.00000000000E+00 -0.00000000000E+00 -0.45593999997E+02  0.45594000000E+02  0.51100000000E-03 0. -1.
    9900012    2    1    2    0    0  0.58504772379E+01 -0.29121671035E+02 -0.11593996578E+02  0.59301944044E+02  0.50000000030E+02 0.  0.
        -12    1    1    2    0    0 -0.58504772379E+01  0.29121671035E+02  0.11593996578E+02  0.31886055956E+02  0.00000000000E+00 0.  1.
         11    1    3    3    0    0  0.99594219153E+01 -0.13414799511E+02 -0.35714163390E+01  0.17085138154E+02  0.51100000000E-03 0. -1.
        -11    1    3    3    0    0 -0.24159806741E+01 -0.28461311814E+02 -0.60981659370E+01  0.29207376823E+02  0.51100000000E-03 0.  1.
        -12    1    3    3    0    0 -0.16929640033E+01  0.12754440291E+02 -0.19244143022E+01  0.13009429067E+02  0.00000000000E+00 0.  1.
</event>
<event>
 7    1  0.6198176E-013  0.5930193E+02  0.7816164E-02  0.1266605E+00
        -11   -1    0    0    0    0  0.00000000000E+00  0.00000000000E+00  0.45593999997E+02  0.45594000000E+02  0.51100000000E-03 0.  1.
         11   -1    0    0    0    0 -0.00000000000E+00 -0.00000000000E+00 -0.45593999997E+02  0.45594000000E+02  0.51100000000E-03 0. -1.
    9900012    2    1    2    0    0  0.28937133246E+02  0.12562192456E+02 -0.46427264481E+01  0.59301933001E+02  0.49999979889E+02 0.  0.
        -12    1    1    2    0    0 -0.28937133246E+02 -0.12562192456E+02  0.46427264481E+01  0.31886066999E+02  0.00000000000E+00 0.  1.
         11    1    3    3    0    0  0.58276781049E+01  0.16333885336E+02 -0.55252004240E+01  0.18201249470E+02  0.51100000000E-03 0. -1.
        -11    1    3    3    0    0  0.82003358175E+01  0.10699699497E+02  0.11543510050E+02  0.17747723836E+02  0.51100000000E-03 0.  1.
         12    1    3    3    0    0  0.14909119324E+02 -0.14471392377E+02 -0.10661036074E+02  0.23352959695E+02  0.00000000000E+00 0. -1.
</event>
<event>
 7    1  0.6198176E-013  0.5930196E+02  0.7816164E-02  0.1266605E+00
        -11   -1    0    0    0    0  0.00000000000E+00  0.00000000000E+00  0.45593999997E+02  0.45594000000E+02  0.51100000000E-03 0.  1.
         11   -1    0    0    0    0 -0.00000000000E+00 -0.00000000000E+00 -0.45593999997E+02  0.45594000000E+02  0.51100000000E-03 0. -1.
    9900012    2    1    2    0    0 -0.13370576054E+02 -0.17824245272E+02 -0.22808847667E+02  0.59301959866E+02  0.50000028885E+02 0.  0.
        -12    1    1    2    0    0  0.13370576054E+02  0.17824245272E+02  0.22808847667E+02  0.31886040134E+02  0.00000000000E+00 0.  1.
         11    1    3    3    0    0 -0.14076286234E+02  0.12370200923E+01 -0.31561350610E+02  0.34580209736E+02  0.51100000000E-03 0. -1.
        -11    1    3    3    0    0 -0.53941039521E+01 -0.79601114944E+01  0.70891684874E+01  0.11946381986E+02  0.51100000000E-03 0.  1.
        -12    1    3    3    0    0  0.60998141319E+01 -0.11101153870E+02  0.16633344555E+01  0.12775368144E+02  0.00000000000E+00 0.  1.
</event>
<event>
 7    1  0.6198176E-013  0.5930197E+02  0.7816164E-02  0.1266605E+00
        -11   -1    0    0    0    0  0.00000000000E+00  0.00000000000E+00  0.45593999997E+02  0.45594000000E+02  0.51100000000E-03 0. -1.
         11   -1    0    0    0    0 -0.00000000000E+00 -0.00000000000E+00 -0.45593999997E+02  0.45594000000E+02  0.51100000000E-03 0.  1.
    9900012    2    1    2    0    0  0.10585912635E+02  0.30037123195E+02 -0.15584375512E+01  0.59301967890E+02  0.50000043518E+02 0.  0.
        -12    1    1    2    0    0 -0.10585912635E+02 -0.30037123195E+02  0.15584375512E+01  0.31886032110E+02  0.00000000000E+00 0.  1.
         11    1    3    3    0    0 -0.43866244280E+01 -0.74267089138E+01  0.29222511444E+01  0.91070319630E+01  0.51100000000E-03 0.  1.
        -11    1    3    3    0    0  0.54930962080E+01  0.18214865909E+02  0.12558013123E+02  0.22796033424E+02  0.51100000000E-03 0. -1.
        -12    1    3    3    0    0  0.94794408550E+01  0.19248966200E+02 -0.17038701818E+02  0.27398902503E+02  0.00000000000E+00 0.  1.
</event>
<event>
 7    1  0.6198176E-013  0.5930200E+02  0.7816164E-02  0.1266605E+00
        -11   -1    0    0    0    0  0.00000000000E+00  0.00000000000E+00  0.45593999997E+02  0.45594000000E+02  0.51100000000E-03 0.  1.
         11   -1    0    0    0    0 -0.00000000000E+00 -0.00000000000E+00 -0.45593999997E+02  0.45594000000E+02  0.51100000000E-03 0. -1.
    9900012    2    1    2    0    0 -0.14613608047E+02  0.26070336200E+02  0.11112934178E+02  0.59301995613E+02  0.50000094078E+02 0.  0.
        -12    1    1    2    0    0  0.14613608047E+02 -0.26070336200E+02 -0.11112934178E+02  0.31886004387E+02  0.00000000000E+00 0.  1.
         11    1    3    3    0    0 -0.14610042524E+02 -0.59467344905E+01 -0.38860554503E+01  0.16245566192E+02  0.51100000000E-03 0. -1.
        -11    1    3    3    0    0 -0.12123987273E+02  0.15382704643E+02  0.52209559723E+01  0.20270102394E+02  0.51100000000E-03 0.  1.
        -12    1    3    3    0    0  0.12120421750E+02  0.16634366048E+02  0.97780336565E+01  0.22786327027E+02  0.00000000000E+00 0.  1.
</event>
<event>
 7    1  0.6198176E-013  0.5930206E+02  0.7816164E-02  0.1266604E+00
        -11   -1    0    0    0    0  0.00000000000E+00  0.00000000000E+00  0.45593999997E+02  0.45594000000E+02  0.51100000000E-03 0.  1.
         11   -1    0    0    0    0 -0.00000000000E+00 -0.00000000000E+00 -0.45593999997E+02  0.45594000000E+02  0.51100000000E-03 0. -1.
    9900012    2    1    2    0    0  0.21363042950E+02  0.21554418982E+02  0.97846998401E+01  0.59302063716E+02  0.50000218283E+02 0.  0.
        -12    1    1    2    0    0 -0.21363042950E+02 -0.21554418982E+02 -0.97846998401E+01  0.31885936284E+02  0.00000000000E+00 0.  1.
         11    1    3    3    0    0 -0.64066890340E+01 -0.41074773820E+01  0.11092355367E+01  0.76907371922E+01  0.51100000000E-03 0. -1.
        -11    1    3    3    0    0  0.42068132723E+01 -0.73047132961E+01  0.71622609897E+01  0.11061378621E+02  0.51100000000E-03 0.  1.
         12    1    3    3    0    0  0.23562918712E+02  0.32966609660E+02  0.15132033138E+01  0.40549947903E+02  0.00000000000E+00 0. -1.
</event>
<event>
 7    1  0.6198176E-013  0.5930192E+02  0.7816164E-02  0.1266605E+00
        -11   -1    0    0    0    0  0.00000000000E+00  0.00000000000E+00  0.45593999997E+02  0.45594000000E+02  0.51100000000E-03 0.  1.
         11   -1    0    0    0    0 -0.00000000000E+00 -0.00000000000E+00 -0.45593999997E+02  0.45594000000E+02  0.51100000000E-03 0. -1.
    9900012    2    1    2    0    0  0.29942179295E+01  0.30314845330E+02 -0.94216124521E+01  0.59301922010E+02  0.49999959846E+02 0.  0.
        -12    1    1    2    0    0 -0.29942179295E+01 -0.30314845330E+02  0.94216124521E+01  0.31886077990E+02  0.00000000000E+00 0.  1.
         11    1    3    3    0    0  0.86965676685E+01  0.54097308294E+01 -0.21582645622E+02  0.23889455188E+02  0.51100000000E-03 0. -1.
        -11    1    3    3    0    0  0.27805746479E+01 -0.29234139325E+01  0.48297344584E+00  0.40633985780E+01  0.51100000000E-03 0.  1.
         12    1    3    3    0    0 -0.84829243869E+01  0.27828528433E+02  0.11678059724E+02  0.31349068245E+02  0.00000000000E+00 0. -1.
</event>
<event>
 7    1  0.6198176E-013  0.5930194E+02  0.7816164E-02  0.1266605E+00
        -11   -1    0    0    0    0  0.00000000000E+00  0.00000000000E+00  0.45593999997E+02  0.45594000000E+02  0.51100000000E-03 0.  1.
         11   -1    0    0    0    0 -0.00000000000E+00 -0.00000000000E+00 -0.45593999997E+02  0.45594000000E+02  0.51100000000E-03 0. -1.
    9900012    2    1    2    0    0 -0.44706098825E+01  0.21850035314E+02 -0.22788387939E+02  0.59301936888E+02  0.49999986979E+02 0.  0.
        -12    1    1    2    0    0  0.44706098825E+01 -0.21850035314E+02  0.22788387939E+02  0.31886063112E+02  0.00000000000E+00 0.  1.
         11    1    3    3    0    0 -0.12444441594E+01  0.90476271106E+00 -0.83321868867E+01  0.84730499470E+01  0.51100000000E-03 0. -1.
        -11    1    3    3    0    0  0.11743609529E+02  0.21425649439E+01  0.10704366155E+02  0.16033914193E+02  0.51100000000E-03 0.  1.
         12    1    3    3    0    0 -0.14969775252E+02  0.18802707659E+02 -0.25160567206E+02  0.34794972748E+02  0.00000000000E+00 0. -1.
</event>
<event>
 7    1  0.6198176E-013  0.5930193E+02  0.7816164E-02  0.1266605E+00
        -11   -1    0    0    0    0  0.00000000000E+00  0.00000000000E+00  0.45593999997E+02  0.45594000000E+02  0.51100000000E-03 0. -1.
         11   -1    0    0    0    0 -0.00000000000E+00 -0.00000000000E+00 -0.45593999997E+02  0.45594000000E+02  0.51100000000E-03 0.  1.
    9900012    2    1    2    0    0  0.29770081606E+02 -0.99977421102E+01  0.55235077492E+01  0.59301925547E+02  0.49999966296E+02 0.  0.
        -12    1    1    2    0    0 -0.29770081606E+02  0.99977421102E+01 -0.55235077492E+01  0.31886074453E+02  0.00000000000E+00 0.  1.
         11    1    3    3    0    0  0.67067696870E+01 -0.26587915360E-01  0.11477946032E+02  0.13293784711E+02  0.51100000000E-03 0. -1.
        -11    1    3    3    0    0 -0.17501710868E+01 -0.11520152289E+02  0.10912886928E+02  0.15964589219E+02  0.51100000000E-03 0.  1.
         12    1    3    3    0    0  0.24813483006E+02  0.15489980936E+01 -0.16867325211E+02  0.30043551617E+02  0.00000000000E+00 0. -1.
</event>
<event>
 7    1  0.6198176E-013  0.5930193E+02  0.7816164E-02  0.1266605E+00
        -11   -1    0    0    0    0  0.00000000000E+00  0.00000000000E+00  0.45593999997E+02  0.45594000000E+02  0.51100000000E-03 0. -1.
         11   -1    0    0    0    0 -0.00000000000E+00 -0.00000000000E+00 -0.45593999997E+02  0.45594000000E+02  0.51100000000E-03 0.  1.
    9900012    2    1    2    0    0  0.13370690936E+02  0.66664907480E+01  0.28169198916E+02  0.59301933410E+02  0.49999980636E+02 0.  0.
        -12    1    1    2    0    0 -0.13370690936E+02 -0.66664907480E+01 -0.28169198916E+02  0.31886066590E+02  0.00000000000E+00 0.  1.
         11    1    3    3    0    0  0.57753566696E+01  0.10311139405E+02  0.78732693400E+01  0.14200799656E+02  0.51100000000E-03 0. -1.
        -11    1    3    3    0    0  0.17959757555E+02  0.57917469487E+01 -0.17768041961E+01  0.18954003734E+02  0.51100000000E-03 0.  1.
        -12    1    3    3    0    0 -0.10364423288E+02 -0.94363956061E+01  0.22072733772E+02  0.26147130020E+02  0.00000000000E+00 0.  1.
</event>
<event>
 7    1  0.6198176E-013  0.5930198E+02  0.7816164E-02  0.1266605E+00
        -11   -1    0    0    0    0  0.00000000000E+00  0.00000000000E+00  0.45593999997E+02  0.45594000000E+02  0.51100000000E-03 0. -1.
         11   -1    0    0    0    0 -0.00000000000E+00 -0.00000000000E+00 -0.45593999997E+02  0.45594000000E+02  0.51100000000E-03 0.  1.
    9900012    2    1    2    0    0 -0.47074193738E+01 -0.23047951672E+02  0.21525569601E+02  0.59301983941E+02  0.50000072792E+02 0.  0.
        -12    1    1    2    0    0  0.47074193738E+01  0.23047951672E+02 -0.21525569601E+02  0.31886016059E+02  0.00000000000E+00 0.  1.
         11    1    3    3    0    0  0.13063244334E+01  0.42225993111E+01 -0.44213634033E+01  0.62518223801E+01  0.51100000000E-03 0. -1.
        -11    1    3    3    0    0  0.14148274889E+02 -0.11358696625E+02  0.25787835607E+01  0.18326041479E+02  0.51100000000E-03 0.  1.
         12    1    3    3    0    0 -0.20162018697E+02 -0.15911854359E+02  0.23368149444E+02  0.34724120082E+02  0.00000000000E+00 0. -1.
</event>
<event>
 7    1  0.6198176E-013  0.5930194E+02  0.7816164E-02  0.1266605E+00
        -11   -1    0    0    0    0  0.00000000000E+00  0.00000000000E+00  0.45593999997E+02  0.45594000000E+02  0.51100000000E-03 0. -1.
         11   -1    0    0    0    0 -0.00000000000E+00 -0.00000000000E+00 -0.45593999997E+02  0.45594000000E+02  0.51100000000E-03 0.  1.
    9900012    2    1    2    0    0 -0.37233121552E+01 -0.18758141706E+02  0.25514509656E+02  0.59301935071E+02  0.49999983665E+02 0.  0.
        -12    1    1    2    0    0  0.37233121552E+01  0.18758141706E+02 -0.25514509656E+02  0.31886064929E+02  0.00000000000E+00 0.  1.
         11    1    3    3    0    0 -0.31011801689E+01  0.77833655772E+01  0.10069965903E+02  0.13099706550E+02  0.51100000000E-03 0. -1.
        -11    1    3    3    0    0  0.11162185986E+02  0.29205788230E+01  0.18672438595E+01  0.11688061282E+02  0.51100000000E-03 0.  1.
        -12    1    3    3    0    0 -0.11784317972E+02 -0.29462086106E+02  0.13577299893E+02  0.34514167239E+02  0.00000000000E+00 0.  1.
</event>
<event>
 7    1  0.6198176E-013  0.5930198E+02  0.7816164E-02  0.1266605E+00
        -11   -1    0    0    0    0  0.00000000000E+00  0.00000000000E+00  0.45593999997E+02  0.45594000000E+02  0.51100000000E-03 0.  1.
         11   -1    0    0    0    0 -0.00000000000E+00 -0.00000000000E+00 -0.45593999997E+02  0.45594000000E+02  0.51100000000E-03 0. -1.
    9900012    2    1    2    0    0 -0.30392258035E+00 -0.31819840698E+02  0.20306064918E+01  0.59301984355E+02  0.50000073548E+02 0.  0.
        -12    1    1    2    0    0  0.30392258035E+00  0.31819840698E+02 -0.20306064918E+01  0.31886015645E+02  0.00000000000E+00 0.  1.
         11    1    3    3    0    0 -0.15129135859E+02 -0.27729931292E+02 -0.49644743908E+00  0.31592503884E+02  0.51100000000E-03 0. -1.
        -11    1    3    3    0    0 -0.58266150445E+01 -0.18892291256E+01 -0.20182253973E+01  0.64491754187E+01  0.51100000000E-03 0.  1.
        -12    1    3    3    0    0  0.20651828323E+02 -0.22006802797E+01  0.45452793282E+01  0.21260305053E+02  0.00000000000E+00 0.  1.
</event>
<event>
 7    1  0.6198176E-013  0.5930198E+02  0.7816164E-02  0.1266605E+00
        -11   -1    0    0    0    0  0.00000000000E+00  0.00000000000E+00  0.45593999997E+02  0.45594000000E+02  0.51100000000E-03 0. -1.
         11   -1    0    0    0    0 -0.00000000000E+00 -0.00000000000E+00 -0.45593999997E+02  0.45594000000E+02  0.51100000000E-03 0.  1.
    9900012    2    1    2    0    0 -0.20472024334E+02  0.23254659766E+02  0.75389051497E+01  0.59301983127E+02  0.50000071308E+02 0.  0.
        -12    1    1    2    0    0  0.20472024334E+02 -0.23254659766E+02 -0.75389051497E+01  0.31886016873E+02  0.00000000000E+00 0.  1.
         11    1    3    3    0    0  0.12925386556E+02  0.90545367639E+01 -0.51579588892E+01  0.16602854990E+02  0.51100000000E-03 0.  1.
        -11    1    3    3    0    0 -0.14935528390E+02 -0.29718149172E+01  0.21936579038E+01  0.15385507059E+02  0.51100000000E-03 0. -1.
        -12    1    3    3    0    0 -0.18461882500E+02  0.17171937919E+02  0.10503206135E+02  0.27313621079E+02  0.00000000000E+00 0.  1.
</event>
<event>
 7    1  0.6198176E-013  0.5930196E+02  0.7816164E-02  0.1266605E+00
        -11   -1    0    0    0    0  0.00000000000E+00  0.00000000000E+00  0.45593999997E+02  0.45594000000E+02  0.51100000000E-03 0.  1.
         11   -1    0    0    0    0 -0.00000000000E+00 -0.00000000000E+00 -0.45593999997E+02  0.45594000000E+02  0.51100000000E-03 0. -1.
    9900012    2    1    2    0    0 -0.26802246122E+02 -0.63967845591E+01 -0.16044944061E+02  0.59301961052E+02  0.50000031049E+02 0.  0.
        -12    1    1    2    0    0  0.26802246122E+02  0.63967845591E+01  0.16044944061E+02  0.31886038948E+02  0.00000000000E+00 0.  1.
         11    1    3    3    0    0 -0.26354661267E+02 -0.36691295493E+01  0.61848083670E+01  0.27318172284E+02  0.51100000000E-03 0. -1.
        -11    1    3    3    0    0 -0.70309374459E+01 -0.81490971758E+01 -0.33583040377E+01  0.11274753763E+02  0.51100000000E-03 0.  1.
         12    1    3    3    0    0  0.65833525911E+01  0.54214421661E+01 -0.18871448390E+02  0.20709035005E+02  0.00000000000E+00 0. -1.
</event>
<event>
 7    1  0.6198176E-013  0.5930183E+02  0.7816164E-02  0.1266605E+00
        -11   -1    0    0    0    0  0.00000000000E+00  0.00000000000E+00  0.45593999997E+02  0.45594000000E+02  0.51100000000E-03 0.  1.
         11   -1    0    0    0    0 -0.00000000000E+00 -0.00000000000E+00 -0.45593999997E+02  0.45594000000E+02  0.51100000000E-03 0. -1.
    9900012    2    1    2    0    0 -0.94998896391E+01 -0.30323661116E+02 -0.26373647910E+01  0.59301827139E+02  0.49999786823E+02 0.  0.
        -12    1    1    2    0    0  0.94998896391E+01  0.30323661116E+02  0.26373647910E+01  0.31886172861E+02  0.00000000000E+00 0.  1.
         11    1    3    3    0    0 -0.91224425660E+01 -0.15235038832E+02  0.29134697272E+01  0.17994823497E+02  0.51100000000E-03 0. -1.
        -11    1    3    3    0    0 -0.18969136371E+02 -0.89566817063E+01 -0.70195899113E-01  0.20977492928E+02  0.51100000000E-03 0.  1.
        -12    1    3    3    0    0  0.18591689298E+02 -0.61319405781E+01 -0.54806386191E+01  0.20329510714E+02  0.00000000000E+00 0.  1.
</event>
<event>
 7    1  0.6198176E-013  0.5930196E+02  0.7816164E-02  0.1266605E+00
        -11   -1    0    0    0    0  0.00000000000E+00  0.00000000000E+00  0.45593999997E+02  0.45594000000E+02  0.51100000000E-03 0. -1.
         11   -1    0    0    0    0 -0.00000000000E+00 -0.00000000000E+00 -0.45593999997E+02  0.45594000000E+02  0.51100000000E-03 0.  1.
    9900012    2    1    2    0    0 -0.22727217701E+01  0.12717556117E+02  0.29151638479E+02  0.59301960361E+02  0.50000029788E+02 0.  0.
        -12    1    1    2    0    0  0.22727217701E+01 -0.12717556117E+02 -0.29151638479E+02  0.31886039639E+02  0.00000000000E+00 0.  1.
         11    1    3    3    0    0  0.11762270254E+00 -0.10644368851E+02  0.12837137948E+02  0.16676586411E+02  0.51100000000E-03 0. -1.
        -11    1    3    3    0    0  0.60977867596E+01 -0.43914511403E+01 -0.26364944099E+01  0.79636015419E+01  0.51100000000E-03 0.  1.
        -12    1    3    3    0    0 -0.84881312322E+01  0.27753376109E+02  0.18950994941E+02  0.34661772408E+02  0.00000000000E+00 0.  1.
</event>
<event>
 7    1  0.6311361E-013  0.5930194E+02  0.7816164E-02  0.1266605E+00
        -11   -1    0    0    0    0  0.00000000000E+00  0.00000000000E+00  0.45593999997E+02  0.45594000000E+02  0.51100000000E-03 0. -1.
         11   -1    0    0    0    0 -0.00000000000E+00 -0.00000000000E+00 -0.45593999997E+02  0.45594000000E+02  0.51100000000E-03 0.  1.
    9900012    2    1    2    0    0 -0.31163514156E+02 -0.36746214482E+01  0.56615970427E+01  0.59301935043E+02  0.49999983614E+02 0.  0.
        -12    1    1    2    0    0  0.31163514156E+02  0.36746214482E+01 -0.56615970427E+01  0.31886064957E+02  0.00000000000E+00 0.  1.
         11    1    3    3    0    0 -0.12117457615E+02 -0.85799082093E+01  0.16256531857E+02  0.22016412792E+02  0.51100000000E-03 0. -1.
        -11    1    3    3    0    0 -0.21354334743E+02  0.32226435902E+01  0.43840327251E+01  0.22036623771E+02  0.51100000000E-03 0.  1.
        -12    1    3    3    0    0  0.23082782019E+01  0.16826431709E+01 -0.14978967540E+02  0.15248898480E+02  0.00000000000E+00 0.  1.
</event>
<event>
 7    1  0.6198176E-013  0.5930193E+02  0.7816164E-02  0.1266605E+00
        -11   -1    0    0    0    0  0.00000000000E+00  0.00000000000E+00  0.45593999997E+02  0.45594000000E+02  0.51100000000E-03 0.  1.
         11   -1    0    0    0    0 -0.00000000000E+00 -0.00000000000E+00 -0.45593999997E+02  0.45594000000E+02  0.51100000000E-03 0. -1.
    9900012    2    1    2    0    0 -0.66894345007E+01  0.27621971882E+02 -0.14456820181E+02  0.59301929149E+02  0.49999972865E+02 0.  0.
        -12    1    1    2    0    0  0.66894345007E+01 -0.27621971882E+02  0.14456820181E+02  0.31886070851E+02  0.00000000000E+00 0.  1.
         11    1    3    3    0    0 -0.11326119516E+02 -0.60773775606E+00  0.88873135165E+01  0.14409534006E+02  0.51100000000E-03 0. -1.
        -11    1    3    3    0    0  0.50097791664E+01 -0.86449649356E+00  0.27753250359E+01  0.57920351172E+01  0.51100000000E-03 0.  1.
         12    1    3    3    0    0 -0.37309415116E+00  0.29094206131E+02 -0.26119458733E+02  0.39100360026E+02  0.00000000000E+00 0. -1.
</event>
<event>
 7    1  0.6198176E-013  0.5930195E+02  0.7816164E-02  0.1266605E+00
        -11   -1    0    0    0    0  0.00000000000E+00  0.00000000000E+00  0.45593999997E+02  0.45594000000E+02  0.51100000000E-03 0.  1.
         11   -1    0    0    0    0 -0.00000000000E+00 -0.00000000000E+00 -0.45593999997E+02  0.45594000000E+02  0.51100000000E-03 0. -1.
    9900012    2    1    2    0    0  0.30691841165E+02 -0.51672457030E+01 -0.69304098940E+01  0.59301950957E+02  0.50000012637E+02 0.  0.
        -12    1    1    2    0    0 -0.30691841165E+02  0.51672457030E+01  0.69304098940E+01  0.31886049043E+02  0.00000000000E+00 0.  1.
         11    1    3    3    0    0  0.40227967340E+01 -0.18864278187E+02  0.11536584003E+01  0.19322909021E+02  0.51100000000E-03 0. -1.
        -11    1    3    3    0    0  0.62276642390E+01  0.26895410411E+01  0.89163735852E+01  0.11203532972E+02  0.51100000000E-03 0.  1.
         12    1    3    3    0    0  0.20441380192E+02  0.11007491443E+02 -0.17000441880E+02  0.28775508964E+02  0.00000000000E+00 0. -1.
</event>
<event>
 7    1  0.6198176E-013  0.5930195E+02  0.7816164E-02  0.1266605E+00
        -11   -1    0    0    0    0  0.00000000000E+00  0.00000000000E+00  0.45593999997E+02  0.45594000000E+02  0.51100000000E-03 0. -1.
         11   -1    0    0    0    0 -0.00000000000E+00 -0.00000000000E+00 -0.45593999997E+02  0.45594000000E+02  0.51100000000E-03 0.  1.
    9900012    2    1    2    0    0  0.12505202542E+02 -0.92156071106E+00  0.29317072114E+02  0.59301951607E+02  0.50000013823E+02 0.  0.
        -12    1    1    2    0    0 -0.12505202542E+02  0.92156071106E+00 -0.29317072114E+02  0.31886048393E+02  0.00000000000E+00 0.  1.
         11    1    3    3    0    0  0.26314284612E+02 -0.17234922043E+01  0.32656733711E+02  0.41974685906E+02  0.51100000000E-03 0. -1.
        -11    1    3    3    0    0 -0.21996676147E+01 -0.14435559185E+01 -0.47387915340E+01  0.54201971153E+01  0.51100000000E-03 0.  1.
        -12    1    3    3    0    0 -0.11609414456E+02  0.22454874118E+01  0.13991299375E+01  0.11907068586E+02  0.00000000000E+00 0.  1.
</event>
<event>
 7    1  0.6198176E-013  0.5930195E+02  0.7816164E-02  0.1266605E+00
        -11   -1    0    0    0    0  0.00000000000E+00  0.00000000000E+00  0.45593999997E+02  0.45594000000E+02  0.51100000000E-03 0.  1.
         11   -1    0    0    0    0 -0.00000000000E+00 -0.00000000000E+00 -0.45593999997E+02  0.45594000000E+02  0.51100000000E-03 0. -1.
    9900012    2    1    2    0    0 -0.30882501914E+02 -0.50788160833E+01  0.60989001341E+01  0.59301954775E+02  0.50000019600E+02 0.  0.
        -12    1    1    2    0    0  0.30882501914E+02  0.50788160833E+01 -0.60989001341E+01  0.31886045225E+02  0.00000000000E+00 0.  1.
         11    1    3    3    0    0  0.93558123386E+00 -0.26468980985E+01 -0.12510044721E+02  0.12821177831E+02  0.51100000000E-03 0. -1.
        -11    1    3    3    0    0 -0.10592226669E+01  0.95204377867E+01  0.46947975395E+01  0.10667793235E+02  0.51100000000E-03 0.  1.
         12    1    3    3    0    0 -0.30758860481E+02 -0.11952355771E+02  0.13914147316E+02  0.35812983708E+02  0.00000000000E+00 0. -1.
</event>
<event>
 7    1  0.6198176E-013  0.5930189E+02  0.7816164E-02  0.1266605E+00
        -11   -1    0    0    0    0  0.00000000000E+00  0.00000000000E+00  0.45593999997E+02  0.45594000000E+02  0.51100000000E-03 0.  1.
         11   -1    0    0    0    0 -0.00000000000E+00 -0.00000000000E+00 -0.45593999997E+02  0.45594000000E+02  0.51100000000E-03 0. -1.
    9900012    2    1    2    0    0  0.72848370298E+01  0.21961313958E+02 -0.21939817385E+02  0.59301894120E+02  0.49999908979E+02 0.  0.
        -12    1    1    2    0    0 -0.72848370298E+01 -0.21961313958E+02  0.21939817385E+02  0.31886105880E+02  0.00000000000E+00 0.  1.
         11    1    3    3    0    0 -0.41994542440E+01  0.20087973567E+00  0.55492301424E+01  0.69620201127E+01  0.51100000000E-03 0. -1.
        -11    1    3    3    0    0  0.68400157059E+01 -0.50187148582E+01  0.51047661377E+01  0.99011085878E+01  0.51100000000E-03 0.  1.
         12    1    3    3    0    0  0.46442755679E+01  0.26779149081E+02 -0.32593813665E+02  0.42438765419E+02  0.00000000000E+00 0. -1.
</event>
<event>
 7    1  0.6198176E-013  0.5930183E+02  0.7816164E-02  0.1266605E+00
        -11   -1    0    0    0    0  0.00000000000E+00  0.00000000000E+00  0.45593999997E+02  0.45594000000E+02  0.51100000000E-03 0.  1.
         11   -1    0    0    0    0 -0.00000000000E+00 -0.00000000000E+00 -0.45593999997E+02  0.45594000000E+02  0.51100000000E-03 0. -1.
    9900012    2    1    2    0    0 -0.12085376175E+01 -0.21765583400E+02 -0.23270723558E+02  0.59301831230E+02  0.49999794284E+02 0.  0.
        -12    1    1    2    0    0  0.12085376175E+01  0.21765583400E+02  0.23270723558E+02  0.31886168770E+02  0.00000000000E+00 0.  1.
         11    1    3    3    0    0  0.11119627781E+02 -0.11776035336E+02 -0.33563440150E+01  0.16540440611E+02  0.51100000000E-03 0. -1.
        -11    1    3    3    0    0  0.93046827369E+00  0.92031544137E+01  0.33291904910E+01  0.98309374913E+01  0.51100000000E-03 0.  1.
         12    1    3    3    0    0 -0.13258633672E+02 -0.19192702478E+02 -0.23243570034E+02  0.32930453127E+02  0.00000000000E+00 0. -1.
</event>
<event>
 7    1  0.6198176E-013  0.5930199E+02  0.7816164E-02  0.1266605E+00
        -11   -1    0    0    0    0  0.00000000000E+00  0.00000000000E+00  0.45593999997E+02  0.45594000000E+02  0.51100000000E-03 0.  1.
         11   -1    0    0    0    0 -0.00000000000E+00 -0.00000000000E+00 -0.45593999997E+02  0.45594000000E+02  0.51100000000E-03 0. -1.
    9900012    2    1    2    0    0 -0.12187660737E+02 -0.12046692184E+02 -0.26889698947E+02  0.59301987765E+02  0.50000079766E+02 0.  0.
        -12    1    1    2    0    0  0.12187660737E+02  0.12046692184E+02  0.26889698947E+02  0.31886012235E+02  0.00000000000E+00 0.  1.
         11    1    3    3    0    0 -0.56903681189E+01  0.50446304776E+01  0.11211217023E+02  0.13546954395E+02  0.51100000000E-03 0. -1.
        -11    1    3    3    0    0 -0.44671956850E+01  0.15478079434E+01 -0.21183895988E+01  0.51806487500E+01  0.51100000000E-03 0.  1.
         12    1    3    3    0    0 -0.20300969333E+01 -0.18639130605E+02 -0.35982526371E+02  0.40574384620E+02  0.00000000000E+00 0. -1.
</event>
<event>
 7    1  0.6198176E-013  0.5930193E+02  0.7816164E-02  0.1266605E+00
        -11   -1    0    0    0    0  0.00000000000E+00  0.00000000000E+00  0.45593999997E+02  0.45594000000E+02  0.51100000000E-03 0. -1.
         11   -1    0    0    0    0 -0.00000000000E+00 -0.00000000000E+00 -0.45593999997E+02  0.45594000000E+02  0.51100000000E-03 0.  1.
    9900012    2    1    2    0    0 -0.13751671340E+02 -0.16495332962E+02  0.23569404110E+02  0.59301932757E+02  0.49999979444E+02 0.  0.
        -12    1    1    2    0    0  0.13751671340E+02  0.16495332962E+02 -0.23569404110E+02  0.31886067243E+02  0.00000000000E+00 0.  1.
         11    1    3    3    0    0 -0.11079382111E+02 -0.30836762120E+02  0.14600947908E+02  0.35872639798E+02  0.51100000000E-03 0. -1.
        -11    1    3    3    0    0 -0.22711625480E+01 -0.53122799706E+00 -0.33715441874E+01  0.40997186456E+01  0.51100000000E-03 0.  1.
        -12    1    3    3    0    0 -0.40112668086E+00  0.14872657156E+02  0.12340000389E+02  0.19329574313E+02  0.00000000000E+00 0.  1.
</event>
<event>
 7    1  0.6198176E-013  0.5930193E+02  0.7816164E-02  0.1266605E+00
        -11   -1    0    0    0    0  0.00000000000E+00  0.00000000000E+00  0.45593999997E+02  0.45594000000E+02  0.51100000000E-03 0.  1.
         11   -1    0    0    0    0 -0.00000000000E+00 -0.00000000000E+00 -0.45593999997E+02  0.45594000000E+02  0.51100000000E-03 0. -1.
    9900012    2    1    2    0    0 -0.13820992289E+02 -0.26848974986E+02 -0.10238843334E+02  0.59301934101E+02  0.49999981897E+02 0.  0.
        -12    1    1    2    0    0  0.13820992289E+02  0.26848974986E+02  0.10238843334E+02  0.31886065899E+02  0.00000000000E+00 0.  1.
         11    1    3    3    0    0  0.30654933811E+01 -0.18562543644E+01 -0.14129084422E+02  0.14576486435E+02  0.51100000000E-03 0. -1.
        -11    1    3    3    0    0 -0.76780693133E+00 -0.25596328455E+02 -0.53150355382E+01  0.26153607034E+02  0.51100000000E-03 0.  1.
        -12    1    3    3    0    0 -0.16118678739E+02  0.60360783335E+00  0.92052766259E+01  0.18571840632E+02  0.00000000000E+00 0.  1.
</event>
<event>
 7    1  0.6198176E-013  0.5930196E+02  0.7816164E-02  0.1266605E+00
        -11   -1    0    0    0    0  0.00000000000E+00  0.00000000000E+00  0.45593999997E+02  0.45594000000E+02  0.51100000000E-03 0.  1.
         11   -1    0    0    0    0 -0.00000000000E+00 -0.00000000000E+00 -0.45593999997E+02  0.45594000000E+02  0.51100000000E-03 0. -1.
    9900012    2    1    2    0    0 -0.18230321493E+02 -0.15731259387E+02 -0.20902202905E+02  0.59301964970E+02  0.50000038194E+02 0.  0.
        -12    1    1    2    0    0  0.18230321493E+02  0.15731259387E+02  0.20902202905E+02  0.31886035030E+02  0.00000000000E+00 0.  1.
         11    1    3    3    0    0  0.10075149645E+02 -0.89713661288E+01  0.16436557193E+01  0.13590277958E+02  0.51100000000E-03 0. -1.
        -11    1    3    3    0    0 -0.81364727471E+01 -0.12975613385E+02 -0.69308852285E+00  0.15331311211E+02  0.51100000000E-03 0.  1.
         12    1    3    3    0    0 -0.20168998391E+02  0.62157201265E+01 -0.21852770101E+02  0.30380375802E+02  0.00000000000E+00 0. -1.
</event>
<event>
 7    1  0.6198176E-013  0.5930196E+02  0.7816164E-02  0.1266605E+00
        -11   -1    0    0    0    0  0.00000000000E+00  0.00000000000E+00  0.45593999997E+02  0.45594000000E+02  0.51100000000E-03 0.  1.
         11   -1    0    0    0    0 -0.00000000000E+00 -0.00000000000E+00 -0.45593999997E+02  0.45594000000E+02  0.51100000000E-03 0. -1.
    9900012    2    1    2    0    0 -0.99941302814E+01 -0.29931427996E+02  0.45767333356E+01  0.59301960579E+02  0.50000030185E+02 0.  0.
        -12    1    1    2    0    0  0.99941302814E+01  0.29931427996E+02 -0.45767333356E+01  0.31886039421E+02  0.00000000000E+00 0.  1.
         11    1    3    3    0    0 -0.11248005247E+02 -0.13048086347E+02 -0.53014372236E+01  0.18024300715E+02  0.51100000000E-03 0. -1.
        -11    1    3    3    0    0 -0.43957451327E+01 -0.65548149781E+01 -0.13194674696E+02  0.15374902122E+02  0.51100000000E-03 0.  1.
        -12    1    3    3    0    0  0.56496200986E+01 -0.10328526670E+02  0.23072845255E+02  0.25902757742E+02  0.00000000000E+00 0.  1.
</event>
<event>
 7    1  0.6198176E-013  0.5930196E+02  0.7816164E-02  0.1266605E+00
        -11   -1    0    0    0    0  0.00000000000E+00  0.00000000000E+00  0.45593999997E+02  0.45594000000E+02  0.51100000000E-03 0. -1.
         11   -1    0    0    0    0 -0.00000000000E+00 -0.00000000000E+00 -0.45593999997E+02  0.45594000000E+02  0.51100000000E-03 0.  1.
    9900012    2    1    2    0    0  0.10915034655E+02  0.24686769494E+02  0.16974842944E+02  0.59301955051E+02  0.50000020103E+02 0.  0.
        -12    1    1    2    0    0 -0.10915034655E+02 -0.24686769494E+02 -0.16974842944E+02  0.31886044949E+02  0.00000000000E+00 0.  1.
         11    1    3    3    0    0  0.42154179338E+00  0.64815810701E+01 -0.59889949818E+00  0.65228269578E+01  0.51100000000E-03 0. -1.
        -11    1    3    3    0    0  0.63513380886E+01  0.27840957837E+01 -0.14987114018E+02  0.16513760071E+02  0.51100000000E-03 0.  1.
         12    1    3    3    0    0  0.41421547726E+01  0.15421092640E+02  0.32560856460E+02  0.36265368022E+02  0.00000000000E+00 0. -1.
</event>
<event>
 7    1  0.6198176E-013  0.5930195E+02  0.7816164E-02  0.1266605E+00
        -11   -1    0    0    0    0  0.00000000000E+00  0.00000000000E+00  0.45593999997E+02  0.45594000000E+02  0.51100000000E-03 0.  1.
         11   -1    0    0    0    0 -0.00000000000E+00 -0.00000000000E+00 -0.45593999997E+02  0.45594000000E+02  0.51100000000E-03 0. -1.
    9900012    2    1    2    0    0 -0.37086869029E+01  0.31562899077E+02 -0.25979284589E+01  0.59301949932E+02  0.50000010767E+02 0.  0.
        -12    1    1    2    0    0  0.37086869029E+01 -0.31562899077E+02  0.25979284589E+01  0.31886050068E+02  0.00000000000E+00 0.  1.
         11    1    3    3    0    0  0.45485406079E+01  0.14477137886E+02 -0.60767573267E+01  0.16346367269E+02  0.51100000000E-03 0. -1.
        -11    1    3    3    0    0 -0.24258673272E+00  0.10875574549E+02 -0.16954925010E+02  0.20144638305E+02  0.51100000000E-03 0.  1.
        -12    1    3    3    0    0 -0.80146407781E+01  0.62101866419E+01  0.20433753878E+02  0.22810944357E+02  0.00000000000E+00 0.  1.
</event>
<event>
 7    1  0.6198176E-013  0.5930196E+02  0.7816164E-02  0.1266605E+00
        -11   -1    0    0    0    0  0.00000000000E+00  0.00000000000E+00  0.45593999997E+02  0.45594000000E+02  0.51100000000E-03 0. -1.
         11   -1    0    0    0    0 -0.00000000000E+00 -0.00000000000E+00 -0.45593999997E+02  0.45594000000E+02  0.51100000000E-03 0.  1.
    9900012    2    1    2    0    0  0.23135090908E+02 -0.13888956108E+02 -0.16987752949E+02  0.59301964133E+02  0.50000036666E+02 0.  0.
        -12    1    1    2    0    0 -0.23135090908E+02  0.13888956108E+02  0.16987752949E+02  0.31886035867E+02  0.00000000000E+00 0.  1.
         11    1    3    3    0    0  0.38759095454E+00 -0.11812948013E+02  0.30099158064E+01  0.12196538892E+02  0.51100000000E-03 0. -1.
        -11    1    3    3    0    0  0.58506089617E+01  0.90705196673E+01  0.73665784356E+01  0.13067916068E+02  0.51100000000E-03 0.  1.
        -12    1    3    3    0    0  0.16896890991E+02 -0.11146527762E+02 -0.27364247191E+02  0.34037509172E+02  0.00000000000E+00 0.  1.
</event>
<event>
 7    1  0.6198176E-013  0.5930195E+02  0.7816164E-02  0.1266605E+00
        -11   -1    0    0    0    0  0.00000000000E+00  0.00000000000E+00  0.45593999997E+02  0.45594000000E+02  0.51100000000E-03 0.  1.
         11   -1    0    0    0    0 -0.00000000000E+00 -0.00000000000E+00 -0.45593999997E+02  0.45594000000E+02  0.51100000000E-03 0. -1.
    9900012    2    1    2    0    0  0.24909495929E+02  0.54109647548E+01 -0.19156169883E+02  0.59301947067E+02  0.50000005543E+02 0.  0.
        -12    1    1    2    0    0 -0.24909495929E+02 -0.54109647548E+01  0.19156169883E+02  0.31886052933E+02  0.00000000000E+00 0.  1.
         11    1    3    3    0    0  0.17317073654E+01 -0.64823980460E+01  0.10797678389E+01  0.67960425009E+01  0.51100000000E-03 0. -1.
        -11    1    3    3    0    0  0.21233604362E+02  0.24994595359E+02 -0.65183852023E+01  0.33437779491E+02  0.51100000000E-03 0.  1.
         12    1    3    3    0    0  0.19441842023E+01 -0.13101232558E+02 -0.13717552520E+02  0.19068125076E+02  0.00000000000E+00 0. -1.
</event>
<event>
 7    1  0.6198176E-013  0.5930203E+02  0.7816164E-02  0.1266604E+00
        -11   -1    0    0    0    0  0.00000000000E+00  0.00000000000E+00  0.45593999997E+02  0.45594000000E+02  0.51100000000E-03 0.  1.
         11   -1    0    0    0    0 -0.00000000000E+00 -0.00000000000E+00 -0.45593999997E+02  0.45594000000E+02  0.51100000000E-03 0. -1.
    9900012    2    1    2    0    0 -0.25621900663E+02  0.15972194811E+02 -0.10252915898E+02  0.59302029965E+02  0.50000156728E+02 0.  0.
        -12    1    1    2    0    0  0.25621900663E+02 -0.15972194811E+02  0.10252915898E+02  0.31885970035E+02  0.00000000000E+00 0.  1.
         11    1    3    3    0    0 -0.19219267747E+02 -0.84178735375E+01  0.44023537058E+00  0.20986535090E+02  0.51100000000E-03 0. -1.
        -11    1    3    3    0    0 -0.13053662244E+02  0.15720566312E+02  0.31547402264E+01  0.20675751239E+02  0.51100000000E-03 0.  1.
        -12    1    3    3    0    0  0.66510293278E+01  0.86695020365E+01 -0.13847891495E+02  0.17639743635E+02  0.00000000000E+00 0.  1.
</event>
<event>
 7    1  0.6198176E-013  0.5930196E+02  0.7816164E-02  0.1266605E+00
        -11   -1    0    0    0    0  0.00000000000E+00  0.00000000000E+00  0.45593999997E+02  0.45594000000E+02  0.51100000000E-03 0.  1.
         11   -1    0    0    0    0 -0.00000000000E+00 -0.00000000000E+00 -0.45593999997E+02  0.45594000000E+02  0.51100000000E-03 0. -1.
    9900012    2    1    2    0    0 -0.36886116948E+01  0.29331821401E+02 -0.11948125547E+02  0.59301963761E+02  0.50000035989E+02 0.  0.
        -12    1    1    2    0    0  0.36886116948E+01 -0.29331821401E+02  0.11948125547E+02  0.31886036239E+02  0.00000000000E+00 0.  1.
         11    1    3    3    0    0  0.18395956759E+02  0.13604174889E+02 -0.65518093575E+01  0.23799390867E+02  0.51100000000E-03 0. -1.
        -11    1    3    3    0    0 -0.65325199794E+01 -0.48064985231E+01  0.26237231278E+01  0.85240934207E+01  0.51100000000E-03 0.  1.
        -12    1    3    3    0    0 -0.15552048474E+02  0.20534145035E+02 -0.80200393176E+01  0.26978479474E+02  0.00000000000E+00 0.  1.
</event>
<event>
 7    1  0.6198176E-013  0.5930209E+02  0.7816164E-02  0.1266604E+00
        -11   -1    0    0    0    0  0.00000000000E+00  0.00000000000E+00  0.45593999997E+02  0.45594000000E+02  0.51100000000E-03 0. -1.
         11   -1    0    0    0    0 -0.00000000000E+00 -0.00000000000E+00 -0.45593999997E+02  0.45594000000E+02  0.51100000000E-03 0.  1.
    9900012    2    1    2    0    0 -0.30362097093E+02  0.12966237166E+01 -0.96526339241E+01  0.59302085952E+02  0.50000258836E+02 0.  0.
        -12    1    1    2    0    0  0.30362097093E+02 -0.12966237166E+01  0.96526339241E+01  0.31885914048E+02  0.00000000000E+00 0.  1.
         11    1    3    3    0    0 -0.86484174135E+01 -0.41122106985E+01  0.10750037280E+02  0.14396829595E+02  0.51100000000E-03 0. -1.
        -11    1    3    3    0    0 -0.16595240665E+02  0.60649940110E+01  0.54910278289E+01  0.18502366118E+02  0.51100000000E-03 0.  1.
        -12    1    3    3    0    0 -0.51184390145E+01 -0.65615959596E+00 -0.25893699033E+02  0.26402890239E+02  0.00000000000E+00 0.  1.
</event>
<event>
 7    1  0.6198176E-013  0.5930193E+02  0.7816164E-02  0.1266605E+00
        -11   -1    0    0    0    0  0.00000000000E+00  0.00000000000E+00  0.45593999997E+02  0.45594000000E+02  0.51100000000E-03 0.  1.
         11   -1    0    0    0    0 -0.00000000000E+00 -0.00000000000E+00 -0.45593999997E+02  0.45594000000E+02  0.51100000000E-03 0. -1.
    9900012    2    1    2    0    0  0.20360326905E+01 -0.30136405462E+02  0.10216310229E+02  0.59301931600E+02  0.49999977335E+02 0.  0.
        -12    1    1    2    0    0 -0.20360326905E+01  0.30136405462E+02 -0.10216310229E+02  0.31886068400E+02  0.00000000000E+00 0.  1.
         11    1    3    3    0    0 -0.38428136281E+01 -0.15595921394E+01  0.74463900867E+01  0.85233954388E+01  0.51100000000E-03 0.  1.
        -11    1    3    3    0    0 -0.41692135070E+01  0.99775089228E+01  0.14907181576E+01  0.10915826421E+02  0.51100000000E-03 0. -1.
         12    1    3    3    0    0  0.10048059826E+02 -0.38554322246E+02  0.12792019849E+01  0.39862709740E+02  0.00000000000E+00 0. -1.
</event>
<event>
 7    1  0.6198176E-013  0.5930195E+02  0.7816164E-02  0.1266605E+00
        -11   -1    0    0    0    0  0.00000000000E+00  0.00000000000E+00  0.45593999997E+02  0.45594000000E+02  0.51100000000E-03 0. -1.
         11   -1    0    0    0    0 -0.00000000000E+00 -0.00000000000E+00 -0.45593999997E+02  0.45594000000E+02  0.51100000000E-03 0.  1.
    9900012    2    1    2    0    0 -0.31103001343E+01 -0.12437780916E+02  0.29194999331E+02  0.59301947454E+02  0.50000006249E+02 0.  0.
        -12    1    1    2    0    0  0.31103001343E+01  0.12437780916E+02 -0.29194999331E+02  0.31886052546E+02  0.00000000000E+00 0.  1.
         11    1    3    3    0    0  0.21089077760E+01 -0.51539040578E+01 -0.11850292210E+02  0.13093496277E+02  0.51100000000E-03 0. -1.
        -11    1    3    3    0    0 -0.61405068019E+01  0.16436310874E+01  0.28384079151E+01  0.69616023076E+01  0.51100000000E-03 0.  1.
         12    1    3    3    0    0  0.92129889159E+00 -0.89275079454E+01  0.38206883626E+02  0.39246848869E+02  0.00000000000E+00 0. -1.
</event>
<event>
 7    1  0.6198176E-013  0.5930195E+02  0.7816164E-02  0.1266605E+00
        -11   -1    0    0    0    0  0.00000000000E+00  0.00000000000E+00  0.45593999997E+02  0.45594000000E+02  0.51100000000E-03 0. -1.
         11   -1    0    0    0    0 -0.00000000000E+00 -0.00000000000E+00 -0.45593999997E+02  0.45594000000E+02  0.51100000000E-03 0.  1.
    9900012    2    1    2    0    0 -0.23421846043E+02  0.14936092442E+02 -0.15654080744E+02  0.59301953311E+02  0.50000016931E+02 0.  0.
        -12    1    1    2    0    0  0.23421846043E+02 -0.14936092442E+02  0.15654080744E+02  0.31886046689E+02  0.00000000000E+00 0.  1.
         11    1    3    3    0    0 -0.19255992619E+02  0.40428791419E+00 -0.88940532737E+01  0.21214638445E+02  0.51100000000E-03 0. -1.
        -11    1    3    3    0    0 -0.12026436537E+02  0.22773218350E+02 -0.70269198289E+01  0.26695172829E+02  0.51100000000E-03 0.  1.
        -12    1    3    3    0    0  0.78605831129E+01 -0.82414138228E+01  0.26689235856E+00  0.11392142038E+02  0.00000000000E+00 0.  1.
</event>
<event>
 7    1  0.6198176E-013  0.5930194E+02  0.7816164E-02  0.1266605E+00
        -11   -1    0    0    0    0  0.00000000000E+00  0.00000000000E+00  0.45593999997E+02  0.45594000000E+02  0.51100000000E-03 0.  1.
         11   -1    0    0    0    0 -0.00000000000E+00 -0.00000000000E+00 -0.45593999997E+02  0.45594000000E+02  0.51100000000E-03 0. -1.
    9900012    2    1    2    0    0  0.97135128679E-01 -0.27882310925E+02 -0.15468944821E+02  0.59301937972E+02  0.49999988956E+02 0.  0.
        -12    1    1    2    0    0 -0.97135128679E-01  0.27882310925E+02  0.15468944821E+02  0.31886062028E+02  0.00000000000E+00 0.  1.
         11    1    3    3    0    0 -0.15139026554E+02 -0.11773743449E+01 -0.43778393449E+01  0.15803221600E+02  0.51100000000E-03 0. -1.
        -11    1    3    3    0    0  0.17422950640E+02 -0.26203073534E+01 -0.23077580325E+01  0.17769382855E+02  0.51100000000E-03 0.  1.
         12    1    3    3    0    0 -0.21867889578E+01 -0.24084629227E+02 -0.87833474441E+01  0.25729333518E+02  0.00000000000E+00 0. -1.
</event>
<event>
 7    1  0.6198176E-013  0.5930192E+02  0.7816164E-02  0.1266605E+00
        -11   -1    0    0    0    0  0.00000000000E+00  0.00000000000E+00  0.45593999997E+02  0.45594000000E+02  0.51100000000E-03 0. -1.
         11   -1    0    0    0    0 -0.00000000000E+00 -0.00000000000E+00 -0.45593999997E+02  0.45594000000E+02  0.51100000000E-03 0.  1.
    9900012    2    1    2    0    0 -0.59209530836E+01 -0.61716702624E+01  0.30717662832E+02  0.59301921390E+02  0.49999958714E+02 0.  0.
        -12    1    1    2    0    0  0.59209530836E+01  0.61716702624E+01 -0.30717662832E+02  0.31886078610E+02  0.00000000000E+00 0.  1.
         11    1    3    3    0    0  0.83564242489E+01  0.48844686796E+01  0.55696752015E+01  0.11167324775E+02  0.51100000000E-03 0. -1.
        -11    1    3    3    0    0  0.95476892312E+01 -0.70494543330E+01 -0.17309222874E+01  0.11993717867E+02  0.51100000000E-03 0.  1.
         12    1    3    3    0    0 -0.23825066564E+02 -0.40066846091E+01  0.26878909918E+02  0.36140878748E+02  0.00000000000E+00 0. -1.
</event>
<event>
 7    1  0.6198176E-013  0.5930195E+02  0.7816164E-02  0.1266605E+00
        -11   -1    0    0    0    0  0.00000000000E+00  0.00000000000E+00  0.45593999997E+02  0.45594000000E+02  0.51100000000E-03 0. -1.
         11   -1    0    0    0    0 -0.00000000000E+00 -0.00000000000E+00 -0.45593999997E+02  0.45594000000E+02  0.51100000000E-03 0.  1.
    9900012    2    1    2    0    0 -0.26632561819E+02 -0.45166133015E+01 -0.16941864727E+02  0.59301954068E+02  0.50000018311E+02 0.  0.
        -12    1    1    2    0    0  0.26632561819E+02  0.45166133015E+01  0.16941864727E+02  0.31886045932E+02  0.00000000000E+00 0.  1.
         11    1    3    3    0    0  0.59871305868E+00 -0.11476309751E+02 -0.10214986957E+01  0.11537226819E+02  0.51100000000E-03 0. -1.
        -11    1    3    3    0    0 -0.71087177464E+01 -0.79279360782E+01  0.78626672883E+01  0.13236599851E+02  0.51100000000E-03 0.  1.
        -12    1    3    3    0    0 -0.20122557131E+02  0.14887632528E+02 -0.23783033319E+02  0.34528127399E+02  0.00000000000E+00 0.  1.
</event>
<event>
 7    1  0.6198176E-013  0.5930194E+02  0.7816164E-02  0.1266605E+00
        -11   -1    0    0    0    0  0.00000000000E+00  0.00000000000E+00  0.45593999997E+02  0.45594000000E+02  0.51100000000E-03 0. -1.
         11   -1    0    0    0    0 -0.00000000000E+00 -0.00000000000E+00 -0.45593999997E+02  0.45594000000E+02  0.51100000000E-03 0.  1.
    9900012    2    1    2    0    0 -0.31777158342E+01 -0.14527939579E+02  0.28205701983E+02  0.59301944573E+02  0.50000000995E+02 0.  0.
        -12    1    1    2    0    0  0.31777158342E+01  0.14527939579E+02 -0.28205701983E+02  0.31886055427E+02  0.00000000000E+00 0.  1.
         11    1    3    3    0    0 -0.34599062701E+01 -0.71766616202E+01  0.20047004820E+01  0.82154882808E+01  0.51100000000E-03 0. -1.
        -11    1    3    3    0    0 -0.47921503574E+01 -0.24910620636E+02  0.12740663661E+02  0.28387113913E+02  0.51100000000E-03 0.  1.
        -12    1    3    3    0    0  0.50743407933E+01  0.17559342677E+02  0.13460337839E+02  0.22699342380E+02  0.00000000000E+00 0.  1.
</event>
<event>
 7    1  0.6198176E-013  0.5930194E+02  0.7816164E-02  0.1266605E+00
        -11   -1    0    0    0    0  0.00000000000E+00  0.00000000000E+00  0.45593999997E+02  0.45594000000E+02  0.51100000000E-03 0. -1.
         11   -1    0    0    0    0 -0.00000000000E+00 -0.00000000000E+00 -0.45593999997E+02  0.45594000000E+02  0.51100000000E-03 0.  1.
    9900012    2    1    2    0    0  0.75315456027E+01 -0.18205197011E+02  0.25071244707E+02  0.59301942098E+02  0.49999996480E+02 0.  0.
        -12    1    1    2    0    0 -0.75315456027E+01  0.18205197011E+02 -0.25071244707E+02  0.31886057902E+02  0.00000000000E+00 0.  1.
         11    1    3    3    0    0  0.92230411505E+01 -0.19655429763E+02  0.11701177024E+02  0.24664102482E+02  0.51100000000E-03 0. -1.
        -11    1    3    3    0    0 -0.15495526446E+02 -0.55547280200E+01  0.73778794034E+01  0.18038831668E+02  0.51100000000E-03 0.  1.
         12    1    3    3    0    0  0.13804030898E+02  0.70049607721E+01  0.59921882796E+01  0.16599007947E+02  0.00000000000E+00 0. -1.
</event>
<event>
 7    1  0.6198176E-013  0.5930185E+02  0.7816164E-02  0.1266605E+00
        -11   -1    0    0    0    0  0.00000000000E+00  0.00000000000E+00  0.45593999997E+02  0.45594000000E+02  0.51100000000E-03 0.  1.
         11   -1    0    0    0    0 -0.00000000000E+00 -0.00000000000E+00 -0.45593999997E+02  0.45594000000E+02  0.51100000000E-03 0. -1.
    9900012    2    1    2    0    0 -0.71006829601E+01 -0.28481547107E+02  0.12454257119E+02  0.59301847136E+02  0.49999823292E+02 0.  0.
        -12    1    1    2    0    0  0.71006829601E+01  0.28481547107E+02 -0.12454257119E+02  0.31886152864E+02  0.00000000000E+00 0.  1.
         11    1    3    3    0    0 -0.10249479237E+02 -0.23508367139E+01  0.22872010846E+01  0.10761484421E+02  0.51100000000E-03 0. -1.
        -11    1    3    3    0    0 -0.14615034980E+02 -0.25162037647E+02  0.99374336070E+01  0.30748658067E+02  0.51100000000E-03 0.  1.
        -12    1    3    3    0    0  0.17763831256E+02 -0.96867274634E+00  0.22962242732E+00  0.17791704647E+02  0.00000000000E+00 0.  1.
</event>
<event>
 7    1  0.6198176E-013  0.5930212E+02  0.7816164E-02  0.1266604E+00
        -11   -1    0    0    0    0  0.00000000000E+00  0.00000000000E+00  0.45593999997E+02  0.45594000000E+02  0.51100000000E-03 0.  1.
         11   -1    0    0    0    0 -0.00000000000E+00 -0.00000000000E+00 -0.45593999997E+02  0.45594000000E+02  0.51100000000E-03 0. -1.
    9900012    2    1    2    0    0 -0.66798078189E+01 -0.57640149884E+00 -0.31173026096E+02  0.59302115550E+02  0.50000312814E+02 0.  0.
        -12    1    1    2    0    0  0.66798078189E+01  0.57640149884E+00  0.31173026096E+02  0.31885884450E+02  0.00000000000E+00 0.  1.
         11    1    3    3    0    0  0.23569731648E+01  0.42276064482E+01 -0.99627693397E+01  0.11076314909E+02  0.51100000000E-03 0. -1.
        -11    1    3    3    0    0  0.16527732927E+02 -0.28714858365E+01 -0.36978836021E+01  0.17178059553E+02  0.51100000000E-03 0.  1.
        -12    1    3    3    0    0 -0.25564513910E+02 -0.19325221106E+01 -0.17512373154E+02  0.31047741088E+02  0.00000000000E+00 0.  1.
</event>
<event>
 7    1  0.6198176E-013  0.5930189E+02  0.7816164E-02  0.1266605E+00
        -11   -1    0    0    0    0  0.00000000000E+00  0.00000000000E+00  0.45593999997E+02  0.45594000000E+02  0.51100000000E-03 0. -1.
         11   -1    0    0    0    0 -0.00000000000E+00 -0.00000000000E+00 -0.45593999997E+02  0.45594000000E+02  0.51100000000E-03 0.  1.
    9900012    2    1    2    0    0  0.26629399139E+02 -0.16741332088E+02 -0.52275215266E+01  0.59301888919E+02  0.49999899494E+02 0.  0.
        -12    1    1    2    0    0 -0.26629399139E+02  0.16741332088E+02  0.52275215266E+01  0.31886111081E+02  0.00000000000E+00 0.  1.
         11    1    3    3    0    0  0.10844021190E+02 -0.13547711034E+02 -0.71418231202E+01  0.18765364573E+02  0.51100000000E-03 0. -1.
        -11    1    3    3    0    0 -0.44123455413E+01 -0.77257266576E+01 -0.12477910779E+02  0.15324943824E+02  0.51100000000E-03 0.  1.
        -12    1    3    3    0    0  0.20197723491E+02  0.45321056035E+01  0.14392212372E+02  0.25211580521E+02  0.00000000000E+00 0.  1.
</event>
<event>
 7    1  0.6198176E-013  0.5930195E+02  0.7816164E-02  0.1266605E+00
        -11   -1    0    0    0    0  0.00000000000E+00  0.00000000000E+00  0.45593999997E+02  0.45594000000E+02  0.51100000000E-03 0.  1.
         11   -1    0    0    0    0 -0.00000000000E+00 -0.00000000000E+00 -0.45593999997E+02  0.45594000000E+02  0.51100000000E-03 0. -1.
    9900012    2    1    2    0    0  0.26196558733E+01  0.18104618973E+02 -0.26116671828E+02  0.59301947055E+02  0.50000005521E+02 0.  0.
        -12    1    1    2    0    0 -0.26196558733E+01 -0.18104618973E+02  0.26116671828E+02  0.31886052945E+02  0.00000000000E+00 0.  1.
         11    1    3    3    0    0 -0.55340264063E+00  0.19029807086E+02  0.45062153126E+01  0.19563889923E+02  0.51100000000E-03 0. -1.
        -11    1    3    3    0    0 -0.30004220192E+01 -0.38496178043E+01  0.27981840667E+01  0.56260042539E+01  0.51100000000E-03 0.  1.
         12    1    3    3    0    0  0.61734805332E+01  0.29244296917E+01 -0.33421071207E+02  0.34112052878E+02  0.00000000000E+00 0. -1.
</event>
<event>
 7    1  0.6198176E-013  0.5930187E+02  0.7816164E-02  0.1266605E+00
        -11   -1    0    0    0    0  0.00000000000E+00  0.00000000000E+00  0.45593999997E+02  0.45594000000E+02  0.51100000000E-03 0.  1.
         11   -1    0    0    0    0 -0.00000000000E+00 -0.00000000000E+00 -0.45593999997E+02  0.45594000000E+02  0.51100000000E-03 0. -1.
    9900012    2    1    2    0    0 -0.24531574556E+02 -0.15031946537E+02 -0.13746549660E+02  0.59301871442E+02  0.49999867621E+02 0.  0.
        -12    1    1    2    0    0  0.24531574556E+02  0.15031946537E+02  0.13746549660E+02  0.31886128558E+02  0.00000000000E+00 0.  1.
         11    1    3    3    0    0 -0.35332008414E+01 -0.24038247905E+01 -0.57460948284E+01  0.71609697561E+01  0.51100000000E-03 0. -1.
        -11    1    3    3    0    0 -0.33724254144E+02 -0.41682870148E+01  0.17295988350E+01  0.34024865123E+02  0.51100000000E-03 0.  1.
        -12    1    3    3    0    0  0.12725880430E+02 -0.84598347321E+01 -0.97300536661E+01  0.18116036563E+02  0.00000000000E+00 0.  1.
</event>
<event>
 7    1  0.6198176E-013  0.5930198E+02  0.7816164E-02  0.1266605E+00
        -11   -1    0    0    0    0  0.00000000000E+00  0.00000000000E+00  0.45593999997E+02  0.45594000000E+02  0.51100000000E-03 0. -1.
         11   -1    0    0    0    0 -0.00000000000E+00 -0.00000000000E+00 -0.45593999997E+02  0.45594000000E+02  0.51100000000E-03 0.  1.
    9900012    2    1    2    0    0  0.24705622086E+02  0.20045046300E+02  0.21322677861E+01  0.59301980968E+02  0.50000067369E+02 0.  0.
        -12    1    1    2    0    0 -0.24705622086E+02 -0.20045046300E+02 -0.21322677861E+01  0.31886019032E+02  0.00000000000E+00 0.  1.
         11    1    3    3    0    0  0.24912072184E+02  0.11488566743E+02  0.80308867361E+01  0.28584849980E+02  0.51100000000E-03 0.  1.
        -11    1    3    3    0    0  0.64287654551E+01  0.23496522211E+01  0.10169326879E+02  0.12258266609E+02  0.51100000000E-03 0. -1.
        -12    1    3    3    0    0 -0.66352155532E+01  0.62068273354E+01 -0.16067945829E+02  0.18458864379E+02  0.00000000000E+00 0.  1.
</event>
<event>
 7    1  0.6198176E-013  0.5930194E+02  0.7816164E-02  0.1266605E+00
        -11   -1    0    0    0    0  0.00000000000E+00  0.00000000000E+00  0.45593999997E+02  0.45594000000E+02  0.51100000000E-03 0.  1.
         11   -1    0    0    0    0 -0.00000000000E+00 -0.00000000000E+00 -0.45593999997E+02  0.45594000000E+02  0.51100000000E-03 0. -1.
    9900012    2    1    2    0    0 -0.21704800973E+02  0.70775741087E+01 -0.22260507751E+02  0.59301942767E+02  0.49999997700E+02 0.  0.
        -12    1    1    2    0    0  0.21704800973E+02 -0.70775741087E+01  0.22260507751E+02  0.31886057233E+02  0.00000000000E+00 0.  1.
         11    1    3    3    0    0 -0.29925275872E+00  0.40553204238E+01 -0.63148062190E+01  0.75107891594E+01  0.51100000000E-03 0. -1.
        -11    1    3    3    0    0  0.74609184955E+01 -0.12799602826E+02 -0.11113142583E+02  0.18520180226E+02  0.51100000000E-03 0.  1.
        -12    1    3    3    0    0 -0.28866466709E+02  0.15821856510E+02 -0.48325589498E+01  0.33270973381E+02  0.00000000000E+00 0.  1.
</event>
<event>
 7    1  0.6198176E-013  0.5930196E+02  0.7816164E-02  0.1266605E+00
        -11   -1    0    0    0    0  0.00000000000E+00  0.00000000000E+00  0.45593999997E+02  0.45594000000E+02  0.51100000000E-03 0. -1.
         11   -1    0    0    0    0 -0.00000000000E+00 -0.00000000000E+00 -0.45593999997E+02  0.45594000000E+02  0.51100000000E-03 0.  1.
    9900012    2    1    2    0    0 -0.60348280043E+00  0.22234873688E+02  0.22846574899E+02  0.59301956282E+02  0.50000022348E+02 0.  0.
        -12    1    1    2    0    0  0.60348280043E+00 -0.22234873688E+02 -0.22846574899E+02  0.31886043718E+02  0.00000000000E+00 0.  1.
         11    1    3    3    0    0 -0.38410271415E+01  0.14099976267E+02 -0.48406476589E+01  0.15394631865E+02  0.51100000000E-03 0.  1.
        -11    1    3    3    0    0 -0.73075970137E+01 -0.10149467056E+02  0.69049855375E+01  0.14286058980E+02  0.51100000000E-03 0. -1.
         12    1    3    3    0    0  0.10545141355E+02  0.18284364477E+02  0.20782237020E+02  0.29621265437E+02  0.00000000000E+00 0. -1.
</event>
<event>
 7    1  0.6198176E-013  0.5930195E+02  0.7816164E-02  0.1266605E+00
        -11   -1    0    0    0    0  0.00000000000E+00  0.00000000000E+00  0.45593999997E+02  0.45594000000E+02  0.51100000000E-03 0.  1.
         11   -1    0    0    0    0 -0.00000000000E+00 -0.00000000000E+00 -0.45593999997E+02  0.45594000000E+02  0.51100000000E-03 0. -1.
    9900012    2    1    2    0    0  0.12132500374E+01 -0.29837433358E+02 -0.11179253281E+02  0.59301951186E+02  0.50000013055E+02 0.  0.
        -12    1    1    2    0    0 -0.12132500374E+01  0.29837433358E+02  0.11179253281E+02  0.31886048814E+02  0.00000000000E+00 0.  1.
         11    1    3    3    0    0  0.76474331586E+01 -0.10443015666E+02 -0.11868704154E+02  0.17561490503E+02  0.51100000000E-03 0. -1.
        -11    1    3    3    0    0  0.92690165896E+01 -0.23319132376E+02 -0.25843303223E+01  0.25226481458E+02  0.51100000000E-03 0.  1.
         12    1    3    3    0    0 -0.15703199711E+02  0.39247146842E+01  0.32737811952E+01  0.16513979224E+02  0.00000000000E+00 0. -1.
</event>
<event>
 7    1  0.6198176E-013  0.5930195E+02  0.7816164E-02  0.1266605E+00
        -11   -1    0    0    0    0  0.00000000000E+00  0.00000000000E+00  0.45593999997E+02  0.45594000000E+02  0.51100000000E-03 0.  1.
         11   -1    0    0    0    0 -0.00000000000E+00 -0.00000000000E+00 -0.45593999997E+02  0.45594000000E+02  0.51100000000E-03 0. -1.
    9900012    2    1    2    0    0  0.20882738781E+01 -0.27955477975E+02 -0.15193774799E+02  0.59301946164E+02  0.50000003896E+02 0.  0.
        -12    1    1    2    0    0 -0.20882738781E+01  0.27955477975E+02  0.15193774799E+02  0.31886053836E+02  0.00000000000E+00 0.  1.
         11    1    3    3    0    0  0.14512444829E+02 -0.13029992425E+02  0.20484993432E+01  0.19610918064E+02  0.51100000000E-03 0. -1.
        -11    1    3    3    0    0  0.77064078032E+01  0.33122482590E+00 -0.11401630834E+02  0.13765740701E+02  0.51100000000E-03 0.  1.
        -12    1    3    3    0    0 -0.20130578754E+02 -0.15256710376E+02 -0.58406433080E+01  0.25925287399E+02  0.00000000000E+00 0.  1.
</event>
<event>
 7    1  0.6198176E-013  0.5930199E+02  0.7816164E-02  0.1266605E+00
        -11   -1    0    0    0    0  0.00000000000E+00  0.00000000000E+00  0.45593999997E+02  0.45594000000E+02  0.51100000000E-03 0.  1.
         11   -1    0    0    0    0 -0.00000000000E+00 -0.00000000000E+00 -0.45593999997E+02  0.45594000000E+02  0.51100000000E-03 0. -1.
    9900012    2    1    2    0    0 -0.27942857207E+02  0.15031717680E+01 -0.15285782527E+02  0.59301985170E+02  0.50000075034E+02 0.  0.
        -12    1    1    2    0    0  0.27942857207E+02 -0.15031717680E+01  0.15285782527E+02  0.31886014830E+02  0.00000000000E+00 0.  1.
         11    1    3    3    0    0 -0.31756752776E+02  0.75800686196E+01 -0.12484532317E+01  0.32672732100E+02  0.51100000000E-03 0. -1.
        -11    1    3    3    0    0 -0.40380133247E+00  0.79203434060E+01 -0.38864699512E+01  0.88317350576E+01  0.51100000000E-03 0.  1.
        -12    1    3    3    0    0  0.42176969018E+01 -0.13997240258E+02 -0.10150859344E+02  0.17797518012E+02  0.00000000000E+00 0.  1.
</event>
<event>
 7    1  0.6198176E-013  0.5930193E+02  0.7816164E-02  0.1266605E+00
        -11   -1    0    0    0    0  0.00000000000E+00  0.00000000000E+00  0.45593999997E+02  0.45594000000E+02  0.51100000000E-03 0. -1.
         11   -1    0    0    0    0 -0.00000000000E+00 -0.00000000000E+00 -0.45593999997E+02  0.45594000000E+02  0.51100000000E-03 0.  1.
    9900012    2    1    2    0    0  0.37705249578E+01  0.28677160774E+02  0.13421071798E+02  0.59301928170E+02  0.49999971080E+02 0.  0.
        -12    1    1    2    0    0 -0.37705249578E+01 -0.28677160774E+02 -0.13421071798E+02  0.31886071830E+02  0.00000000000E+00 0.  1.
         11    1    3    3    0    0  0.16107581772E+02  0.16858262062E+02  0.19032685806E+02  0.30098144786E+02  0.51100000000E-03 0. -1.
        -11    1    3    3    0    0  0.51205542932E+01  0.79317379586E+01 -0.62242901097E+01  0.11308153295E+02  0.51100000000E-03 0.  1.
        -12    1    3    3    0    0 -0.17457611108E+02  0.38871607537E+01  0.61267610200E+00  0.17895630090E+02  0.00000000000E+00 0.  1.
</event>
<event>
 7    1  0.6198176E-013  0.5930195E+02  0.7816164E-02  0.1266605E+00
        -11   -1    0    0    0    0  0.00000000000E+00  0.00000000000E+00  0.45593999997E+02  0.45594000000E+02  0.51100000000E-03 0.  1.
         11   -1    0    0    0    0 -0.00000000000E+00 -0.00000000000E+00 -0.45593999997E+02  0.45594000000E+02  0.51100000000E-03 0. -1.
    9900012    2    1    2    0    0 -0.99040718966E+01 -0.21612757381E+02 -0.21248960216E+02  0.59301949257E+02  0.50000009536E+02 0.  0.
        -12    1    1    2    0    0  0.99040718966E+01  0.21612757381E+02  0.21248960216E+02  0.31886050743E+02  0.00000000000E+00 0.  1.
         11    1    3    3    0    0 -0.20860393261E+01 -0.13193859351E+02 -0.12873068088E+02  0.18551155406E+02  0.51100000000E-03 0. -1.
        -11    1    3    3    0    0 -0.13084149716E+02 -0.21694413244E+02 -0.75908891725E+01  0.26447384341E+02  0.51100000000E-03 0.  1.
        -12    1    3    3    0    0  0.52661171459E+01  0.13275515213E+02 -0.78500295584E+00  0.14303409510E+02  0.00000000000E+00 0.  1.
</event>
<event>
 7    1  0.6198176E-013  0.5930194E+02  0.7816164E-02  0.1266605E+00
        -11   -1    0    0    0    0  0.00000000000E+00  0.00000000000E+00  0.45593999997E+02  0.45594000000E+02  0.51100000000E-03 0. -1.
         11   -1    0    0    0    0 -0.00000000000E+00 -0.00000000000E+00 -0.45593999997E+02  0.45594000000E+02  0.51100000000E-03 0.  1.
    9900012    2    1    2    0    0 -0.23452462395E+02  0.12948525650E+02  0.17292722805E+02  0.59301943943E+02  0.49999999845E+02 0.  0.
        -12    1    1    2    0    0  0.23452462395E+02 -0.12948525650E+02 -0.17292722805E+02  0.31886056057E+02  0.00000000000E+00 0.  1.
         11    1    3    3    0    0  0.88798970804E+01  0.11596311939E+02 -0.37835112488E+01  0.15087808998E+02  0.51100000000E-03 0. -1.
        -11    1    3    3    0    0 -0.10997688093E+02 -0.23168199498E+01  0.19502422788E+02  0.22509137987E+02  0.51100000000E-03 0.  1.
        -12    1    3    3    0    0 -0.21334671383E+02  0.36690336608E+01  0.15738112660E+01  0.21704996957E+02  0.00000000000E+00 0.  1.
</event>
<event>
 7    1  0.6198176E-013  0.5930192E+02  0.7816164E-02  0.1266605E+00
        -11   -1    0    0    0    0  0.00000000000E+00  0.00000000000E+00  0.45593999997E+02  0.45594000000E+02  0.51100000000E-03 0. -1.
         11   -1    0    0    0    0 -0.00000000000E+00 -0.00000000000E+00 -0.45593999997E+02  0.45594000000E+02  0.51100000000E-03 0.  1.
    9900012    2    1    2    0    0  0.84024388979E+01 -0.23115767754E+02 -0.20292415957E+02  0.59301923985E+02  0.49999963446E+02 0.  0.
        -12    1    1    2    0    0 -0.84024388979E+01  0.23115767754E+02  0.20292415957E+02  0.31886076015E+02  0.00000000000E+00 0.  1.
         11    1    3    3    0    0 -0.71600346976E+00 -0.13064102321E+01  0.82987248100E+01  0.84313819980E+01  0.51100000000E-03 0. -1.
        -11    1    3    3    0    0  0.13250036645E+02 -0.39506384657E+01  0.31830096975E+01  0.14188113559E+02  0.51100000000E-03 0.  1.
        -12    1    3    3    0    0 -0.41315942771E+01 -0.17858719056E+02 -0.31774150464E+02  0.36682428427E+02  0.00000000000E+00 0.  1.
</event>
<event>
 7    1  0.6198176E-013  0.5930206E+02  0.7816164E-02  0.1266604E+00
        -11   -1    0    0    0    0  0.00000000000E+00  0.00000000000E+00  0.45593999997E+02  0.45594000000E+02  0.51100000000E-03 0.  1.
         11   -1    0    0    0    0 -0.00000000000E+00 -0.00000000000E+00 -0.45593999997E+02  0.45594000000E+02  0.51100000000E-03 0. -1.
    9900012    2    1    2    0    0 -0.60812365742E+01  0.30177134098E+02  0.83109920160E+01  0.59302055621E+02  0.50000203520E+02 0.  0.
        -12    1    1    2    0    0  0.60812365742E+01 -0.30177134098E+02 -0.83109920160E+01  0.31885944379E+02  0.00000000000E+00 0.  1.
         11    1    3    3    0    0  0.81391093779E+01  0.29299267273E+02  0.16071130342E+02  0.34394380281E+02  0.51100000000E-03 0. -1.
        -11    1    3    3    0    0 -0.27136648664E+01  0.34354425861E+01  0.55887451398E+01  0.70993179439E+01  0.51100000000E-03 0.  1.
        -12    1    3    3    0    0 -0.11506681086E+02 -0.25575757609E+01 -0.13348883466E+02  0.17808357397E+02  0.00000000000E+00 0.  1.
</event>
<event>
 7    1  0.6198176E-013  0.5930195E+02  0.7816164E-02  0.1266605E+00
        -11   -1    0    0    0    0  0.00000000000E+00  0.00000000000E+00  0.45593999997E+02  0.45594000000E+02  0.51100000000E-03 0.  1.
         11   -1    0    0    0    0 -0.00000000000E+00 -0.00000000000E+00 -0.45593999997E+02  0.45594000000E+02  0.51100000000E-03 0. -1.
    9900012    2    1    2    0    0 -0.22742568989E+01  0.16431149016E+02 -0.27231691990E+02  0.59301953662E+02  0.50000017570E+02 0.  0.
        -12    1    1    2    0    0  0.22742568989E+01 -0.16431149016E+02  0.27231691990E+02  0.31886046338E+02  0.00000000000E+00 0.  1.
         11    1    3    3    0    0  0.39337372332E+00  0.10384227277E+02 -0.30970733612E+02  0.32667617907E+02  0.51100000000E-03 0. -1.
        -11    1    3    3    0    0  0.51884239440E+01 -0.40888757216E+01 -0.72052800234E+01  0.97752088554E+01  0.51100000000E-03 0.  1.
        -12    1    3    3    0    0 -0.78560545663E+01  0.10135797461E+02  0.10944321645E+02  0.16859126899E+02  0.00000000000E+00 0.  1.
</event>
<event>
 7    1  0.6198176E-013  0.5930199E+02  0.7816164E-02  0.1266605E+00
        -11   -1    0    0    0    0  0.00000000000E+00  0.00000000000E+00  0.45593999997E+02  0.45594000000E+02  0.51100000000E-03 0.  1.
         11   -1    0    0    0    0 -0.00000000000E+00 -0.00000000000E+00 -0.45593999997E+02  0.45594000000E+02  0.51100000000E-03 0. -1.
    9900012    2    1    2    0    0  0.25843311000E+01  0.69152792962E+01 -0.31019633985E+02  0.59301991351E+02  0.50000086307E+02 0.  0.
        -12    1    1    2    0    0 -0.25843311000E+01 -0.69152792962E+01  0.31019633985E+02  0.31886008649E+02  0.00000000000E+00 0.  1.
         11    1    3    3    0    0  0.10264043658E+02  0.16690416202E+02 -0.10075242612E+02  0.22032500974E+02  0.51100000000E-03 0. -1.
        -11    1    3    3    0    0 -0.48871028772E+01  0.11445571497E+01  0.61417234405E+01  0.79318694317E+01  0.51100000000E-03 0.  1.
        -12    1    3    3    0    0 -0.27926096804E+01 -0.10919694056E+02 -0.27086114813E+02  0.29337620946E+02  0.00000000000E+00 0.  1.
</event>
<event>
 7    1  0.6198176E-013  0.5930196E+02  0.7816164E-02  0.1266605E+00
        -11   -1    0    0    0    0  0.00000000000E+00  0.00000000000E+00  0.45593999997E+02  0.45594000000E+02  0.51100000000E-03 0.  1.
         11   -1    0    0    0    0 -0.00000000000E+00 -0.00000000000E+00 -0.45593999997E+02  0.45594000000E+02  0.51100000000E-03 0. -1.
    9900012    2    1    2    0    0 -0.11531540534E+02 -0.29148268206E+02 -0.58413802765E+01  0.59301957755E+02  0.50000025036E+02 0.  0.
        -12    1    1    2    0    0  0.11531540534E+02  0.29148268206E+02  0.58413802765E+01  0.31886042245E+02  0.00000000000E+00 0.  1.
         11    1    3    3    0    0 -0.10178038941E+02  0.14432620885E+00 -0.11178628299E+02  0.15118698279E+02  0.51100000000E-03 0. -1.
        -11    1    3    3    0    0  0.14078624158E+02 -0.53675553645E+01 -0.68620348463E+00  0.15082744587E+02  0.51100000000E-03 0.  1.
        -12    1    3    3    0    0 -0.15432125751E+02 -0.23925039051E+02  0.60234515072E+01  0.29100514889E+02  0.00000000000E+00 0.  1.
</event>
<event>
 7    1  0.6198176E-013  0.5930195E+02  0.7816164E-02  0.1266605E+00
        -11   -1    0    0    0    0  0.00000000000E+00  0.00000000000E+00  0.45593999997E+02  0.45594000000E+02  0.51100000000E-03 0. -1.
         11   -1    0    0    0    0 -0.00000000000E+00 -0.00000000000E+00 -0.45593999997E+02  0.45594000000E+02  0.51100000000E-03 0.  1.
    9900012    2    1    2    0    0  0.17969500077E+02 -0.13717372835E+02  0.22486687686E+02  0.59301947037E+02  0.50000005488E+02 0.  0.
        -12    1    1    2    0    0 -0.17969500077E+02  0.13717372835E+02 -0.22486687686E+02  0.31886052963E+02  0.00000000000E+00 0.  1.
         11    1    3    3    0    0  0.14981973377E+02 -0.17507470704E+02  0.19148785879E+02  0.29960758629E+02  0.51100000000E-03 0. -1.
        -11    1    3    3    0    0 -0.42879243826E+01 -0.35142558386E+01 -0.10625138898E+02  0.11984567847E+02  0.51100000000E-03 0.  1.
         12    1    3    3    0    0  0.72754510825E+01  0.73043537082E+01  0.13963040705E+02  0.17356620561E+02  0.00000000000E+00 0. -1.
</event>
<event>
 7    1  0.6198176E-013  0.5930195E+02  0.7816164E-02  0.1266605E+00
        -11   -1    0    0    0    0  0.00000000000E+00  0.00000000000E+00  0.45593999997E+02  0.45594000000E+02  0.51100000000E-03 0.  1.
         11   -1    0    0    0    0 -0.00000000000E+00 -0.00000000000E+00 -0.45593999997E+02  0.45594000000E+02  0.51100000000E-03 0. -1.
    9900012    2    1    2    0    0 -0.84366989329E+01 -0.27383878803E+01 -0.30627493852E+02  0.59301952318E+02  0.50000015120E+02 0.  0.
        -12    1    1    2    0    0  0.84366989329E+01  0.27383878803E+01  0.30627493852E+02  0.31886047682E+02  0.00000000000E+00 0.  1.
         11    1    3    3    0    0 -0.76674304973E+01  0.93447219183E+01 -0.14809807397E+02  0.19116582162E+02  0.51100000000E-03 0. -1.
        -11    1    3    3    0    0 -0.47106664265E+01  0.10528777788E+02  0.12218149660E+01  0.11599067719E+02  0.51100000000E-03 0.  1.
         12    1    3    3    0    0  0.39413979909E+01 -0.22611887586E+02 -0.17039501422E+02  0.28586302437E+02  0.00000000000E+00 0. -1.
</event>
<event>
 7    1  0.6198176E-013  0.5930193E+02  0.7816164E-02  0.1266605E+00
        -11   -1    0    0    0    0  0.00000000000E+00  0.00000000000E+00  0.45593999997E+02  0.45594000000E+02  0.51100000000E-03 0.  1.
         11   -1    0    0    0    0 -0.00000000000E+00 -0.00000000000E+00 -0.45593999997E+02  0.45594000000E+02  0.51100000000E-03 0. -1.
    9900012    2    1    2    0    0 -0.11289388785E+02  0.26491354410E+02 -0.13692307290E+02  0.59301930369E+02  0.49999975089E+02 0.  0.
        -12    1    1    2    0    0  0.11289388785E+02 -0.26491354410E+02  0.13692307290E+02  0.31886069631E+02  0.00000000000E+00 0.  1.
         11    1    3    3    0    0  0.89633829820E+01  0.16951895213E+02 -0.11982142495E+02  0.22611517525E+02  0.51100000000E-03 0. -1.
        -11    1    3    3    0    0 -0.10508588375E+02  0.17691042368E+02  0.64823685579E+01  0.21573699546E+02  0.51100000000E-03 0.  1.
         12    1    3    3    0    0 -0.97441833915E+01 -0.81515831713E+01 -0.81925333536E+01  0.15116713297E+02  0.00000000000E+00 0. -1.
</event>
<event>
 7    1  0.6198176E-013  0.5930198E+02  0.7816164E-02  0.1266605E+00
        -11   -1    0    0    0    0  0.00000000000E+00  0.00000000000E+00  0.45593999997E+02  0.45594000000E+02  0.51100000000E-03 0.  1.
         11   -1    0    0    0    0 -0.00000000000E+00 -0.00000000000E+00 -0.45593999997E+02  0.45594000000E+02  0.51100000000E-03 0. -1.
    9900012    2    1    2    0    0 -0.28061449155E+02  0.12823928208E+02 -0.80511143099E+01  0.59301976338E+02  0.50000058926E+02 0.  0.
        -12    1    1    2    0    0  0.28061449155E+02 -0.12823928208E+02  0.80511143099E+01  0.31886023662E+02  0.00000000000E+00 0.  1.
         11    1    3    3    0    0 -0.90556415810E+01 -0.92041438269E+01 -0.97324611913E+01  0.16169159197E+02  0.51100000000E-03 0. -1.
        -11    1    3    3    0    0 -0.13065838372E+02 -0.28566547930E+01  0.94722371272E+01  0.16389017220E+02  0.51100000000E-03 0.  1.
        -12    1    3    3    0    0 -0.59399692013E+01  0.24884726828E+02 -0.77908902458E+01  0.26743799921E+02  0.00000000000E+00 0.  1.
</event>
<event>
 7    1  0.6198176E-013  0.5930193E+02  0.7816164E-02  0.1266605E+00
        -11   -1    0    0    0    0  0.00000000000E+00  0.00000000000E+00  0.45593999997E+02  0.45594000000E+02  0.51100000000E-03 0. -1.
         11   -1    0    0    0    0 -0.00000000000E+00 -0.00000000000E+00 -0.45593999997E+02  0.45594000000E+02  0.51100000000E-03 0.  1.
    9900012    2    1    2    0    0  0.22263006502E+02 -0.21584281152E+02  0.74295979915E+01  0.59301928155E+02  0.49999971053E+02 0.  0.
        -12    1    1    2    0    0 -0.22263006502E+02  0.21584281152E+02 -0.74295979915E+01  0.31886071845E+02  0.00000000000E+00 0.  1.
         11    1    3    3    0    0  0.76459585837E+01 -0.82692412540E+01  0.35202135023E+01  0.11799700714E+02  0.51100000000E-03 0. -1.
        -11    1    3    3    0    0  0.13900318603E+02  0.39609983503E+00 -0.17325086718E+02  0.22215633738E+02  0.51100000000E-03 0.  1.
         12    1    3    3    0    0  0.71672931570E+00 -0.13711139733E+02  0.21234471207E+02  0.25286593703E+02  0.00000000000E+00 0. -1.
</event>
<event>
 7    1  0.6198176E-013  0.5930192E+02  0.7816164E-02  0.1266605E+00
        -11   -1    0    0    0    0  0.00000000000E+00  0.00000000000E+00  0.45593999997E+02  0.45594000000E+02  0.51100000000E-03 0.  1.
         11   -1    0    0    0    0 -0.00000000000E+00 -0.00000000000E+00 -0.45593999997E+02  0.45594000000E+02  0.51100000000E-03 0. -1.
    9900012    2    1    2    0    0 -0.17277911199E+02  0.67514343510E+01 -0.25934808513E+02  0.59301915672E+02  0.49999948286E+02 0.  0.
        -12    1    1    2    0    0  0.17277911199E+02 -0.67514343510E+01  0.25934808513E+02  0.31886084328E+02  0.00000000000E+00 0.  1.
         11    1    3    3    0    0 -0.16487330037E+02  0.15515640854E+01 -0.16249704063E+02  0.23201126810E+02  0.51100000000E-03 0. -1.
        -11    1    3    3    0    0 -0.15378994073E+02  0.72094833170E+01  0.22657751099E+01  0.17135455801E+02  0.51100000000E-03 0.  1.
        -12    1    3    3    0    0  0.14588412911E+02 -0.20096130514E+01 -0.11950879559E+02  0.18965333061E+02  0.00000000000E+00 0.  1.
</event>
<event>
 7    1  0.6198176E-013  0.5930224E+02  0.7816164E-02  0.1266604E+00
        -11   -1    0    0    0    0  0.00000000000E+00  0.00000000000E+00  0.45593999997E+02  0.45594000000E+02  0.51100000000E-03 0.  1.
         11   -1    0    0    0    0 -0.00000000000E+00 -0.00000000000E+00 -0.45593999997E+02  0.45594000000E+02  0.51100000000E-03 0. -1.
    9900012    2    1    2    0    0  0.29172171687E+02 -0.10322862824E+02 -0.76892587333E+01  0.59302238324E+02  0.50000536723E+02 0.  0.
        -12    1    1    2    0    0 -0.29172171687E+02  0.10322862824E+02  0.76892587333E+01  0.31885761676E+02  0.00000000000E+00 0.  1.
         11    1    3    3    0    0  0.18034337919E+02  0.11986575457E+02 -0.15150594621E+02  0.26428315364E+02  0.51100000000E-03 0. -1.
        -11    1    3    3    0    0  0.12206118104E+02 -0.28834427668E+01  0.34720511970E+01  0.13013788884E+02  0.51100000000E-03 0.  1.
        -12    1    3    3    0    0 -0.10682843356E+01 -0.19425995514E+02  0.39892846909E+01  0.19860134075E+02  0.00000000000E+00 0.  1.
</event>
<event>
 7    1  0.6198176E-013  0.5930194E+02  0.7816164E-02  0.1266605E+00
        -11   -1    0    0    0    0  0.00000000000E+00  0.00000000000E+00  0.45593999997E+02  0.45594000000E+02  0.51100000000E-03 0. -1.
         11   -1    0    0    0    0 -0.00000000000E+00 -0.00000000000E+00 -0.45593999997E+02  0.45594000000E+02  0.51100000000E-03 0.  1.
    9900012    2    1    2    0    0  0.10784930384E+02 -0.18734556005E+02  0.23439759875E+02  0.59301942622E+02  0.49999997436E+02 0.  0.
        -12    1    1    2    0    0 -0.10784930384E+02  0.18734556005E+02 -0.23439759875E+02  0.31886057378E+02  0.00000000000E+00 0.  1.
         11    1    3    3    0    0 -0.53058843794E+00  0.94216703620E+01  0.34822078591E+01  0.10058586796E+02  0.51100000000E-03 0. -1.
        -11    1    3    3    0    0  0.18828668343E+02 -0.11442975163E+02 -0.15671860893E+00  0.22033723996E+02  0.51100000000E-03 0.  1.
         12    1    3    3    0    0 -0.75131495203E+01 -0.16713251204E+02  0.20114270625E+02  0.27209631830E+02  0.00000000000E+00 0. -1.
</event>
<event>
 7    1  0.6198176E-013  0.5930195E+02  0.7816164E-02  0.1266605E+00
        -11   -1    0    0    0    0  0.00000000000E+00  0.00000000000E+00  0.45593999997E+02  0.45594000000E+02  0.51100000000E-03 0.  1.
         11   -1    0    0    0    0 -0.00000000000E+00 -0.00000000000E+00 -0.45593999997E+02  0.45594000000E+02  0.51100000000E-03 0. -1.
    9900012    2    1    2    0    0  0.28842007408E+02  0.99184363365E+01 -0.92996454850E+01  0.59301950121E+02  0.50000011114E+02 0.  0.
        -12    1    1    2    0    0 -0.28842007408E+02 -0.99184363365E+01  0.92996454850E+01  0.31886049879E+02  0.00000000000E+00 0.  1.
         11    1    3    3    0    0  0.19772373031E+01  0.95338389999E+01 -0.86899517386E+01  0.13050625077E+02  0.51100000000E-03 0.  1.
        -11    1    3    3    0    0  0.21635631079E+02  0.17782768012E+02  0.91205536154E+00  0.28020692632E+02  0.51100000000E-03 0. -1.
        -12    1    3    3    0    0  0.52291390264E+01 -0.17398170675E+02 -0.15217491079E+01  0.18230632412E+02  0.00000000000E+00 0.  1.
</event>
<event>
 7    1  0.6198176E-013  0.5930194E+02  0.7816164E-02  0.1266605E+00
        -11   -1    0    0    0    0  0.00000000000E+00  0.00000000000E+00  0.45593999997E+02  0.45594000000E+02  0.51100000000E-03 0.  1.
         11   -1    0    0    0    0 -0.00000000000E+00 -0.00000000000E+00 -0.45593999997E+02  0.45594000000E+02  0.51100000000E-03 0. -1.
    9900012    2    1    2    0    0  0.81617930658E+01  0.25431975552E+02 -0.17416096767E+02  0.59301942340E+02  0.49999996921E+02 0.  0.
        -12    1    1    2    0    0 -0.81617930658E+01 -0.25431975552E+02  0.17416096767E+02  0.31886057660E+02  0.00000000000E+00 0.  1.
         11    1    3    3    0    0 -0.22069111941E+01  0.12222254260E+02 -0.15124154404E+02  0.19570232572E+02  0.51100000000E-03 0. -1.
        -11    1    3    3    0    0  0.14038334180E+02  0.68666946806E+01 -0.17127053926E+02  0.23185389771E+02  0.51100000000E-03 0.  1.
        -12    1    3    3    0    0 -0.36696299198E+01  0.63430266107E+01  0.14835111563E+02  0.16546319997E+02  0.00000000000E+00 0.  1.
</event>
<event>
 7    1  0.6198176E-013  0.5930192E+02  0.7816164E-02  0.1266605E+00
        -11   -1    0    0    0    0  0.00000000000E+00  0.00000000000E+00  0.45593999997E+02  0.45594000000E+02  0.51100000000E-03 0. -1.
         11   -1    0    0    0    0 -0.00000000000E+00 -0.00000000000E+00 -0.45593999997E+02  0.45594000000E+02  0.51100000000E-03 0.  1.
    9900012    2    1    2    0    0 -0.23782277941E+02 -0.21232034249E+02 -0.57084850780E+00  0.59301923251E+02  0.49999962108E+02 0.  0.
        -12    1    1    2    0    0  0.23782277941E+02  0.21232034249E+02  0.57084850780E+00  0.31886076749E+02  0.00000000000E+00 0.  1.
         11    1    3    3    0    0 -0.89917335847E+01 -0.37305419104E+01 -0.52058256549E+01  0.11039421942E+02  0.51100000000E-03 0. -1.
        -11    1    3    3    0    0 -0.18752080389E+02 -0.55761864432E+01  0.20291699776E+02  0.28186653832E+02  0.51100000000E-03 0.  1.
         12    1    3    3    0    0  0.39615360325E+01 -0.11925305896E+02 -0.15656722629E+02  0.20075847477E+02  0.00000000000E+00 0. -1.
</event>
<event>
 7    1  0.6198176E-013  0.5930189E+02  0.7816164E-02  0.1266605E+00
        -11   -1    0    0    0    0  0.00000000000E+00  0.00000000000E+00  0.45593999997E+02  0.45594000000E+02  0.51100000000E-03 0. -1.
         11   -1    0    0    0    0 -0.00000000000E+00 -0.00000000000E+00 -0.45593999997E+02  0.45594000000E+02  0.51100000000E-03 0.  1.
    9900012    2    1    2    0    0  0.95462259968E+01 -0.99511873287E+01  0.28750081610E+02  0.59301894051E+02  0.49999908853E+02 0.  0.
        -12    1    1    2    0    0 -0.95462259968E+01  0.99511873287E+01 -0.28750081610E+02  0.31886105949E+02  0.00000000000E+00 0.  1.
         11    1    3    3    0    0 -0.87253284602E+01 -0.91964571411E+01 -0.21458640515E+01  0.12857329173E+02  0.51100000000E-03 0. -1.
        -11    1    3    3    0    0  0.96936576710E+01 -0.60337232809E+01 -0.23922025656E+01  0.11665995416E+02  0.51100000000E-03 0.  1.
         12    1    3    3    0    0  0.85778967859E+01  0.52789930933E+01  0.33288148227E+02  0.34778569461E+02  0.00000000000E+00 0. -1.
</event>
<event>
 7    1  0.6198176E-013  0.5930196E+02  0.7816164E-02  0.1266605E+00
        -11   -1    0    0    0    0  0.00000000000E+00  0.00000000000E+00  0.45593999997E+02  0.45594000000E+02  0.51100000000E-03 0.  1.
         11   -1    0    0    0    0 -0.00000000000E+00 -0.00000000000E+00 -0.45593999997E+02  0.45594000000E+02  0.51100000000E-03 0. -1.
    9900012    2    1    2    0    0 -0.28621949645E+02 -0.25374595835E+01  0.13822610815E+02  0.59301964304E+02  0.50000036980E+02 0.  0.
        -12    1    1    2    0    0  0.28621949645E+02  0.25374595835E+01 -0.13822610815E+02  0.31886035696E+02  0.00000000000E+00 0.  1.
         11    1    3    3    0    0 -0.80364057420E+01  0.95916192889E+01  0.74969965130E+01  0.14587252476E+02  0.51100000000E-03 0. -1.
        -11    1    3    3    0    0  0.67155917707E+01  0.30807208800E+01  0.10860394652E+02  0.13135379181E+02  0.51100000000E-03 0.  1.
         12    1    3    3    0    0 -0.27301135674E+02 -0.15209799752E+02 -0.45347803497E+01  0.31579332647E+02  0.00000000000E+00 0. -1.
</event>
<event>
 7    1  0.6198176E-013  0.5930194E+02  0.7816164E-02  0.1266605E+00
        -11   -1    0    0    0    0  0.00000000000E+00  0.00000000000E+00  0.45593999997E+02  0.45594000000E+02  0.51100000000E-03 0.  1.
         11   -1    0    0    0    0 -0.00000000000E+00 -0.00000000000E+00 -0.45593999997E+02  0.45594000000E+02  0.51100000000E-03 0. -1.
    9900012    2    1    2    0    0 -0.23358155009E+02 -0.15121171932E+02 -0.15571363990E+02  0.59301943133E+02  0.49999998368E+02 0.  0.
        -12    1    1    2    0    0  0.23358155009E+02  0.15121171932E+02  0.15571363990E+02  0.31886056867E+02  0.00000000000E+00 0.  1.
         11    1    3    3    0    0 -0.61674008403E+01  0.30145694991E+01 -0.12208398832E+02  0.14006051003E+02  0.51100000000E-03 0. -1.
        -11    1    3    3    0    0  0.10081210127E+02 -0.14016772266E+00 -0.72115714275E+01  0.12395854442E+02  0.51100000000E-03 0.  1.
        -12    1    3    3    0    0 -0.27271964296E+02 -0.17995573708E+02  0.38486062692E+01  0.32900037688E+02  0.00000000000E+00 0.  1.
</event>
<event>
 7    1  0.6198176E-013  0.5930195E+02  0.7816164E-02  0.1266605E+00
        -11   -1    0    0    0    0  0.00000000000E+00  0.00000000000E+00  0.45593999997E+02  0.45594000000E+02  0.51100000000E-03 0. -1.
         11   -1    0    0    0    0 -0.00000000000E+00 -0.00000000000E+00 -0.45593999997E+02  0.45594000000E+02  0.51100000000E-03 0.  1.
    9900012    2    1    2    0    0 -0.26771498719E+01 -0.20852125390E+02  0.23973771965E+02  0.59301952786E+02  0.50000015973E+02 0.  0.
        -12    1    1    2    0    0  0.26771498719E+01  0.20852125390E+02 -0.23973771965E+02  0.31886047214E+02  0.00000000000E+00 0.  1.
         11    1    3    3    0    0 -0.15336191997E+02  0.36010983753E+01  0.76934700579E+01  0.17531576549E+02  0.51100000000E-03 0. -1.
        -11    1    3    3    0    0  0.24151974857E+01 -0.19500310793E+01 -0.70953324219E+01  0.77446460567E+01  0.51100000000E-03 0.  1.
         12    1    3    3    0    0  0.10243844640E+02 -0.22503192686E+02  0.23375634329E+02  0.34025730181E+02  0.00000000000E+00 0. -1.
</event>
<event>
 7    1  0.6198176E-013  0.5930196E+02  0.7816164E-02  0.1266605E+00
        -11   -1    0    0    0    0  0.00000000000E+00  0.00000000000E+00  0.45593999997E+02  0.45594000000E+02  0.51100000000E-03 0. -1.
         11   -1    0    0    0    0 -0.00000000000E+00 -0.00000000000E+00 -0.45593999997E+02  0.45594000000E+02  0.51100000000E-03 0.  1.
    9900012    2    1    2    0    0 -0.29763349435E+02 -0.11204991564E+02  0.23044434695E+01  0.59301964417E+02  0.50000037185E+02 0.  0.
        -12    1    1    2    0    0  0.29763349435E+02  0.11204991564E+02 -0.23044434695E+01  0.31886035583E+02  0.00000000000E+00 0.  1.
         11    1    3    3    0    0 -0.25202388758E+02 -0.91424126725E+01 -0.26714039870E+01  0.26942169699E+02  0.51100000000E-03 0. -1.
        -11    1    3    3    0    0 -0.38485800464E+01 -0.12302385921E+02 -0.84846696444E+01  0.15432105720E+02  0.51100000000E-03 0.  1.
        -12    1    3    3    0    0 -0.71238063070E+00  0.10239807030E+02  0.13460517101E+02  0.16927688998E+02  0.00000000000E+00 0.  1.
</event>
<event>
 7    1  0.6198176E-013  0.5930193E+02  0.7816164E-02  0.1266605E+00
        -11   -1    0    0    0    0  0.00000000000E+00  0.00000000000E+00  0.45593999997E+02  0.45594000000E+02  0.51100000000E-03 0.  1.
         11   -1    0    0    0    0 -0.00000000000E+00 -0.00000000000E+00 -0.45593999997E+02  0.45594000000E+02  0.51100000000E-03 0. -1.
    9900012    2    1    2    0    0  0.12925463815E+02  0.41668653419E+01 -0.28849457539E+02  0.59301928089E+02  0.49999970932E+02 0.  0.
        -12    1    1    2    0    0 -0.12925463815E+02 -0.41668653419E+01  0.28849457539E+02  0.31886071911E+02  0.00000000000E+00 0.  1.
         11    1    3    3    0    0  0.23680116930E+00 -0.10655936836E+02 -0.13121230175E+02  0.16904784714E+02  0.51100000000E-03 0. -1.
        -11    1    3    3    0    0 -0.43194224962E+01  0.46397532385E+00 -0.19362332912E+02  0.19843704792E+02  0.51100000000E-03 0.  1.
        -12    1    3    3    0    0  0.17008085142E+02  0.14358826854E+02  0.36341055480E+01  0.22553438584E+02  0.00000000000E+00 0.  1.
</event>
<event>
 7    1  0.6198176E-013  0.5930193E+02  0.7816164E-02  0.1266605E+00
        -11   -1    0    0    0    0  0.00000000000E+00  0.00000000000E+00  0.45593999997E+02  0.45594000000E+02  0.51100000000E-03 0.  1.
         11   -1    0    0    0    0 -0.00000000000E+00 -0.00000000000E+00 -0.45593999997E+02  0.45594000000E+02  0.51100000000E-03 0. -1.
    9900012    2    1    2    0    0 -0.12253981036E+02  0.24639103677E+02 -0.16108265056E+02  0.59301926483E+02  0.49999968002E+02 0.  0.
        -12    1    1    2    0    0  0.12253981036E+02 -0.24639103677E+02  0.16108265056E+02  0.31886073517E+02  0.00000000000E+00 0.  1.
         11    1    3    3    0    0 -0.97869273196E+01  0.25776491672E+02 -0.17799361315E+02  0.32818115923E+02  0.51100000000E-03 0. -1.
        -11    1    3    3    0    0  0.68487628752E+01  0.97129197289E+01  0.25574596645E+01  0.12156766132E+02  0.51100000000E-03 0.  1.
         12    1    3    3    0    0 -0.93158165920E+01 -0.10850307724E+02 -0.86636340539E+00  0.14327044428E+02  0.00000000000E+00 0. -1.
</event>
<event>
 7    1  0.6198176E-013  0.5930194E+02  0.7816164E-02  0.1266605E+00
        -11   -1    0    0    0    0  0.00000000000E+00  0.00000000000E+00  0.45593999997E+02  0.45594000000E+02  0.51100000000E-03 0.  1.
         11   -1    0    0    0    0 -0.00000000000E+00 -0.00000000000E+00 -0.45593999997E+02  0.45594000000E+02  0.51100000000E-03 0. -1.
    9900012    2    1    2    0    0  0.46353663362E+01 -0.44703190203E+01 -0.31228998148E+02  0.59301941941E+02  0.49999996195E+02 0.  0.
        -12    1    1    2    0    0 -0.46353663362E+01  0.44703190203E+01  0.31228998148E+02  0.31886058059E+02  0.00000000000E+00 0.  1.
         11    1    3    3    0    0  0.93751662251E+01 -0.53341262361E+01 -0.35298836167E+02  0.36910086419E+02  0.51100000000E-03 0. -1.
        -11    1    3    3    0    0 -0.76990270526E+01 -0.38425255172E+01 -0.62737389597E+01  0.10648935191E+02  0.51100000000E-03 0.  1.
         12    1    3    3    0    0  0.29592271637E+01  0.47063327330E+01  0.10343576979E+02  0.11742920332E+02  0.00000000000E+00 0. -1.
</event>
<event>
 7    1  0.6198176E-013  0.5930193E+02  0.7816164E-02  0.1266605E+00
        -11   -1    0    0    0    0  0.00000000000E+00  0.00000000000E+00  0.45593999997E+02  0.45594000000E+02  0.51100000000E-03 0. -1.
         11   -1    0    0    0    0 -0.00000000000E+00 -0.00000000000E+00 -0.45593999997E+02  0.45594000000E+02  0.51100000000E-03 0.  1.
    9900012    2    1    2    0    0 -0.76327833794E+01  0.27956058450E+02 -0.13301167996E+02  0.59301926924E+02  0.49999968806E+02 0.  0.
        -12    1    1    2    0    0  0.76327833794E+01 -0.27956058450E+02  0.13301167996E+02  0.31886073076E+02  0.00000000000E+00 0.  1.
         11    1    3    3    0    0 -0.18133956220E+01  0.29023271831E+02 -0.51495651354E+00  0.29084426966E+02  0.51100000000E-03 0. -1.
        -11    1    3    3    0    0  0.34020532918E+01  0.10694203852E+02 -0.11592235389E+01  0.11282010552E+02  0.51100000000E-03 0.  1.
        -12    1    3    3    0    0 -0.92214410492E+01 -0.11761417234E+02 -0.11626987944E+02  0.18935489405E+02  0.00000000000E+00 0.  1.
</event>
<event>
 7    1  0.6198176E-013  0.5930194E+02  0.7816164E-02  0.1266605E+00
        -11   -1    0    0    0    0  0.00000000000E+00  0.00000000000E+00  0.45593999997E+02  0.45594000000E+02  0.51100000000E-03 0.  1.
         11   -1    0    0    0    0 -0.00000000000E+00 -0.00000000000E+00 -0.45593999997E+02  0.45594000000E+02  0.51100000000E-03 0. -1.
    9900012    2    1    2    0    0 -0.21025426023E+02  0.57512562082E+01 -0.23271775138E+02  0.59301937128E+02  0.49999987416E+02 0.  0.
        -12    1    1    2    0    0  0.21025426023E+02 -0.57512562082E+01  0.23271775138E+02  0.31886062872E+02  0.00000000000E+00 0.  1.
         11    1    3    3    0    0 -0.11582468455E+02  0.46345911832E+01 -0.21042961005E+02  0.24463017375E+02  0.51100000000E-03 0. -1.
        -11    1    3    3    0    0 -0.15969262702E+02  0.11594645520E+02 -0.78964295176E+01  0.21255746408E+02  0.51100000000E-03 0.  1.
        -12    1    3    3    0    0  0.65263051346E+01 -0.10477980495E+02  0.56676153846E+01  0.13583173345E+02  0.00000000000E+00 0.  1.
</event>
<event>
 7    1  0.6198176E-013  0.5930191E+02  0.7816164E-02  0.1266605E+00
        -11   -1    0    0    0    0  0.00000000000E+00  0.00000000000E+00  0.45593999997E+02  0.45594000000E+02  0.51100000000E-03 0. -1.
         11   -1    0    0    0    0 -0.00000000000E+00 -0.00000000000E+00 -0.45593999997E+02  0.45594000000E+02  0.51100000000E-03 0.  1.
    9900012    2    1    2    0    0  0.22356364730E+02 -0.20660771156E+02  0.94893848899E+01  0.59301906883E+02  0.49999932256E+02 0.  0.
        -12    1    1    2    0    0 -0.22356364730E+02  0.20660771156E+02 -0.94893848899E+01  0.31886093117E+02  0.00000000000E+00 0.  1.
         11    1    3    3    0    0  0.32263593323E+02 -0.46954484784E+01 -0.49906082209E+01  0.32983220904E+02  0.51100000000E-03 0. -1.
        -11    1    3    3    0    0  0.24063762339E+01 -0.40811763022E+01  0.20217633151E+01  0.51511332493E+01  0.51100000000E-03 0.  1.
        -12    1    3    3    0    0 -0.12313604827E+02 -0.11884146375E+02  0.12458229796E+02  0.21167552729E+02  0.00000000000E+00 0.  1.
</event>
<event>
 7    1  0.6198176E-013  0.5930207E+02  0.7816164E-02  0.1266604E+00
        -11   -1    0    0    0    0  0.00000000000E+00  0.00000000000E+00  0.45593999997E+02  0.45594000000E+02  0.51100000000E-03 0. -1.
         11   -1    0    0    0    0 -0.00000000000E+00 -0.00000000000E+00 -0.45593999997E+02  0.45594000000E+02  0.51100000000E-03 0.  1.
    9900012    2    1    2    0    0  0.22913361007E+02  0.11541992900E+02  0.18933373344E+02  0.59302073027E+02  0.50000235264E+02 0.  0.
        -12    1    1    2    0    0 -0.22913361007E+02 -0.11541992900E+02 -0.18933373344E+02  0.31885926973E+02  0.00000000000E+00 0.  1.
         11    1    3    3    0    0  0.45645115882E+01  0.23552486581E+02  0.21766336145E+02  0.32393329246E+02  0.51100000000E-03 0. -1.
        -11    1    3    3    0    0 -0.13287938610E+01  0.89076759428E+00 -0.29757474468E+01  0.33784956949E+01  0.51100000000E-03 0.  1.
        -12    1    3    3    0    0  0.19677643279E+02 -0.12901261276E+02  0.14278464576E+00  0.23530248086E+02  0.00000000000E+00 0.  1.
</event>
<event>
 7    1  0.6198176E-013  0.5930193E+02  0.7816164E-02  0.1266605E+00
        -11   -1    0    0    0    0  0.00000000000E+00  0.00000000000E+00  0.45593999997E+02  0.45594000000E+02  0.51100000000E-03 0.  1.
         11   -1    0    0    0    0 -0.00000000000E+00 -0.00000000000E+00 -0.45593999997E+02  0.45594000000E+02  0.51100000000E-03 0. -1.
    9900012    2    1    2    0    0  0.23228232797E+02  0.93678232185E+01 -0.19733589037E+02  0.59301930204E+02  0.49999974789E+02 0.  0.
        -12    1    1    2    0    0 -0.23228232797E+02 -0.93678232185E+01  0.19733589037E+02  0.31886069796E+02  0.00000000000E+00 0.  1.
         11    1    3    3    0    0  0.17128492106E+02  0.15083736509E+02 -0.32832388990E+02  0.39985873956E+02  0.51100000000E-03 0. -1.
        -11    1    3    3    0    0 -0.33259090267E+01 -0.16591024460E+01  0.50718071751E+01  0.62878867724E+01  0.51100000000E-03 0.  1.
        -12    1    3    3    0    0  0.94256497178E+01 -0.40568108449E+01  0.80269927783E+01  0.13028169476E+02  0.00000000000E+00 0.  1.
</event>
<event>
 7    1  0.6198176E-013  0.5930193E+02  0.7816164E-02  0.1266605E+00
        -11   -1    0    0    0    0  0.00000000000E+00  0.00000000000E+00  0.45593999997E+02  0.45594000000E+02  0.51100000000E-03 0.  1.
         11   -1    0    0    0    0 -0.00000000000E+00 -0.00000000000E+00 -0.45593999997E+02  0.45594000000E+02  0.51100000000E-03 0. -1.
    9900012    2    1    2    0    0  0.51303747868E+01  0.46983075288E+01 -0.31117945100E+02  0.59301931783E+02  0.49999977668E+02 0.  0.
        -12    1    1    2    0    0 -0.51303747868E+01 -0.46983075288E+01  0.31117945100E+02  0.31886068217E+02  0.00000000000E+00 0.  1.
         11    1    3    3    0    0  0.10185295425E+02  0.37203544067E+01 -0.24953730564E+02  0.27207902328E+02  0.51100000000E-03 0. -1.
        -11    1    3    3    0    0  0.39541690259E+01 -0.88775253581E+00 -0.17231728063E+02  0.17701864578E+02  0.51100000000E-03 0.  1.
        -12    1    3    3    0    0 -0.90090896637E+01  0.18657056579E+01  0.11067513526E+02  0.14392164876E+02  0.00000000000E+00 0.  1.
</event>
<event>
 7    1  0.6569361E-013  0.5930199E+02  0.7816164E-02  0.1266605E+00
        -11   -1    0    0    0    0  0.00000000000E+00  0.00000000000E+00  0.45593999997E+02  0.45594000000E+02  0.51100000000E-03 0.  1.
         11   -1    0    0    0    0 -0.00000000000E+00 -0.00000000000E+00 -0.45593999997E+02  0.45594000000E+02  0.51100000000E-03 0. -1.
    9900012    2    1    2    0    0 -0.29024813459E+02 -0.13043703806E+01 -0.13136828000E+02  0.59301993221E+02  0.50000089716E+02 0.  0.
        -12    1    1    2    0    0  0.29024813459E+02  0.13043703806E+01  0.13136828000E+02  0.31886006779E+02  0.00000000000E+00 0.  1.
         11    1    3    3    0    0 -0.67291627336E+01 -0.32291730697E+01 -0.19917438539E+02  0.21270015233E+02  0.51100000000E-03 0. -1.
        -11    1    3    3    0    0  0.73940087090E+01 -0.13776552800E+01  0.19633631921E+01  0.77732936485E+01  0.51100000000E-03 0.  1.
        -12    1    3    3    0    0 -0.29689659434E+02  0.33024579692E+01  0.48172473462E+01  0.30258684339E+02  0.00000000000E+00 0.  1.
</event>
<event>
 7    1  0.6198176E-013  0.5930199E+02  0.7816164E-02  0.1266605E+00
        -11   -1    0    0    0    0  0.00000000000E+00  0.00000000000E+00  0.45593999997E+02  0.45594000000E+02  0.51100000000E-03 0.  1.
         11   -1    0    0    0    0 -0.00000000000E+00 -0.00000000000E+00 -0.45593999997E+02  0.45594000000E+02  0.51100000000E-03 0. -1.
    9900012    2    1    2    0    0 -0.12926104391E+01  0.27394288691E+02 -0.16266523993E+02  0.59301989001E+02  0.50000082020E+02 0.  0.
        -12    1    1    2    0    0  0.12926104391E+01 -0.27394288691E+02  0.16266523993E+02  0.31886010999E+02  0.00000000000E+00 0.  1.
         11    1    3    3    0    0 -0.82758542543E+00  0.80565355380E+01  0.63481494617E+01  0.10290367552E+02  0.51100000000E-03 0. -1.
        -11    1    3    3    0    0 -0.13059491016E+02  0.23685780145E+02 -0.59833846847E+01  0.27701396702E+02  0.51100000000E-03 0.  1.
         12    1    3    3    0    0  0.12594466002E+02 -0.43480269928E+01 -0.16631288770E+02  0.21310224747E+02  0.00000000000E+00 0. -1.
</event>
<event>
 7    1  0.6198176E-013  0.5930199E+02  0.7816164E-02  0.1266605E+00
        -11   -1    0    0    0    0  0.00000000000E+00  0.00000000000E+00  0.45593999997E+02  0.45594000000E+02  0.51100000000E-03 0. -1.
         11   -1    0    0    0    0 -0.00000000000E+00 -0.00000000000E+00 -0.45593999997E+02  0.45594000000E+02  0.51100000000E-03 0.  1.
    9900012    2    1    2    0    0  0.80545281460E+01  0.18962300315E+02  0.24336665915E+02  0.59301991081E+02  0.50000085814E+02 0.  0.
        -12    1    1    2    0    0 -0.80545281460E+01 -0.18962300315E+02 -0.24336665915E+02  0.31886008919E+02  0.00000000000E+00 0.  1.
         11    1    3    3    0    0 -0.16701914037E+01  0.58946478502E+01 -0.87420770983E+01  0.10675220132E+02  0.51100000000E-03 0. -1.
        -11    1    3    3    0    0 -0.11206782507E+02  0.14387840764E+01  0.14126072391E+02  0.18088891487E+02  0.51100000000E-03 0.  1.
         12    1    3    3    0    0  0.20931502057E+02  0.11628868389E+02  0.18952670622E+02  0.30537879462E+02  0.00000000000E+00 0. -1.
</event>
<event>
 7    1  0.6198176E-013  0.5930196E+02  0.7816164E-02  0.1266605E+00
        -11   -1    0    0    0    0  0.00000000000E+00  0.00000000000E+00  0.45593999997E+02  0.45594000000E+02  0.51100000000E-03 0. -1.
         11   -1    0    0    0    0 -0.00000000000E+00 -0.00000000000E+00 -0.45593999997E+02  0.45594000000E+02  0.51100000000E-03 0.  1.
    9900012    2    1    2    0    0 -0.27026574803E+02 -0.88494648318E+00  0.16896765419E+02  0.59301959833E+02  0.50000028825E+02 0.  0.
        -12    1    1    2    0    0  0.27026574803E+02  0.88494648318E+00 -0.16896765419E+02  0.31886040167E+02  0.00000000000E+00 0.  1.
         11    1    3    3    0    0  0.89679245289E+01  0.41000946499E-01  0.94204765763E+01  0.13006564905E+02  0.51100000000E-03 0. -1.
        -11    1    3    3    0    0 -0.48759329184E+01 -0.11307402189E+02  0.53382864477E+01  0.13421228280E+02  0.51100000000E-03 0.  1.
         12    1    3    3    0    0 -0.31118566414E+02  0.10381454759E+02  0.21380023955E+01  0.32874166648E+02  0.00000000000E+00 0. -1.
</event>
<event>
 7    1  0.6198176E-013  0.5930195E+02  0.7816164E-02  0.1266605E+00
        -11   -1    0    0    0    0  0.00000000000E+00  0.00000000000E+00  0.45593999997E+02  0.45594000000E+02  0.51100000000E-03 0. -1.
         11   -1    0    0    0    0 -0.00000000000E+00 -0.00000000000E+00 -0.45593999997E+02  0.45594000000E+02  0.51100000000E-03 0.  1.
    9900012    2    1    2    0    0  0.19877453978E+02 -0.24318988133E+02  0.54949040003E+01  0.59301947713E+02  0.50000006721E+02 0.  0.
        -12    1    1    2    0    0 -0.19877453978E+02  0.24318988133E+02 -0.54949040003E+01  0.31886052287E+02  0.00000000000E+00 0.  1.
         11    1    3    3    0    0 -0.40800421205E+01 -0.76998641067E+01 -0.59043264938E+01  0.10525954711E+02  0.51100000000E-03 0. -1.
        -11    1    3    3    0    0  0.10572702853E+02  0.98020330587E+01 -0.45735318626E+01  0.15125445173E+02  0.51100000000E-03 0.  1.
         12    1    3    3    0    0  0.13384793245E+02 -0.26421157085E+02  0.15972762357E+02  0.33650547830E+02  0.00000000000E+00 0. -1.
</event>
<event>
 7    1  0.6198176E-013  0.5930195E+02  0.7816164E-02  0.1266605E+00
        -11   -1    0    0    0    0  0.00000000000E+00  0.00000000000E+00  0.45593999997E+02  0.45594000000E+02  0.51100000000E-03 0. -1.
         11   -1    0    0    0    0 -0.00000000000E+00 -0.00000000000E+00 -0.45593999997E+02  0.45594000000E+02  0.51100000000E-03 0.  1.
    9900012    2    1    2    0    0 -0.11305462465E+02  0.20006549944E+02  0.22105307636E+02  0.59301950575E+02  0.50000011941E+02 0.  0.
        -12    1    1    2    0    0  0.11305462465E+02 -0.20006549944E+02 -0.22105307636E+02  0.31886049425E+02  0.00000000000E+00 0.  1.
         11    1    3    3    0    0  0.53540934087E+01 -0.51296370837E+01  0.13108278953E+02  0.15060095292E+02  0.51100000000E-03 0. -1.
        -11    1    3    3    0    0 -0.83545763905E+01 -0.40811106896E+01 -0.52652745350E+01  0.10685388496E+02  0.51100000000E-03 0.  1.
         12    1    3    3    0    0 -0.83049794837E+01  0.29217297718E+02  0.14262303218E+02  0.33556466787E+02  0.00000000000E+00 0. -1.
</event>
<event>
 7    1  0.6198176E-013  0.5930189E+02  0.7816164E-02  0.1266605E+00
        -11   -1    0    0    0    0  0.00000000000E+00  0.00000000000E+00  0.45593999997E+02  0.45594000000E+02  0.51100000000E-03 0. -1.
         11   -1    0    0    0    0 -0.00000000000E+00 -0.00000000000E+00 -0.45593999997E+02  0.45594000000E+02  0.51100000000E-03 0.  1.
    9900012    2    1    2    0    0  0.30109042806E+02 -0.40581315528E+01 -0.96799194812E+01  0.59301894381E+02  0.49999909456E+02 0.  0.
        -12    1    1    2    0    0 -0.30109042806E+02  0.40581315528E+01  0.96799194812E+01  0.31886105619E+02  0.00000000000E+00 0.  1.
         11    1    3    3    0    0  0.16879663006E+02 -0.47555810130E+01 -0.10733290118E+00  0.17537106220E+02  0.51100000000E-03 0. -1.
        -11    1    3    3    0    0 -0.92175267428E+01 -0.39532629339E+01 -0.15153160082E+02  0.18171663320E+02  0.51100000000E-03 0.  1.
         12    1    3    3    0    0  0.22446906543E+02  0.46507123941E+01  0.55805735023E+01  0.23593124840E+02  0.00000000000E+00 0. -1.
</event>
<event>
 7    1  0.6198176E-013  0.5930196E+02  0.7816164E-02  0.1266605E+00
        -11   -1    0    0    0    0  0.00000000000E+00  0.00000000000E+00  0.45593999997E+02  0.45594000000E+02  0.51100000000E-03 0.  1.
         11   -1    0    0    0    0 -0.00000000000E+00 -0.00000000000E+00 -0.45593999997E+02  0.45594000000E+02  0.51100000000E-03 0. -1.
    9900012    2    1    2    0    0  0.35188661752E+01  0.42481059631E+01 -0.31405263883E+02  0.59301961942E+02  0.50000032672E+02 0.  0.
        -12    1    1    2    0    0 -0.35188661752E+01 -0.42481059631E+01  0.31405263883E+02  0.31886038058E+02  0.00000000000E+00 0.  1.
         11    1    3    3    0    0  0.13755837424E+02  0.55242021309E+01 -0.14903318406E+02  0.21020199147E+02  0.51100000000E-03 0. -1.
        -11    1    3    3    0    0 -0.21413443119E+01 -0.16848601419E+02 -0.77257544998E+01  0.18658724718E+02  0.51100000000E-03 0.  1.
        -12    1    3    3    0    0 -0.80956269373E+01  0.15572505251E+02 -0.87761909777E+01  0.19623038077E+02  0.00000000000E+00 0.  1.
</event>
<event>
 7    1  0.6198176E-013  0.5930195E+02  0.7816164E-02  0.1266605E+00
        -11   -1    0    0    0    0  0.00000000000E+00  0.00000000000E+00  0.45593999997E+02  0.45594000000E+02  0.51100000000E-03 0.  1.
         11   -1    0    0    0    0 -0.00000000000E+00 -0.00000000000E+00 -0.45593999997E+02  0.45594000000E+02  0.51100000000E-03 0. -1.
    9900012    2    1    2    0    0 -0.64892659052E+01 -0.16682533192E+02 -0.26387547720E+02  0.59301950380E+02  0.50000011586E+02 0.  0.
        -12    1    1    2    0    0  0.64892659052E+01  0.16682533192E+02  0.26387547720E+02  0.31886049620E+02  0.00000000000E+00 0.  1.
         11    1    3    3    0    0  0.41545262482E+01  0.19952378696E+01 -0.13229593885E+01  0.47949227636E+01  0.51100000000E-03 0. -1.
        -11    1    3    3    0    0 -0.15018249289E+02  0.75419143676E+01  0.15679425192E+01  0.16878587857E+02  0.51100000000E-03 0.  1.
         12    1    3    3    0    0  0.43744571359E+01 -0.26219685430E+02 -0.26632530850E+02  0.37628439760E+02  0.00000000000E+00 0. -1.
</event>
<event>
 7    1  0.6198176E-013  0.5930194E+02  0.7816164E-02  0.1266605E+00
        -11   -1    0    0    0    0  0.00000000000E+00  0.00000000000E+00  0.45593999997E+02  0.45594000000E+02  0.51100000000E-03 0.  1.
         11   -1    0    0    0    0 -0.00000000000E+00 -0.00000000000E+00 -0.45593999997E+02  0.45594000000E+02  0.51100000000E-03 0. -1.
    9900012    2    1    2    0    0 -0.19806337988E+02  0.13923827464E+02 -0.20749868750E+02  0.59301936447E+02  0.49999986175E+02 0.  0.
        -12    1    1    2    0    0  0.19806337988E+02 -0.13923827464E+02  0.20749868750E+02  0.31886063553E+02  0.00000000000E+00 0.  1.
         11    1    3    3    0    0 -0.24372124327E+02  0.14744139929E+02 -0.30156975653E+01  0.28644101287E+02  0.51100000000E-03 0. -1.
        -11    1    3    3    0    0  0.27288225509E+01  0.11306910367E+02 -0.41356344424E+01  0.12344884247E+02  0.51100000000E-03 0.  1.
         12    1    3    3    0    0  0.18369637881E+01 -0.12127222833E+02 -0.13598536743E+02  0.18312950913E+02  0.00000000000E+00 0. -1.
</event>
<event>
 7    1  0.6198176E-013  0.5930198E+02  0.7816164E-02  0.1266605E+00
        -11   -1    0    0    0    0  0.00000000000E+00  0.00000000000E+00  0.45593999997E+02  0.45594000000E+02  0.51100000000E-03 0. -1.
         11   -1    0    0    0    0 -0.00000000000E+00 -0.00000000000E+00 -0.45593999997E+02  0.45594000000E+02  0.51100000000E-03 0.  1.
    9900012    2    1    2    0    0 -0.13743859282E+02  0.27422408483E+02  0.87083964943E+01  0.59301979168E+02  0.50000064088E+02 0.  0.
        -12    1    1    2    0    0  0.13743859282E+02 -0.27422408483E+02 -0.87083964943E+01  0.31886020832E+02  0.00000000000E+00 0.  1.
         11    1    3    3    0    0 -0.29911578513E+01  0.29182377291E+02  0.16424189736E+02  0.33620115681E+02  0.51100000000E-03 0. -1.
        -11    1    3    3    0    0  0.29722310932E+01  0.12405376479E+01  0.55129514070E+01  0.63848042104E+01  0.51100000000E-03 0.  1.
        -12    1    3    3    0    0 -0.13724932524E+02 -0.30005064556E+01 -0.13228744649E+02  0.19297059277E+02  0.00000000000E+00 0.  1.
</event>
<event>
 7    1  0.6198176E-013  0.5930195E+02  0.7816164E-02  0.1266605E+00
        -11   -1    0    0    0    0  0.00000000000E+00  0.00000000000E+00  0.45593999997E+02  0.45594000000E+02  0.51100000000E-03 0. -1.
         11   -1    0    0    0    0 -0.00000000000E+00 -0.00000000000E+00 -0.45593999997E+02  0.45594000000E+02  0.51100000000E-03 0.  1.
    9900012    2    1    2    0    0 -0.31383684046E+02 -0.88500411404E+00 -0.55678969848E+01  0.59301947667E+02  0.50000006637E+02 0.  0.
        -12    1    1    2    0    0  0.31383684046E+02  0.88500411404E+00  0.55678969848E+01  0.31886052333E+02  0.00000000000E+00 0.  1.
         11    1    3    3    0    0 -0.20053463654E+02  0.17622321484E+02 -0.15803869251E+02  0.31023376711E+02  0.51100000000E-03 0. -1.
        -11    1    3    3    0    0 -0.39724965379E+01  0.16926396900E+01  0.40201107894E+01  0.58997499001E+01  0.51100000000E-03 0.  1.
        -12    1    3    3    0    0 -0.73577238536E+01 -0.20199965288E+02  0.62158614769E+01  0.22378821055E+02  0.00000000000E+00 0.  1.
</event>
<event>
 7    1  0.6198176E-013  0.5930194E+02  0.7816164E-02  0.1266605E+00
        -11   -1    0    0    0    0  0.00000000000E+00  0.00000000000E+00  0.45593999997E+02  0.45594000000E+02  0.51100000000E-03 0. -1.
         11   -1    0    0    0    0 -0.00000000000E+00 -0.00000000000E+00 -0.45593999997E+02  0.45594000000E+02  0.51100000000E-03 0.  1.
    9900012    2    1    2    0    0 -0.30325503201E+02 -0.97465517507E+01 -0.14454130860E+01  0.59301942947E+02  0.49999998028E+02 0.  0.
        -12    1    1    2    0    0  0.30325503201E+02  0.97465517507E+01  0.14454130860E+01  0.31886057053E+02  0.00000000000E+00 0.  1.
         11    1    3    3    0    0 -0.76694183412E+00  0.55764306088E+01  0.10278655222E+02  0.11719024343E+02  0.51100000000E-03 0. -1.
        -11    1    3    3    0    0  0.36583254290E+01 -0.64352363229E+01 -0.10914592847E+02  0.13188022928E+02  0.51100000000E-03 0.  1.
         12    1    3    3    0    0 -0.33216886796E+02 -0.88877460365E+01 -0.80947546094E+00  0.34394895676E+02  0.00000000000E+00 0. -1.
</event>
<event>
 7    1  0.6198176E-013  0.5930188E+02  0.7816164E-02  0.1266605E+00
        -11   -1    0    0    0    0  0.00000000000E+00  0.00000000000E+00  0.45593999997E+02  0.45594000000E+02  0.51100000000E-03 0.  1.
         11   -1    0    0    0    0 -0.00000000000E+00 -0.00000000000E+00 -0.45593999997E+02  0.45594000000E+02  0.51100000000E-03 0. -1.
    9900012    2    1    2    0    0 -0.24285369222E+01  0.82993428222E+01 -0.30691166844E+02  0.59301880683E+02  0.49999884474E+02 0.  0.
        -12    1    1    2    0    0  0.24285369222E+01 -0.82993428222E+01  0.30691166844E+02  0.31886119317E+02  0.00000000000E+00 0.  1.
         11    1    3    3    0    0  0.32858967004E+01  0.66791731734E+01 -0.35637054250E+00  0.74522125326E+01  0.51100000000E-03 0. -1.
        -11    1    3    3    0    0 -0.98111899233E+01  0.45506320432E+01  0.78311997181E+01  0.13352729646E+02  0.51100000000E-03 0.  1.
         12    1    3    3    0    0  0.40967563006E+01 -0.29304623945E+01 -0.38165996020E+02  0.38496938504E+02  0.00000000000E+00 0. -1.
</event>
<event>
 7    1  0.6198176E-013  0.5930188E+02  0.7816164E-02  0.1266605E+00
        -11   -1    0    0    0    0  0.00000000000E+00  0.00000000000E+00  0.45593999997E+02  0.45594000000E+02  0.51100000000E-03 0.  1.
         11   -1    0    0    0    0 -0.00000000000E+00 -0.00000000000E+00 -0.45593999997E+02  0.45594000000E+02  0.51100000000E-03 0. -1.
    9900012    2    1    2    0    0  0.18997807200E+02  0.24294088331E+02 -0.80997210708E+01  0.59301876252E+02  0.49999876394E+02 0.  0.
        -12    1    1    2    0    0 -0.18997807200E+02 -0.24294088331E+02  0.80997210708E+01  0.31886123748E+02  0.00000000000E+00 0.  1.
         11    1    3    3    0    0  0.16627434744E+02 -0.47636332785E+01 -0.13956920580E+02  0.22225197873E+02  0.51100000000E-03 0. -1.
        -11    1    3    3    0    0 -0.76188714527E+01  0.69019439669E+01 -0.37503736554E+01  0.10943003955E+02  0.51100000000E-03 0.  1.
        -12    1    3    3    0    0  0.99892439095E+01  0.22155777642E+02  0.96075731646E+01  0.26133674424E+02  0.00000000000E+00 0.  1.
</event>
<event>
 7    1  0.6198176E-013  0.5930194E+02  0.7816164E-02  0.1266605E+00
        -11   -1    0    0    0    0  0.00000000000E+00  0.00000000000E+00  0.45593999997E+02  0.45594000000E+02  0.51100000000E-03 0.  1.
         11   -1    0    0    0    0 -0.00000000000E+00 -0.00000000000E+00 -0.45593999997E+02  0.45594000000E+02  0.51100000000E-03 0. -1.
    9900012    2    1    2    0    0  0.12168184348E+02  0.42194213279E+01 -0.29169381052E+02  0.59301936938E+02  0.49999987069E+02 0.  0.
        -12    1    1    2    0    0 -0.12168184348E+02 -0.42194213279E+01  0.29169381052E+02  0.31886063062E+02  0.00000000000E+00 0.  1.
         11    1    3    3    0    0  0.92597186030E+01  0.89711429044E+01 -0.56970989406E+01  0.14095415220E+02  0.51100000000E-03 0. -1.
        -11    1    3    3    0    0 -0.53694766786E+01  0.15026471590E+02 -0.15741420141E+02  0.22414692426E+02  0.51100000000E-03 0.  1.
         12    1    3    3    0    0  0.82779424231E+01 -0.19778193166E+02 -0.77308619705E+01  0.22791829292E+02  0.00000000000E+00 0. -1.
</event>
<event>
 7    1  0.6198176E-013  0.5930207E+02  0.7816164E-02  0.1266604E+00
        -11   -1    0    0    0    0  0.00000000000E+00  0.00000000000E+00  0.45593999997E+02  0.45594000000E+02  0.51100000000E-03 0.  1.
         11   -1    0    0    0    0 -0.00000000000E+00 -0.00000000000E+00 -0.45593999997E+02  0.45594000000E+02  0.51100000000E-03 0. -1.
    9900012    2    1    2    0    0 -0.13699715648E+02 -0.14491019969E+02 -0.24880521493E+02  0.59302074918E+02  0.50000238712E+02 0.  0.
        -12    1    1    2    0    0  0.13699715648E+02  0.14491019969E+02  0.24880521493E+02  0.31885925082E+02  0.00000000000E+00 0.  1.
         11    1    3    3    0    0 -0.23678845375E+01 -0.14926489519E+02 -0.38580651482E+01  0.15597808612E+02  0.51100000000E-03 0. -1.
        -11    1    3    3    0    0  0.11083860195E+02 -0.58631399648E+01 -0.15198061897E+02  0.19703031562E+02  0.51100000000E-03 0.  1.
        -12    1    3    3    0    0 -0.22415691306E+02  0.62986095147E+01 -0.58243944478E+01  0.24001234744E+02  0.00000000000E+00 0.  1.
</event>
<event>
 7    1  0.6198176E-013  0.5930183E+02  0.7816164E-02  0.1266605E+00
        -11   -1    0    0    0    0  0.00000000000E+00  0.00000000000E+00  0.45593999997E+02  0.45594000000E+02  0.51100000000E-03 0.  1.
         11   -1    0    0    0    0 -0.00000000000E+00 -0.00000000000E+00 -0.45593999997E+02  0.45594000000E+02  0.51100000000E-03 0. -1.
    9900012    2    1    2    0    0 -0.66542767132E+01  0.19466378657E+02 -0.24362025629E+02  0.59301833887E+02  0.49999799130E+02 0.  0.
        -12    1    1    2    0    0  0.66542767132E+01 -0.19466378657E+02  0.24362025629E+02  0.31886166113E+02  0.00000000000E+00 0.  1.
         11    1    3    3    0    0  0.27780640307E-01  0.28580337049E+02 -0.21150253938E+02  0.35555163894E+02  0.51100000000E-03 0. -1.
        -11    1    3    3    0    0  0.58445898127E+01 -0.88039104623E+00  0.39747964101E+01  0.71227329892E+01  0.51100000000E-03 0.  1.
         12    1    3    3    0    0 -0.12526647166E+02 -0.82335673455E+01 -0.71865681013E+01  0.16623937005E+02  0.00000000000E+00 0. -1.
</event>
<event>
 7    1  0.6198176E-013  0.5930194E+02  0.7816164E-02  0.1266605E+00
        -11   -1    0    0    0    0  0.00000000000E+00  0.00000000000E+00  0.45593999997E+02  0.45594000000E+02  0.51100000000E-03 0.  1.
         11   -1    0    0    0    0 -0.00000000000E+00 -0.00000000000E+00 -0.45593999997E+02  0.45594000000E+02  0.51100000000E-03 0. -1.
    9900012    2    1    2    0    0  0.18730138889E+02 -0.95535960598E+01 -0.23971478958E+02  0.59301935584E+02  0.49999984601E+02 0.  0.
        -12    1    1    2    0    0 -0.18730138889E+02  0.95535960598E+01  0.23971478958E+02  0.31886064416E+02  0.00000000000E+00 0.  1.
         11    1    3    3    0    0 -0.59426402713E+01  0.95116336130E+01  0.42531944215E+00  0.11223504100E+02  0.51100000000E-03 0. -1.
        -11    1    3    3    0    0  0.14827434291E+02 -0.11997370443E+02  0.18557654677E+01  0.19163339243E+02  0.51100000000E-03 0.  1.
        -12    1    3    3    0    0  0.98453448700E+01 -0.70678592294E+01 -0.26252563868E+02  0.28915092242E+02  0.00000000000E+00 0.  1.
</event>
<event>
 7    1  0.6198176E-013  0.5930195E+02  0.7816164E-02  0.1266605E+00
        -11   -1    0    0    0    0  0.00000000000E+00  0.00000000000E+00  0.45593999997E+02  0.45594000000E+02  0.51100000000E-03 0.  1.
         11   -1    0    0    0    0 -0.00000000000E+00 -0.00000000000E+00 -0.45593999997E+02  0.45594000000E+02  0.51100000000E-03 0. -1.
    9900012    2    1    2    0    0 -0.18706040634E+02  0.23659598813E+02 -0.10345400146E+02  0.59301954833E+02  0.50000019707E+02 0.  0.
        -12    1    1    2    0    0  0.18706040634E+02 -0.23659598813E+02  0.10345400146E+02  0.31886045167E+02  0.00000000000E+00 0.  1.
         11    1    3    3    0    0 -0.38399629033E+01 -0.82338723935E+01  0.24874380055E+01  0.94196240787E+01  0.51100000000E-03 0. -1.
        -11    1    3    3    0    0  0.44197746797E+01  0.25815877279E+02 -0.49790035666E+00  0.26196217913E+02  0.51100000000E-03 0.  1.
         12    1    3    3    0    0 -0.19285852410E+02  0.60775939271E+01 -0.12334937795E+02  0.23686112841E+02  0.00000000000E+00 0. -1.
</event>
<event>
 7    1  0.6198176E-013  0.5930194E+02  0.7816164E-02  0.1266605E+00
        -11   -1    0    0    0    0  0.00000000000E+00  0.00000000000E+00  0.45593999997E+02  0.45594000000E+02  0.51100000000E-03 0.  1.
         11   -1    0    0    0    0 -0.00000000000E+00 -0.00000000000E+00 -0.45593999997E+02  0.45594000000E+02  0.51100000000E-03 0. -1.
    9900012    2    1    2    0    0 -0.27325332076E+02  0.10735760913E+02 -0.12441490067E+02  0.59301937049E+02  0.49999987273E+02 0.  0.
        -12    1    1    2    0    0  0.27325332076E+02 -0.10735760913E+02  0.12441490067E+02  0.31886062951E+02  0.00000000000E+00 0.  1.
         11    1    3    3    0    0  0.28853569702E+01  0.12438400875E+01  0.30118821125E+01  0.43524541501E+01  0.51100000000E-03 0. -1.
        -11    1    3    3    0    0  0.59964668665E+01 -0.14658122428E+01 -0.15965200076E+02  0.17117062661E+02  0.51100000000E-03 0.  1.
         12    1    3    3    0    0 -0.36207155912E+02  0.10957733068E+02  0.51182789729E+00  0.37832420238E+02  0.00000000000E+00 0. -1.
</event>
<event>
 7    1  0.6198176E-013  0.5930192E+02  0.7816164E-02  0.1266605E+00
        -11   -1    0    0    0    0  0.00000000000E+00  0.00000000000E+00  0.45593999997E+02  0.45594000000E+02  0.51100000000E-03 0.  1.
         11   -1    0    0    0    0 -0.00000000000E+00 -0.00000000000E+00 -0.45593999997E+02  0.45594000000E+02  0.51100000000E-03 0. -1.
    9900012    2    1    2    0    0  0.11090093660E+01 -0.31070743419E+02 -0.70782321877E+01  0.59301915742E+02  0.49999948415E+02 0.  0.
        -12    1    1    2    0    0 -0.11090093660E+01  0.31070743419E+02  0.70782321877E+01  0.31886084258E+02  0.00000000000E+00 0.  1.
         11    1    3    3    0    0 -0.38351158642E+01 -0.12491795399E+02  0.17914046118E+01  0.13189472951E+02  0.51100000000E-03 0. -1.
        -11    1    3    3    0    0 -0.17958760861E+02 -0.11294595390E+02 -0.44135022392E+01  0.21669424980E+02  0.51100000000E-03 0.  1.
         12    1    3    3    0    0  0.22902886091E+02 -0.72843526303E+01 -0.44561345603E+01  0.24443017812E+02  0.00000000000E+00 0. -1.
</event>
<event>
 7    1  0.6198176E-013  0.5930190E+02  0.7816164E-02  0.1266605E+00
        -11   -1    0    0    0    0  0.00000000000E+00  0.00000000000E+00  0.45593999997E+02  0.45594000000E+02  0.51100000000E-03 0.  1.
         11   -1    0    0    0    0 -0.00000000000E+00 -0.00000000000E+00 -0.45593999997E+02  0.45594000000E+02  0.51100000000E-03 0. -1.
    9900012    2    1    2    0    0 -0.83934652829E+01  0.21736923200E+02 -0.21766466540E+02  0.59301903417E+02  0.49999925936E+02 0.  0.
        -12    1    1    2    0    0  0.83934652829E+01 -0.21736923200E+02  0.21766466540E+02  0.31886096583E+02  0.00000000000E+00 0.  1.
         11    1    3    3    0    0 -0.13878071037E+02  0.12282535665E+01 -0.70754328479E+01  0.15625978778E+02  0.51100000000E-03 0. -1.
        -11    1    3    3    0    0 -0.79812973072E+01  0.14456174194E+02  0.65864342652E+01  0.17778166262E+02  0.51100000000E-03 0.  1.
         12    1    3    3    0    0  0.13465903061E+02  0.60524954398E+01 -0.21277467957E+02  0.25897758377E+02  0.00000000000E+00 0. -1.
</event>
<event>
 7    1  0.6198176E-013  0.5930195E+02  0.7816164E-02  0.1266605E+00
        -11   -1    0    0    0    0  0.00000000000E+00  0.00000000000E+00  0.45593999997E+02  0.45594000000E+02  0.51100000000E-03 0.  1.
         11   -1    0    0    0    0 -0.00000000000E+00 -0.00000000000E+00 -0.45593999997E+02  0.45594000000E+02  0.51100000000E-03 0. -1.
    9900012    2    1    2    0    0 -0.21315930409E+02  0.20813271913E+02 -0.11364818034E+02  0.59301948726E+02  0.50000008569E+02 0.  0.
        -12    1    1    2    0    0  0.21315930409E+02 -0.20813271913E+02  0.11364818034E+02  0.31886051274E+02  0.00000000000E+00 0.  1.
         11    1    3    3    0    0 -0.23501264101E+02  0.14612462491E+02  0.88777281574E+01  0.29062820440E+02  0.51100000000E-03 0.  1.
        -11    1    3    3    0    0 -0.70093934256E+01  0.98451049056E+01 -0.79685007457E+01  0.14476003979E+02  0.51100000000E-03 0. -1.
        -12    1    3    3    0    0  0.91947271182E+01 -0.36442954836E+01 -0.12274045445E+02  0.15763124308E+02  0.00000000000E+00 0.  1.
</event>
<event>
 7    1  0.6198176E-013  0.5930193E+02  0.7816164E-02  0.1266605E+00
        -11   -1    0    0    0    0  0.00000000000E+00  0.00000000000E+00  0.45593999997E+02  0.45594000000E+02  0.51100000000E-03 0.  1.
         11   -1    0    0    0    0 -0.00000000000E+00 -0.00000000000E+00 -0.45593999997E+02  0.45594000000E+02  0.51100000000E-03 0. -1.
    9900012    2    1    2    0    0  0.23058553047E+02 -0.20893930756E+02 -0.69619077791E+01  0.59301931396E+02  0.49999976963E+02 0.  0.
        -12    1    1    2    0    0 -0.23058553047E+02  0.20893930756E+02  0.69619077791E+01  0.31886068604E+02  0.00000000000E+00 0.  1.
         11    1    3    3    0    0 -0.10502520242E+01  0.74734302351E+00 -0.29871818595E+01  0.32534299796E+01  0.51100000000E-03 0. -1.
        -11    1    3    3    0    0  0.79127539253E+01 -0.10207667738E+01 -0.22546891307E+02  0.23916854881E+02  0.51100000000E-03 0.  1.
         12    1    3    3    0    0  0.16196051146E+02 -0.20620507006E+02  0.18572165388E+02  0.32131646536E+02  0.00000000000E+00 0. -1.
</event>
<event>
 7    1  0.6198176E-013  0.5930195E+02  0.7816164E-02  0.1266605E+00
        -11   -1    0    0    0    0  0.00000000000E+00  0.00000000000E+00  0.45593999997E+02  0.45594000000E+02  0.51100000000E-03 0.  1.
         11   -1    0    0    0    0 -0.00000000000E+00 -0.00000000000E+00 -0.45593999997E+02  0.45594000000E+02  0.51100000000E-03 0. -1.
    9900012    2    1    2    0    0 -0.30996007153E+01  0.24608627933E+02  0.20038169229E+02  0.59301947887E+02  0.50000007038E+02 0.  0.
        -12    1    1    2    0    0  0.30996007153E+01 -0.24608627933E+02 -0.20038169229E+02  0.31886052113E+02  0.00000000000E+00 0.  1.
         11    1    3    3    0    0 -0.71236675592E+01  0.15011924786E+02  0.21490373462E+02  0.27165063540E+02  0.51100000000E-03 0.  1.
        -11    1    3    3    0    0  0.31207363552E+01  0.14223592722E+02  0.11370315894E+02  0.18475217701E+02  0.51100000000E-03 0. -1.
         12    1    3    3    0    0  0.90333048875E+00 -0.46268895762E+01 -0.12822520128E+02  0.13661666646E+02  0.00000000000E+00 0. -1.
</event>
<event>
 7    1  0.6198176E-013  0.5930194E+02  0.7816164E-02  0.1266605E+00
        -11   -1    0    0    0    0  0.00000000000E+00  0.00000000000E+00  0.45593999997E+02  0.45594000000E+02  0.51100000000E-03 0.  1.
         11   -1    0    0    0    0 -0.00000000000E+00 -0.00000000000E+00 -0.45593999997E+02  0.45594000000E+02  0.51100000000E-03 0. -1.
    9900012    2    1    2    0    0  0.11999525957E+01 -0.34755053936E+01 -0.31673363585E+02  0.59301937453E+02  0.49999988009E+02 0.  0.
        -12    1    1    2    0    0 -0.11999525957E+01  0.34755053936E+01  0.31673363585E+02  0.31886062547E+02  0.00000000000E+00 0.  1.
         11    1    3    3    0    0 -0.97625449172E+01 -0.49140405569E+01 -0.39847520475E+01  0.11633285305E+02  0.51100000000E-03 0. -1.
        -11    1    3    3    0    0 -0.29244449403E+01  0.90299522115E+01  0.54497659284E+01  0.10944969807E+02  0.51100000000E-03 0.  1.
         12    1    3    3    0    0  0.13886942453E+02 -0.75914170481E+01 -0.33138377466E+02  0.36723682340E+02  0.00000000000E+00 0. -1.
</event>
<event>
 7    1  0.6198176E-013  0.5930194E+02  0.7816164E-02  0.1266605E+00
        -11   -1    0    0    0    0  0.00000000000E+00  0.00000000000E+00  0.45593999997E+02  0.45594000000E+02  0.51100000000E-03 0. -1.
         11   -1    0    0    0    0 -0.00000000000E+00 -0.00000000000E+00 -0.45593999997E+02  0.45594000000E+02  0.51100000000E-03 0.  1.
    9900012    2    1    2    0    0 -0.12615825091E+01 -0.28872173435E+02  0.13473198277E+02  0.59301936255E+02  0.49999985825E+02 0.  0.
        -12    1    1    2    0    0  0.12615825091E+01  0.28872173435E+02 -0.13473198277E+02  0.31886063745E+02  0.00000000000E+00 0.  1.
         11    1    3    3    0    0 -0.60305564672E+00 -0.38466675888E+01  0.15330231779E+02  0.15816969821E+02  0.51100000000E-03 0. -1.
        -11    1    3    3    0    0  0.11776624258E+02 -0.24470217716E+02  0.71955603910E+01  0.28093709680E+02  0.51100000000E-03 0.  1.
         12    1    3    3    0    0 -0.12435151120E+02 -0.55528813017E+00 -0.90525938926E+01  0.15391256754E+02  0.00000000000E+00 0. -1.
</event>
<event>
 7    1  0.6198176E-013  0.5930196E+02  0.7816164E-02  0.1266605E+00
        -11   -1    0    0    0    0  0.00000000000E+00  0.00000000000E+00  0.45593999997E+02  0.45594000000E+02  0.51100000000E-03 0.  1.
         11   -1    0    0    0    0 -0.00000000000E+00 -0.00000000000E+00 -0.45593999997E+02  0.45594000000E+02  0.51100000000E-03 0. -1.
    9900012    2    1    2    0    0 -0.68325972947E+01 -0.27133907424E+02 -0.15290064381E+02  0.59301962512E+02  0.50000033711E+02 0.  0.
        -12    1    1    2    0    0  0.68325972947E+01  0.27133907424E+02  0.15290064381E+02  0.31886037488E+02  0.00000000000E+00 0.  1.
         11    1    3    3    0    0  0.21669498297E+01  0.28203539970E+01 -0.10997364541E+02  0.11558204676E+02  0.51100000000E-03 0. -1.
        -11    1    3    3    0    0 -0.13736543359E+01 -0.27070170095E+02  0.11909362481E+02  0.29605978284E+02  0.51100000000E-03 0.  1.
         12    1    3    3    0    0 -0.76258927885E+01 -0.28840913262E+01 -0.16202062321E+02  0.18137779552E+02  0.00000000000E+00 0. -1.
</event>
<event>
 7    1  0.6198176E-013  0.5930193E+02  0.7816164E-02  0.1266605E+00
        -11   -1    0    0    0    0  0.00000000000E+00  0.00000000000E+00  0.45593999997E+02  0.45594000000E+02  0.51100000000E-03 0. -1.
         11   -1    0    0    0    0 -0.00000000000E+00 -0.00000000000E+00 -0.45593999997E+02  0.45594000000E+02  0.51100000000E-03 0.  1.
    9900012    2    1    2    0    0 -0.27564380492E+02 -0.59167528259E+01  0.14896918672E+02  0.59301933736E+02  0.49999981230E+02 0.  0.
        -12    1    1    2    0    0  0.27564380492E+02  0.59167528259E+01 -0.14896918672E+02  0.31886066264E+02  0.00000000000E+00 0.  1.
         11    1    3    3    0    0  0.23644392798E+01 -0.10365224786E+02  0.23806130426E+01  0.10894759139E+02  0.51100000000E-03 0. -1.
        -11    1    3    3    0    0  0.32550432482E+01  0.11762259532E+02  0.27014398913E-01  0.12204375686E+02  0.51100000000E-03 0.  1.
        -12    1    3    3    0    0 -0.33183863020E+02 -0.73137875711E+01  0.12489291231E+02  0.36202798911E+02  0.00000000000E+00 0.  1.
</event>
<event>
 7    1  0.6198176E-013  0.5930196E+02  0.7816164E-02  0.1266605E+00
        -11   -1    0    0    0    0  0.00000000000E+00  0.00000000000E+00  0.45593999997E+02  0.45594000000E+02  0.51100000000E-03 0. -1.
         11   -1    0    0    0    0 -0.00000000000E+00 -0.00000000000E+00 -0.45593999997E+02  0.45594000000E+02  0.51100000000E-03 0.  1.
    9900012    2    1    2    0    0 -0.30074594866E+02 -0.10316090922E+02 -0.24118041069E+01  0.59301956230E+02  0.50000022255E+02 0.  0.
        -12    1    1    2    0    0  0.30074594866E+02  0.10316090922E+02  0.24118041069E+01  0.31886043770E+02  0.00000000000E+00 0.  1.
         11    1    3    3    0    0 -0.58129586317E+01  0.72308595600E+01  0.90266956960E+01  0.12944383086E+02  0.51100000000E-03 0.  1.
        -11    1    3    3    0    0 -0.23373808732E+02  0.32158208958E+01 -0.24690749413E+01  0.23722832251E+02  0.51100000000E-03 0. -1.
        -12    1    3    3    0    0 -0.88782750141E+00 -0.20762771377E+02 -0.89694248615E+01  0.22634740893E+02  0.00000000000E+00 0.  1.
</event>
<event>
 7    1  0.6198176E-013  0.5930193E+02  0.7816164E-02  0.1266605E+00
        -11   -1    0    0    0    0  0.00000000000E+00  0.00000000000E+00  0.45593999997E+02  0.45594000000E+02  0.51100000000E-03 0.  1.
         11   -1    0    0    0    0 -0.00000000000E+00 -0.00000000000E+00 -0.45593999997E+02  0.45594000000E+02  0.51100000000E-03 0. -1.
    9900012    2    1    2    0    0 -0.26086562608E+02 -0.52818153475E+01 -0.17558903409E+02  0.59301930770E+02  0.49999975821E+02 0.  0.
        -12    1    1    2    0    0  0.26086562608E+02  0.52818153475E+01  0.17558903409E+02  0.31886069230E+02  0.00000000000E+00 0.  1.
         11    1    3    3    0    0 -0.14823795046E+02  0.95430221972E+01  0.89488477131E+01  0.19771091216E+02  0.51100000000E-03 0. -1.
        -11    1    3    3    0    0  0.39824300489E+01  0.35347939201E+01 -0.34343044941E+01  0.63363210755E+01  0.51100000000E-03 0.  1.
         12    1    3    3    0    0 -0.15245197610E+02 -0.18359631465E+02 -0.23073446628E+02  0.33194518478E+02  0.00000000000E+00 0. -1.
</event>
<event>
 7    1  0.6198176E-013  0.5930195E+02  0.7816164E-02  0.1266605E+00
        -11   -1    0    0    0    0  0.00000000000E+00  0.00000000000E+00  0.45593999997E+02  0.45594000000E+02  0.51100000000E-03 0. -1.
         11   -1    0    0    0    0 -0.00000000000E+00 -0.00000000000E+00 -0.45593999997E+02  0.45594000000E+02  0.51100000000E-03 0.  1.
    9900012    2    1    2    0    0  0.81074672430E+01  0.29416361452E+02  0.92556429102E+01  0.59301948631E+02  0.50000008396E+02 0.  0.
        -12    1    1    2    0    0 -0.81074672430E+01 -0.29416361452E+02 -0.92556429102E+01  0.31886051369E+02  0.00000000000E+00 0.  1.
         11    1    3    3    0    0  0.40621665943E+01  0.35548553294E+02  0.10662568718E+02  0.37334852492E+02  0.51100000000E-03 0. -1.
        -11    1    3    3    0    0  0.67347736805E+01  0.60827152635E+01 -0.24966754624E+01  0.94122255673E+01  0.51100000000E-03 0.  1.
        -12    1    3    3    0    0 -0.26894730318E+01 -0.12214907105E+02  0.10897496547E+01  0.12554870572E+02  0.00000000000E+00 0.  1.
</event>
<event>
 7    1  0.6198176E-013  0.5930198E+02  0.7816164E-02  0.1266605E+00
        -11   -1    0    0    0    0  0.00000000000E+00  0.00000000000E+00  0.45593999997E+02  0.45594000000E+02  0.51100000000E-03 0.  1.
         11   -1    0    0    0    0 -0.00000000000E+00 -0.00000000000E+00 -0.45593999997E+02  0.45594000000E+02  0.51100000000E-03 0. -1.
    9900012    2    1    2    0    0  0.19581103140E+02 -0.19265814275E+02 -0.16190338153E+02  0.59301980346E+02  0.50000066235E+02 0.  0.
        -12    1    1    2    0    0 -0.19581103140E+02  0.19265814275E+02  0.16190338153E+02  0.31886019654E+02  0.00000000000E+00 0.  1.
         11    1    3    3    0    0  0.53195911971E+00 -0.10078814647E+02  0.64593889315E+01  0.11982870725E+02  0.51100000000E-03 0. -1.
        -11    1    3    3    0    0  0.11724649217E+02 -0.22793832211E+02 -0.17475531227E+02  0.31022900865E+02  0.51100000000E-03 0.  1.
        -12    1    3    3    0    0  0.73244948036E+01  0.13606832582E+02 -0.51741958573E+01  0.16296208756E+02  0.00000000000E+00 0.  1.
</event>
<event>
 7    1  0.6198176E-013  0.5930194E+02  0.7816164E-02  0.1266605E+00
        -11   -1    0    0    0    0  0.00000000000E+00  0.00000000000E+00  0.45593999997E+02  0.45594000000E+02  0.51100000000E-03 0.  1.
         11   -1    0    0    0    0 -0.00000000000E+00 -0.00000000000E+00 -0.45593999997E+02  0.45594000000E+02  0.51100000000E-03 0. -1.
    9900012    2    1    2    0    0  0.25944682428E+02  0.15423392989E+02 -0.10281708966E+02  0.59301935068E+02  0.49999983660E+02 0.  0.
        -12    1    1    2    0    0 -0.25944682428E+02 -0.15423392989E+02  0.10281708966E+02  0.31886064932E+02  0.00000000000E+00 0.  1.
         11    1    3    3    0    0 -0.74464311837E-01  0.15983194707E+02 -0.83721415734E+01  0.18043303821E+02  0.51100000000E-03 0. -1.
        -11    1    3    3    0    0  0.15519103677E-01  0.92141515542E+01 -0.86875275082E+01  0.12663884245E+02  0.51100000000E-03 0.  1.
        -12    1    3    3    0    0  0.26003627636E+02 -0.97739532723E+01  0.67779601155E+01  0.28594747002E+02  0.00000000000E+00 0.  1.
</event>
<event>
 7    1  0.6198176E-013  0.5930194E+02  0.7816164E-02  0.1266605E+00
        -11   -1    0    0    0    0  0.00000000000E+00  0.00000000000E+00  0.45593999997E+02  0.45594000000E+02  0.51100000000E-03 0. -1.
         11   -1    0    0    0    0 -0.00000000000E+00 -0.00000000000E+00 -0.45593999997E+02  0.45594000000E+02  0.51100000000E-03 0.  1.
    9900012    2    1    2    0    0 -0.22419669431E+02 -0.89345703337E+01  0.20838736503E+02  0.59301936218E+02  0.49999985757E+02 0.  0.
        -12    1    1    2    0    0  0.22419669431E+02  0.89345703337E+01 -0.20838736503E+02  0.31886063782E+02  0.00000000000E+00 0.  1.
         11    1    3    3    0    0 -0.54357344457E+01 -0.18226772365E+02  0.77190362088E+01  0.20526713328E+02  0.51100000000E-03 0. -1.
        -11    1    3    3    0    0 -0.25902516028E+01 -0.92252002060E+01 -0.33121181020E+01  0.10138236967E+02  0.51100000000E-03 0.  1.
        -12    1    3    3    0    0 -0.14393683383E+02  0.18517402237E+02  0.16431818397E+02  0.28636985923E+02  0.00000000000E+00 0.  1.
</event>
<event>
 7    1  0.6198176E-013  0.5930192E+02  0.7816164E-02  0.1266605E+00
        -11   -1    0    0    0    0  0.00000000000E+00  0.00000000000E+00  0.45593999997E+02  0.45594000000E+02  0.51100000000E-03 0.  1.
         11   -1    0    0    0    0 -0.00000000000E+00 -0.00000000000E+00 -0.45593999997E+02  0.45594000000E+02  0.51100000000E-03 0. -1.
    9900012    2    1    2    0    0  0.29371409602E+02 -0.14901817316E+01  0.12321585732E+02  0.59301924378E+02  0.49999964163E+02 0.  0.
        -12    1    1    2    0    0 -0.29371409602E+02  0.14901817316E+01 -0.12321585732E+02  0.31886075622E+02  0.00000000000E+00 0.  1.
         11    1    3    3    0    0  0.20331955771E+02 -0.12017091631E+02 -0.39620912680E+01  0.23947799152E+02  0.51100000000E-03 0. -1.
        -11    1    3    3    0    0  0.68156628843E+01 -0.64676047587E+01  0.15587786280E+02  0.18200611343E+02  0.51100000000E-03 0.  1.
         12    1    3    3    0    0  0.22237909474E+01  0.16994514659E+02  0.69589072015E+00  0.17153513883E+02  0.00000000000E+00 0. -1.
</event>
<event>
 7    1  0.6198176E-013  0.5930190E+02  0.7816164E-02  0.1266605E+00
        -11   -1    0    0    0    0  0.00000000000E+00  0.00000000000E+00  0.45593999997E+02  0.45594000000E+02  0.51100000000E-03 0. -1.
         11   -1    0    0    0    0 -0.00000000000E+00 -0.00000000000E+00 -0.45593999997E+02  0.45594000000E+02  0.51100000000E-03 0.  1.
    9900012    2    1    2    0    0 -0.19885273692E+02  0.23182945511E+02  0.91569765925E+01  0.59301901263E+02  0.49999922006E+02 0.  0.
        -12    1    1    2    0    0  0.19885273692E+02 -0.23182945511E+02 -0.91569765925E+01  0.31886098737E+02  0.00000000000E+00 0.  1.
         11    1    3    3    0    0 -0.34640387326E+01  0.80377483372E+01  0.16005523456E+02  0.18242306434E+02  0.51100000000E-03 0. -1.
        -11    1    3    3    0    0  0.95631599002E+01  0.24949716015E+01 -0.70817384481E+01  0.12158533229E+02  0.51100000000E-03 0.  1.
        -12    1    3    3    0    0 -0.25984394860E+02  0.12650225572E+02  0.23319158437E+00  0.28901061599E+02  0.00000000000E+00 0.  1.
</event>
<event>
 7    1  0.6198176E-013  0.5930194E+02  0.7816164E-02  0.1266605E+00
        -11   -1    0    0    0    0  0.00000000000E+00  0.00000000000E+00  0.45593999997E+02  0.45594000000E+02  0.51100000000E-03 0.  1.
         11   -1    0    0    0    0 -0.00000000000E+00 -0.00000000000E+00 -0.45593999997E+02  0.45594000000E+02  0.51100000000E-03 0. -1.
    9900012    2    1    2    0    0 -0.14138484512E+02  0.19310696616E+02 -0.21069429723E+02  0.59301943220E+02  0.49999998527E+02 0.  0.
        -12    1    1    2    0    0  0.14138484512E+02 -0.19310696616E+02  0.21069429723E+02  0.31886056780E+02  0.00000000000E+00 0.  1.
         11    1    3    3    0    0 -0.81181412400E+01 -0.10736262639E+02 -0.16707120227E+02  0.21454589700E+02  0.51100000000E-03 0. -1.
        -11    1    3    3    0    0 -0.26973189731E+01 -0.17924152942E+01 -0.48493484537E+01  0.58313345742E+01  0.51100000000E-03 0.  1.
        -12    1    3    3    0    0 -0.33230242988E+01  0.31839374550E+02  0.48703895754E+00  0.32016018946E+02  0.00000000000E+00 0.  1.
</event>
<event>
 7    1  0.6198176E-013  0.5930195E+02  0.7816164E-02  0.1266605E+00
        -11   -1    0    0    0    0  0.00000000000E+00  0.00000000000E+00  0.45593999997E+02  0.45594000000E+02  0.51100000000E-03 0. -1.
         11   -1    0    0    0    0 -0.00000000000E+00 -0.00000000000E+00 -0.45593999997E+02  0.45594000000E+02  0.51100000000E-03 0.  1.
    9900012    2    1    2    0    0 -0.16722099917E+02 -0.26038140891E+02  0.76881070815E+01  0.59301946666E+02  0.50000004812E+02 0.  0.
        -12    1    1    2    0    0  0.16722099917E+02  0.26038140891E+02 -0.76881070815E+01  0.31886053334E+02  0.00000000000E+00 0.  1.
         11    1    3    3    0    0 -0.18801192405E+02  0.25290031697E+01  0.13744379736E+02  0.23426238868E+02  0.51100000000E-03 0. -1.
        -11    1    3    3    0    0  0.45309498205E+01  0.66495958335E+00  0.26312443516E+01  0.52815835336E+01  0.51100000000E-03 0.  1.
        -12    1    3    3    0    0 -0.24518573318E+01 -0.29232103644E+02 -0.86875170058E+01  0.30594124265E+02  0.00000000000E+00 0.  1.
</event>
<event>
 7    1  0.6198176E-013  0.5930195E+02  0.7816164E-02  0.1266605E+00
        -11   -1    0    0    0    0  0.00000000000E+00  0.00000000000E+00  0.45593999997E+02  0.45594000000E+02  0.51100000000E-03 0. -1.
         11   -1    0    0    0    0 -0.00000000000E+00 -0.00000000000E+00 -0.45593999997E+02  0.45594000000E+02  0.51100000000E-03 0.  1.
    9900012    2    1    2    0    0  0.26732064278E+02  0.14104483007E+02  0.10157787558E+02  0.59301947414E+02  0.50000006176E+02 0.  0.
        -12    1    1    2    0    0 -0.26732064278E+02 -0.14104483007E+02 -0.10157787558E+02  0.31886052586E+02  0.00000000000E+00 0.  1.
         11    1    3    3    0    0  0.17264393589E+02  0.24901198145E+02 -0.49827745457E+01  0.30707604881E+02  0.51100000000E-03 0. -1.
        -11    1    3    3    0    0 -0.11879813420E+01  0.87943187327E+00 -0.37097333903E+01  0.39933472397E+01  0.51100000000E-03 0.  1.
        -12    1    3    3    0    0  0.10655652031E+02 -0.11676147012E+02  0.18850295494E+02  0.24600995294E+02  0.00000000000E+00 0.  1.
</event>
<event>
 7    1  0.6198176E-013  0.5930194E+02  0.7816164E-02  0.1266605E+00
        -11   -1    0    0    0    0  0.00000000000E+00  0.00000000000E+00  0.45593999997E+02  0.45594000000E+02  0.51100000000E-03 0.  1.
         11   -1    0    0    0    0 -0.00000000000E+00 -0.00000000000E+00 -0.45593999997E+02  0.45594000000E+02  0.51100000000E-03 0. -1.
    9900012    2    1    2    0    0  0.79584520121E+01 -0.27613171981E+02 -0.13816535570E+02  0.59301939088E+02  0.49999990992E+02 0.  0.
        -12    1    1    2    0    0 -0.79584520121E+01  0.27613171981E+02  0.13816535570E+02  0.31886060912E+02  0.00000000000E+00 0.  1.
         11    1    3    3    0    0  0.11362856583E+02 -0.11024266074E+02 -0.87025472716E+01  0.18066080966E+02  0.51100000000E-03 0. -1.
        -11    1    3    3    0    0 -0.10828411945E+01 -0.14896241076E+02  0.14852678134E+02  0.21063537007E+02  0.51100000000E-03 0.  1.
         12    1    3    3    0    0 -0.23215633765E+01 -0.16926648311E+01 -0.19966666432E+02  0.20172321115E+02  0.00000000000E+00 0. -1.
</event>
<event>
 7    1  0.6198176E-013  0.5930182E+02  0.7816164E-02  0.1266605E+00
        -11   -1    0    0    0    0  0.00000000000E+00  0.00000000000E+00  0.45593999997E+02  0.45594000000E+02  0.51100000000E-03 0.  1.
         11   -1    0    0    0    0 -0.00000000000E+00 -0.00000000000E+00 -0.45593999997E+02  0.45594000000E+02  0.51100000000E-03 0. -1.
    9900012    2    1    2    0    0 -0.14506262106E+02  0.27459002293E+02 -0.72318582377E+01  0.59301823987E+02  0.49999781073E+02 0.  0.
        -12    1    1    2    0    0  0.14506262106E+02 -0.27459002293E+02  0.72318582377E+01  0.31886176013E+02  0.00000000000E+00 0.  1.
         11    1    3    3    0    0 -0.94009563134E+01  0.12651649450E+02 -0.11447851339E+02  0.19480644598E+02  0.51100000000E-03 0. -1.
        -11    1    3    3    0    0 -0.20634631570E+02  0.11635785938E+02  0.35830064321E+01  0.23958661686E+02  0.51100000000E-03 0.  1.
         12    1    3    3    0    0  0.15529325778E+02  0.31715669053E+01  0.63298666930E+00  0.15862517703E+02  0.00000000000E+00 0. -1.
</event>
<event>
 7    1  0.6198176E-013  0.5930194E+02  0.7816164E-02  0.1266605E+00
        -11   -1    0    0    0    0  0.00000000000E+00  0.00000000000E+00  0.45593999997E+02  0.45594000000E+02  0.51100000000E-03 0.  1.
         11   -1    0    0    0    0 -0.00000000000E+00 -0.00000000000E+00 -0.45593999997E+02  0.45594000000E+02  0.51100000000E-03 0. -1.
    9900012    2    1    2    0    0 -0.22633335931E+00  0.30688839022E+02  0.86524296755E+01  0.59301943383E+02  0.49999998824E+02 0.  0.
        -12    1    1    2    0    0  0.22633335931E+00 -0.30688839022E+02 -0.86524296755E+01  0.31886056617E+02  0.00000000000E+00 0.  1.
         11    1    3    3    0    0 -0.36462308876E+01  0.59402548487E+01  0.82948406808E+01  0.10834482430E+02  0.51100000000E-03 0. -1.
        -11    1    3    3    0    0  0.12778853866E+01 -0.25091602912E+01  0.16484962082E+02  0.16723721223E+02  0.51100000000E-03 0.  1.
         12    1    3    3    0    0  0.21420121417E+01  0.27257744465E+02 -0.16127373087E+02  0.31743739730E+02  0.00000000000E+00 0. -1.
</event>
<event>
 7    1  0.6198176E-013  0.5930199E+02  0.7816164E-02  0.1266605E+00
        -11   -1    0    0    0    0  0.00000000000E+00  0.00000000000E+00  0.45593999997E+02  0.45594000000E+02  0.51100000000E-03 0.  1.
         11   -1    0    0    0    0 -0.00000000000E+00 -0.00000000000E+00 -0.45593999997E+02  0.45594000000E+02  0.51100000000E-03 0. -1.
    9900012    2    1    2    0    0  0.72932103138E+01 -0.15913630691E+01 -0.30999910978E+02  0.59301986863E+02  0.50000078122E+02 0.  0.
        -12    1    1    2    0    0 -0.72932103138E+01  0.15913630691E+01  0.30999910978E+02  0.31886013137E+02  0.00000000000E+00 0.  1.
         11    1    3    3    0    0 -0.12750521913E+02 -0.12614007712E+01 -0.20870893623E+02  0.24490021271E+02  0.51100000000E-03 0. -1.
        -11    1    3    3    0    0 -0.53692411787E+01 -0.11537881104E+01  0.29338673184E+01  0.62263597343E+01  0.51100000000E-03 0.  1.
         12    1    3    3    0    0  0.25412973405E+02  0.82382581243E+00 -0.13062884673E+02  0.28585605858E+02  0.00000000000E+00 0. -1.
</event>
<event>
 7    1  0.6198176E-013  0.5930193E+02  0.7816164E-02  0.1266605E+00
        -11   -1    0    0    0    0  0.00000000000E+00  0.00000000000E+00  0.45593999997E+02  0.45594000000E+02  0.51100000000E-03 0.  1.
         11   -1    0    0    0    0 -0.00000000000E+00 -0.00000000000E+00 -0.45593999997E+02  0.45594000000E+02  0.51100000000E-03 0. -1.
    9900012    2    1    2    0    0  0.27251636725E+02  0.44985660624E+01 -0.15932126421E+02  0.59301930108E+02  0.49999974614E+02 0.  0.
        -12    1    1    2    0    0 -0.27251636725E+02 -0.44985660624E+01  0.15932126421E+02  0.31886069892E+02  0.00000000000E+00 0.  1.
         11    1    3    3    0    0 -0.45272781154E+01  0.35343660754E+01 -0.19061189386E+01  0.60515518967E+01  0.51100000000E-03 0. -1.
        -11    1    3    3    0    0  0.62770718358E+00 -0.37377405777E+01 -0.20702546225E+02  0.21046618289E+02  0.51100000000E-03 0.  1.
        -12    1    3    3    0    0  0.31151207657E+02  0.47019405647E+01  0.66765387425E+01  0.32203759923E+02  0.00000000000E+00 0.  1.
</event>
<event>
 7    1  0.6198176E-013  0.5930194E+02  0.7816164E-02  0.1266605E+00
        -11   -1    0    0    0    0  0.00000000000E+00  0.00000000000E+00  0.45593999997E+02  0.45594000000E+02  0.51100000000E-03 0.  1.
         11   -1    0    0    0    0 -0.00000000000E+00 -0.00000000000E+00 -0.45593999997E+02  0.45594000000E+02  0.51100000000E-03 0. -1.
    9900012    2    1    2    0    0  0.13393156776E+02  0.84131938835E+01 -0.27686864358E+02  0.59301938190E+02  0.49999989354E+02 0.  0.
        -12    1    1    2    0    0 -0.13393156776E+02 -0.84131938835E+01  0.27686864358E+02  0.31886061810E+02  0.00000000000E+00 0.  1.
         11    1    3    3    0    0  0.79397155570E+01 -0.96493413151E+00 -0.20809599511E+02  0.22293712412E+02  0.51100000000E-03 0. -1.
        -11    1    3    3    0    0  0.32794223836E+01 -0.96205091006E+01 -0.13386642097E+02  0.16808063345E+02  0.51100000000E-03 0.  1.
        -12    1    3    3    0    0  0.21740188358E+01  0.18998637116E+02  0.65093772502E+01  0.20200162433E+02  0.00000000000E+00 0.  1.
</event>
<event>
 7    1  0.6198176E-013  0.5930195E+02  0.7816164E-02  0.1266605E+00
        -11   -1    0    0    0    0  0.00000000000E+00  0.00000000000E+00  0.45593999997E+02  0.45594000000E+02  0.51100000000E-03 0. -1.
         11   -1    0    0    0    0 -0.00000000000E+00 -0.00000000000E+00 -0.45593999997E+02  0.45594000000E+02  0.51100000000E-03 0.  1.
    9900012    2    1    2    0    0 -0.15098997241E+02  0.15145597431E+01  0.28043656613E+02  0.59301948424E+02  0.50000008017E+02 0.  0.
        -12    1    1    2    0    0  0.15098997241E+02 -0.15145597431E+01 -0.28043656613E+02  0.31886051576E+02  0.00000000000E+00 0.  1.
         11    1    3    3    0    0 -0.17908604008E+02  0.51555139308E+01  0.11476581424E+02  0.21886282070E+02  0.51100000000E-03 0. -1.
        -11    1    3    3    0    0 -0.35537275768E+01  0.12265964270E+02 -0.10851549280E+01  0.12816412160E+02  0.51100000000E-03 0.  1.
         12    1    3    3    0    0  0.63633343433E+01 -0.15906918458E+02  0.17652230116E+02  0.24599254194E+02  0.00000000000E+00 0. -1.
</event>
<event>
 7    1  0.6198176E-013  0.5930196E+02  0.7816164E-02  0.1266605E+00
        -11   -1    0    0    0    0  0.00000000000E+00  0.00000000000E+00  0.45593999997E+02  0.45594000000E+02  0.51100000000E-03 0.  1.
         11   -1    0    0    0    0 -0.00000000000E+00 -0.00000000000E+00 -0.45593999997E+02  0.45594000000E+02  0.51100000000E-03 0. -1.
    9900012    2    1    2    0    0 -0.24804597185E+02  0.19262441209E+02 -0.55145378951E+01  0.59301955858E+02  0.50000021576E+02 0.  0.
        -12    1    1    2    0    0  0.24804597185E+02 -0.19262441209E+02  0.55145378951E+01  0.31886044142E+02  0.00000000000E+00 0.  1.
         11    1    3    3    0    0  0.85077304300E+01  0.82199908876E+01  0.48282799360E+01  0.12777402501E+02  0.51100000000E-03 0. -1.
        -11    1    3    3    0    0 -0.53923558363E+01 -0.19816268498E+01  0.86119253182E+01  0.10352275324E+02  0.51100000000E-03 0.  1.
        -12    1    3    3    0    0 -0.27919971779E+02  0.13024077171E+02 -0.18954743149E+02  0.36172278033E+02  0.00000000000E+00 0.  1.
</event>
<event>
 7    1  0.6974142E-013  0.5930196E+02  0.7816164E-02  0.1266605E+00
        -11   -1    0    0    0    0  0.00000000000E+00  0.00000000000E+00  0.45593999997E+02  0.45594000000E+02  0.51100000000E-03 0.  1.
         11   -1    0    0    0    0 -0.00000000000E+00 -0.00000000000E+00 -0.45593999997E+02  0.45594000000E+02  0.51100000000E-03 0. -1.
    9900012    2    1    2    0    0 -0.10877913136E+02 -0.23573484787E+02  0.18511646825E+02  0.59301964697E+02  0.50000037695E+02 0.  0.
        -12    1    1    2    0    0  0.10877913136E+02  0.23573484787E+02 -0.18511646825E+02  0.31886035303E+02  0.00000000000E+00 0.  1.
         11    1    3    3    0    0  0.68051247045E+01 -0.14874332221E+02  0.24510646232E+01  0.16539746048E+02  0.51100000000E-03 0. -1.
        -11    1    3    3    0    0  0.37253124026E+00 -0.78386910757E+01 -0.89500555390E+01  0.11903249628E+02  0.51100000000E-03 0.  1.
        -12    1    3    3    0    0 -0.18055569081E+02 -0.86046149017E+00  0.25010637741E+02  0.30858969020E+02  0.00000000000E+00 0.  1.
</event>
<event>
 7    1  0.6198176E-013  0.5930194E+02  0.7816164E-02  0.1266605E+00
        -11   -1    0    0    0    0  0.00000000000E+00  0.00000000000E+00  0.45593999997E+02  0.45594000000E+02  0.51100000000E-03 0. -1.
         11   -1    0    0    0    0 -0.00000000000E+00 -0.00000000000E+00 -0.45593999997E+02  0.45594000000E+02  0.51100000000E-03 0.  1.
    9900012    2    1    2    0    0 -0.89485745215E+01  0.30491662391E+02 -0.26272492882E+01  0.59301938779E+02  0.49999990428E+02 0.  0.
        -12    1    1    2    0    0  0.89485745215E+01 -0.30491662391E+02  0.26272492882E+01  0.31886061221E+02  0.00000000000E+00 0.  1.
         11    1    3    3    0    0 -0.35112165885E+01 -0.45019644288E+01 -0.17234816884E+01  0.59637836179E+01  0.51100000000E-03 0. -1.
        -11    1    3    3    0    0  0.90094374447E+01 -0.37792557693E+01 -0.62787983641E+01  0.11613614700E+02  0.51100000000E-03 0.  1.
         12    1    3    3    0    0 -0.14446795378E+02  0.38772882590E+02  0.53750307644E+01  0.41724540461E+02  0.00000000000E+00 0. -1.
</event>
<event>
 7    1  0.6198176E-013  0.5930194E+02  0.7816164E-02  0.1266605E+00
        -11   -1    0    0    0    0  0.00000000000E+00  0.00000000000E+00  0.45593999997E+02  0.45594000000E+02  0.51100000000E-03 0. -1.
         11   -1    0    0    0    0 -0.00000000000E+00 -0.00000000000E+00 -0.45593999997E+02  0.45594000000E+02  0.51100000000E-03 0.  1.
    9900012    2    1    2    0    0 -0.19837270669E+02  0.13949799083E+02  0.20702823590E+02  0.59301935541E+02  0.49999984523E+02 0.  0.
        -12    1    1    2    0    0  0.19837270669E+02 -0.13949799083E+02 -0.20702823590E+02  0.31886064459E+02  0.00000000000E+00 0.  1.
         11    1    3    3    0    0 -0.34170595499E+01  0.17236610775E+02  0.17492728874E+01  0.17658907182E+02  0.51100000000E-03 0. -1.
        -11    1    3    3    0    0  0.10251174087E+02 -0.12796099193E+01  0.50793543825E+01  0.11511898754E+02  0.51100000000E-03 0.  1.
         12    1    3    3    0    0 -0.26671385206E+02 -0.20072017723E+01  0.13874196320E+02  0.30131129606E+02  0.00000000000E+00 0. -1.
</event>
<event>
 7    1  0.6198176E-013  0.5930194E+02  0.7816164E-02  0.1266605E+00
        -11   -1    0    0    0    0  0.00000000000E+00  0.00000000000E+00  0.45593999997E+02  0.45594000000E+02  0.51100000000E-03 0. -1.
         11   -1    0    0    0    0 -0.00000000000E+00 -0.00000000000E+00 -0.45593999997E+02  0.45594000000E+02  0.51100000000E-03 0.  1.
    9900012    2    1    2    0    0 -0.11368457644E+02 -0.28154013453E+02  0.97380982117E+01  0.59301939417E+02  0.49999991592E+02 0.  0.
        -12    1    1    2    0    0  0.11368457644E+02  0.28154013453E+02 -0.97380982117E+01  0.31886060583E+02  0.00000000000E+00 0.  1.
         11    1    3    3    0    0 -0.18371352327E+02  0.62687294659E+01 -0.55329724598E+01  0.20184581738E+02  0.51100000000E-03 0.  1.
        -11    1    3    3    0    0  0.48904912136E+01 -0.12985747007E+02  0.25737728748E+01  0.14112789827E+02  0.51100000000E-03 0. -1.
        -12    1    3    3    0    0  0.21124034695E+01 -0.21436995912E+02  0.12697297797E+02  0.25004567852E+02  0.00000000000E+00 0.  1.
</event>
<event>
 7    1  0.6198176E-013  0.5930193E+02  0.7816164E-02  0.1266605E+00
        -11   -1    0    0    0    0  0.00000000000E+00  0.00000000000E+00  0.45593999997E+02  0.45594000000E+02  0.51100000000E-03 0. -1.
         11   -1    0    0    0    0 -0.00000000000E+00 -0.00000000000E+00 -0.45593999997E+02  0.45594000000E+02  0.51100000000E-03 0.  1.
    9900012    2    1    2    0    0  0.12117919744E+02  0.16801019320E+02  0.24240523126E+02  0.59301934226E+02  0.49999982124E+02 0.  0.
        -12    1    1    2    0    0 -0.12117919744E+02 -0.16801019320E+02 -0.24240523126E+02  0.31886065774E+02  0.00000000000E+00 0.  1.
         11    1    3    3    0    0 -0.79788808452E+01  0.46221176778E+00  0.11303435286E+02  0.13843548273E+02  0.51100000000E-03 0. -1.
        -11    1    3    3    0    0 -0.12397719903E+01  0.40269698262E+00 -0.10137761523E+02  0.10221223430E+02  0.51100000000E-03 0.  1.
         12    1    3    3    0    0  0.21336572579E+02  0.15936110570E+02  0.23074849363E+02  0.35237162523E+02  0.00000000000E+00 0. -1.
</event>
<event>
 7    1  0.6198176E-013  0.5930195E+02  0.7816164E-02  0.1266605E+00
        -11   -1    0    0    0    0  0.00000000000E+00  0.00000000000E+00  0.45593999997E+02  0.45594000000E+02  0.51100000000E-03 0.  1.
         11   -1    0    0    0    0 -0.00000000000E+00 -0.00000000000E+00 -0.45593999997E+02  0.45594000000E+02  0.51100000000E-03 0. -1.
    9900012    2    1    2    0    0  0.42927332612E+01 -0.93433136103E+01 -0.30182698690E+02  0.59301947119E+02  0.50000005638E+02 0.  0.
        -12    1    1    2    0    0 -0.42927332612E+01  0.93433136103E+01  0.30182698690E+02  0.31886052881E+02  0.00000000000E+00 0.  1.
         11    1    3    3    0    0 -0.10588733940E+02 -0.42233395661E+01 -0.33373635057E+02  0.35266944873E+02  0.51100000000E-03 0. -1.
        -11    1    3    3    0    0  0.31670341838E+01 -0.10376056506E+02  0.19420894657E+00  0.10850362736E+02  0.51100000000E-03 0.  1.
        -12    1    3    3    0    0  0.11714433018E+02  0.52560824617E+01  0.29967274198E+01  0.13184639509E+02  0.00000000000E+00 0.  1.
</event>
<event>
 7    1  0.6198176E-013  0.5930194E+02  0.7816164E-02  0.1266605E+00
        -11   -1    0    0    0    0  0.00000000000E+00  0.00000000000E+00  0.45593999997E+02  0.45594000000E+02  0.51100000000E-03 0. -1.
         11   -1    0    0    0    0 -0.00000000000E+00 -0.00000000000E+00 -0.45593999997E+02  0.45594000000E+02  0.51100000000E-03 0.  1.
    9900012    2    1    2    0    0 -0.61829222261E+01  0.22082026145E+02  0.22155730540E+02  0.59301940324E+02  0.49999993244E+02 0.  0.
        -12    1    1    2    0    0  0.61829222261E+01 -0.22082026145E+02 -0.22155730540E+02  0.31886059676E+02  0.00000000000E+00 0.  1.
         11    1    3    3    0    0  0.12476777802E+02 -0.37244245000E-01  0.15238034856E+02  0.19694392045E+02  0.51100000000E-03 0. -1.
        -11    1    3    3    0    0 -0.81129347413E+01  0.45949926329E+01 -0.95515471998E+01  0.13347873298E+02  0.51100000000E-03 0.  1.
         12    1    3    3    0    0 -0.10546765287E+02  0.17524277757E+02  0.16469242884E+02  0.26259674981E+02  0.00000000000E+00 0. -1.
</event>
<event>
 7    1  0.6198176E-013  0.5930194E+02  0.7816164E-02  0.1266605E+00
        -11   -1    0    0    0    0  0.00000000000E+00  0.00000000000E+00  0.45593999997E+02  0.45594000000E+02  0.51100000000E-03 0.  1.
         11   -1    0    0    0    0 -0.00000000000E+00 -0.00000000000E+00 -0.45593999997E+02  0.45594000000E+02  0.51100000000E-03 0. -1.
    9900012    2    1    2    0    0 -0.26332975022E+02 -0.66571467990E+01 -0.16702620777E+02  0.59301941639E+02  0.49999995643E+02 0.  0.
        -12    1    1    2    0    0  0.26332975022E+02  0.66571467990E+01  0.16702620777E+02  0.31886058361E+02  0.00000000000E+00 0.  1.
         11    1    3    3    0    0  0.60057980320E+01 -0.18840844334E+01 -0.12654482126E+02  0.14133481605E+02  0.51100000000E-03 0. -1.
        -11    1    3    3    0    0 -0.36283827725E+01  0.84270732180E+01  0.71620389431E+01  0.11639395459E+02  0.51100000000E-03 0.  1.
        -12    1    3    3    0    0 -0.28710390282E+02 -0.13200135584E+02 -0.11210177594E+02  0.33529064574E+02  0.00000000000E+00 0.  1.
</event>
<event>
 7    1  0.6198176E-013  0.5930194E+02  0.7816164E-02  0.1266605E+00
        -11   -1    0    0    0    0  0.00000000000E+00  0.00000000000E+00  0.45593999997E+02  0.45594000000E+02  0.51100000000E-03 0. -1.
         11   -1    0    0    0    0 -0.00000000000E+00 -0.00000000000E+00 -0.45593999997E+02  0.45594000000E+02  0.51100000000E-03 0.  1.
    9900012    2    1    2    0    0 -0.15434710609E+02 -0.68129176546E+01  0.27056874318E+02  0.59301943699E+02  0.49999999400E+02 0.  0.
        -12    1    1    2    0    0  0.15434710609E+02  0.68129176546E+01 -0.27056874318E+02  0.31886056301E+02  0.00000000000E+00 0.  1.
         11    1    3    3    0    0 -0.22700360618E+01 -0.21421125532E+02  0.62503498152E+00  0.21550135771E+02  0.51100000000E-03 0.  1.
        -11    1    3    3    0    0 -0.10477115779E+02 -0.46852701839E+00  0.55777646421E+01  0.11878591300E+02  0.51100000000E-03 0. -1.
        -12    1    3    3    0    0 -0.26875587684E+01  0.15076734896E+02  0.20854074695E+02  0.25873216627E+02  0.00000000000E+00 0.  1.
</event>
<event>
 7    1  0.6198176E-013  0.5930195E+02  0.7816164E-02  0.1266605E+00
        -11   -1    0    0    0    0  0.00000000000E+00  0.00000000000E+00  0.45593999997E+02  0.45594000000E+02  0.51100000000E-03 0. -1.
         11   -1    0    0    0    0 -0.00000000000E+00 -0.00000000000E+00 -0.45593999997E+02  0.45594000000E+02  0.51100000000E-03 0.  1.
    9900012    2    1    2    0    0  0.22057413446E+02  0.22856176161E+02  0.27903004033E+01  0.59301952064E+02  0.50000014656E+02 0.  0.
        -12    1    1    2    0    0 -0.22057413446E+02 -0.22856176161E+02 -0.27903004033E+01  0.31886047936E+02  0.00000000000E+00 0.  1.
         11    1    3    3    0    0 -0.34640803912E+00  0.19383560771E+02  0.44868833755E+01  0.19899109261E+02  0.51100000000E-03 0. -1.
        -11    1    3    3    0    0 -0.64590772560E+01 -0.43649013302E+00 -0.72842666091E+01  0.97452933732E+01  0.51100000000E-03 0.  1.
         12    1    3    3    0    0  0.28862898741E+02  0.39091055230E+01  0.55876836370E+01  0.29657549429E+02  0.00000000000E+00 0. -1.
</event>
<event>
 7    1  0.6198176E-013  0.5930167E+02  0.7816164E-02  0.1266606E+00
        -11   -1    0    0    0    0  0.00000000000E+00  0.00000000000E+00  0.45593999997E+02  0.45594000000E+02  0.51100000000E-03 0.  1.
         11   -1    0    0    0    0 -0.00000000000E+00 -0.00000000000E+00 -0.45593999997E+02  0.45594000000E+02  0.51100000000E-03 0. -1.
    9900012    2    1    2    0    0 -0.23411614022E+02  0.21570388758E+02 -0.18309551225E+01  0.59301674735E+02  0.49999508872E+02 0.  0.
        -12    1    1    2    0    0  0.23411614022E+02 -0.21570388758E+02  0.18309551225E+01  0.31886325265E+02  0.00000000000E+00 0.  1.
         11    1    3    3    0    0 -0.17828574806E+01 -0.13806680551E+01 -0.10943955586E+02  0.11173852926E+02  0.51100000000E-03 0. -1.
        -11    1    3    3    0    0 -0.82445776452E+00 -0.78616604394E+01  0.75274752810E+01  0.10915508226E+02  0.51100000000E-03 0.  1.
         12    1    3    3    0    0 -0.20804298777E+02  0.30812717252E+02  0.15855251828E+01  0.37212313583E+02  0.00000000000E+00 0. -1.
</event>
<event>
 7    1  0.6198176E-013  0.5930195E+02  0.7816164E-02  0.1266605E+00
        -11   -1    0    0    0    0  0.00000000000E+00  0.00000000000E+00  0.45593999997E+02  0.45594000000E+02  0.51100000000E-03 0.  1.
         11   -1    0    0    0    0 -0.00000000000E+00 -0.00000000000E+00 -0.45593999997E+02  0.45594000000E+02  0.51100000000E-03 0. -1.
    9900012    2    1    2    0    0  0.15166108614E+02  0.27715020661E+02  0.43112608245E+01  0.59301949906E+02  0.50000010720E+02 0.  0.
        -12    1    1    2    0    0 -0.15166108614E+02 -0.27715020661E+02 -0.43112608245E+01  0.31886050094E+02  0.00000000000E+00 0.  1.
         11    1    3    3    0    0  0.10257978478E+02 -0.66874703435E+01 -0.77805814281E+01  0.14508129779E+02  0.51100000000E-03 0. -1.
        -11    1    3    3    0    0 -0.28549402986E+01 -0.10767207252E+01  0.76110322068E+01  0.81998672638E+01  0.51100000000E-03 0.  1.
        -12    1    3    3    0    0  0.77630704343E+01  0.35479211729E+02  0.44808100457E+01  0.36593952864E+02  0.00000000000E+00 0.  1.
</event>
<event>
 7    1  0.6198176E-013  0.5930199E+02  0.7816164E-02  0.1266605E+00
        -11   -1    0    0    0    0  0.00000000000E+00  0.00000000000E+00  0.45593999997E+02  0.45594000000E+02  0.51100000000E-03 0.  1.
         11   -1    0    0    0    0 -0.00000000000E+00 -0.00000000000E+00 -0.45593999997E+02  0.45594000000E+02  0.51100000000E-03 0. -1.
    9900012    2    1    2    0    0  0.14996087212E+02 -0.18377978192E+02 -0.21309262160E+02  0.59301994169E+02  0.50000091445E+02 0.  0.
        -12    1    1    2    0    0 -0.14996087212E+02  0.18377978192E+02  0.21309262160E+02  0.31886005831E+02  0.00000000000E+00 0.  1.
         11    1    3    3    0    0 -0.97311677679E-01  0.43767604836E+01 -0.31581842116E+01  0.53981135288E+01  0.51100000000E-03 0. -1.
        -11    1    3    3    0    0 -0.11373014799E+02 -0.20547557774E+00 -0.15233642831E+02  0.19011879444E+02  0.51100000000E-03 0.  1.
        -12    1    3    3    0    0  0.26466413688E+02 -0.22549263098E+02 -0.29174351169E+01  0.34892001196E+02  0.00000000000E+00 0.  1.
</event>
<event>
 7    1  0.6198176E-013  0.5930195E+02  0.7816164E-02  0.1266605E+00
        -11   -1    0    0    0    0  0.00000000000E+00  0.00000000000E+00  0.45593999997E+02  0.45594000000E+02  0.51100000000E-03 0.  1.
         11   -1    0    0    0    0 -0.00000000000E+00 -0.00000000000E+00 -0.45593999997E+02  0.45594000000E+02  0.51100000000E-03 0. -1.
    9900012    2    1    2    0    0 -0.26811096425E+02  0.16642621327E+02 -0.45725922488E+01  0.59301947626E+02  0.50000006562E+02 0.  0.
        -12    1    1    2    0    0  0.26811096425E+02 -0.16642621327E+02  0.45725922488E+01  0.31886052374E+02  0.00000000000E+00 0.  1.
         11    1    3    3    0    0 -0.60689611531E+00  0.24711160616E+02 -0.22196687562E+01  0.24818072277E+02  0.51100000000E-03 0. -1.
        -11    1    3    3    0    0 -0.11272477837E+00  0.51407076929E+01 -0.73846224255E+00  0.51947001072E+01  0.51100000000E-03 0.  1.
        -12    1    3    3    0    0 -0.26091475531E+02 -0.13209246982E+02 -0.16144612500E+01  0.29289175242E+02  0.00000000000E+00 0.  1.
</event>
<event>
 7    1  0.6198176E-013  0.5930191E+02  0.7816164E-02  0.1266605E+00
        -11   -1    0    0    0    0  0.00000000000E+00  0.00000000000E+00  0.45593999997E+02  0.45594000000E+02  0.51100000000E-03 0.  1.
         11   -1    0    0    0    0 -0.00000000000E+00 -0.00000000000E+00 -0.45593999997E+02  0.45594000000E+02  0.51100000000E-03 0. -1.
    9900012    2    1    2    0    0 -0.32606273008E+01  0.22700424649E+02 -0.22153595659E+02  0.59301909454E+02  0.49999936946E+02 0.  0.
        -12    1    1    2    0    0  0.32606273008E+01 -0.22700424649E+02  0.22153595659E+02  0.31886090546E+02  0.00000000000E+00 0.  1.
         11    1    3    3    0    0 -0.12621536805E+02  0.52804404240E+01 -0.28256741677E+02  0.31394739892E+02  0.51100000000E-03 0. -1.
        -11    1    3    3    0    0  0.12872099504E+01 -0.27748502636E+01 -0.30417806851E+01  0.43138304833E+01  0.51100000000E-03 0.  1.
         12    1    3    3    0    0  0.80736995537E+01  0.20194834489E+02  0.91449267030E+01  0.23593339079E+02  0.00000000000E+00 0. -1.
</event>
<event>
 7    1  0.6198176E-013  0.5930195E+02  0.7816164E-02  0.1266605E+00
        -11   -1    0    0    0    0  0.00000000000E+00  0.00000000000E+00  0.45593999997E+02  0.45594000000E+02  0.51100000000E-03 0.  1.
         11   -1    0    0    0    0 -0.00000000000E+00 -0.00000000000E+00 -0.45593999997E+02  0.45594000000E+02  0.51100000000E-03 0. -1.
    9900012    2    1    2    0    0  0.20227263338E+02  0.10570554273E+02 -0.22267494077E+02  0.59301951448E+02  0.50000013533E+02 0.  0.
        -12    1    1    2    0    0 -0.20227263338E+02 -0.10570554273E+02  0.22267494077E+02  0.31886048552E+02  0.00000000000E+00 0.  1.
         11    1    3    3    0    0  0.88802136199E+01 -0.10316166860E+02  0.28338077530E+01  0.13903667116E+02  0.51100000000E-03 0. -1.
        -11    1    3    3    0    0  0.13557183677E+02 -0.28590958314E+01 -0.74762700454E+01  0.15743769316E+02  0.51100000000E-03 0.  1.
        -12    1    3    3    0    0 -0.22101339589E+01  0.23745816965E+02 -0.17625031785E+02  0.29654515016E+02  0.00000000000E+00 0.  1.
</event>
<event>
 7    1  0.6198176E-013  0.5930196E+02  0.7816164E-02  0.1266605E+00
        -11   -1    0    0    0    0  0.00000000000E+00  0.00000000000E+00  0.45593999997E+02  0.45594000000E+02  0.51100000000E-03 0.  1.
         11   -1    0    0    0    0 -0.00000000000E+00 -0.00000000000E+00 -0.45593999997E+02  0.45594000000E+02  0.51100000000E-03 0. -1.
    9900012    2    1    2    0    0 -0.31414281621E+02  0.22507641424E+01  0.49795810740E+01  0.59301964551E+02  0.50000037429E+02 0.  0.
        -12    1    1    2    0    0  0.31414281621E+02 -0.22507641424E+01 -0.49795810740E+01  0.31886035449E+02  0.00000000000E+00 0.  1.
         11    1    3    3    0    0  0.30659065965E+01 -0.85957812777E+01  0.53103194086E+00  0.91416209840E+01  0.51100000000E-03 0. -1.
        -11    1    3    3    0    0 -0.86561302430E+00 -0.13690206562E+01  0.13233202456E+02  0.13331959757E+02  0.51100000000E-03 0.  1.
        -12    1    3    3    0    0 -0.33614575194E+02  0.12215566076E+02 -0.87846533229E+01  0.36828383809E+02  0.00000000000E+00 0.  1.
</event>
<event>
 7    1  0.6198176E-013  0.5930195E+02  0.7816164E-02  0.1266605E+00
        -11   -1    0    0    0    0  0.00000000000E+00  0.00000000000E+00  0.45593999997E+02  0.45594000000E+02  0.51100000000E-03 0.  1.
         11   -1    0    0    0    0 -0.00000000000E+00 -0.00000000000E+00 -0.45593999997E+02  0.45594000000E+02  0.51100000000E-03 0. -1.
    9900012    2    1    2    0    0  0.10234775841E+02  0.17708891045E+02 -0.24461492350E+02  0.59301951851E+02  0.50000014268E+02 0.  0.
        -12    1    1    2    0    0 -0.10234775841E+02 -0.17708891045E+02  0.24461492350E+02  0.31886048149E+02  0.00000000000E+00 0.  1.
         11    1    3    3    0    0  0.71852915865E+01  0.64463268424E+01 -0.84452856245E+01  0.12826004619E+02  0.51100000000E-03 0. -1.
        -11    1    3    3    0    0  0.11801833100E+02  0.10298437805E+02  0.10286117129E+02  0.18738871140E+02  0.51100000000E-03 0.  1.
         12    1    3    3    0    0 -0.87523488450E+01  0.96412639767E+00 -0.26302323855E+02  0.27737076093E+02  0.00000000000E+00 0. -1.
</event>
<event>
 7    1  0.6198176E-013  0.5930198E+02  0.7816164E-02  0.1266605E+00
        -11   -1    0    0    0    0  0.00000000000E+00  0.00000000000E+00  0.45593999997E+02  0.45594000000E+02  0.51100000000E-03 0. -1.
         11   -1    0    0    0    0 -0.00000000000E+00 -0.00000000000E+00 -0.45593999997E+02  0.45594000000E+02  0.51100000000E-03 0.  1.
    9900012    2    1    2    0    0  0.10401829068E+02  0.26929293714E+02  0.13540060065E+02  0.59301982148E+02  0.50000069523E+02 0.  0.
        -12    1    1    2    0    0 -0.10401829068E+02 -0.26929293714E+02 -0.13540060065E+02  0.31886017852E+02  0.00000000000E+00 0.  1.
         11    1    3    3    0    0  0.99072319840E+01  0.13931511602E+01  0.79748915331E+01  0.12794256952E+02  0.51100000000E-03 0. -1.
        -11    1    3    3    0    0 -0.11369466366E+02  0.10271700745E+02  0.17909819869E+02  0.23569774068E+02  0.51100000000E-03 0.  1.
         12    1    3    3    0    0  0.11864063450E+02  0.15264441809E+02 -0.12344651337E+02  0.22937951128E+02  0.00000000000E+00 0. -1.
</event>
<event>
 7    1  0.6198176E-013  0.5930212E+02  0.7816164E-02  0.1266604E+00
        -11   -1    0    0    0    0  0.00000000000E+00  0.00000000000E+00  0.45593999997E+02  0.45594000000E+02  0.51100000000E-03 0. -1.
         11   -1    0    0    0    0 -0.00000000000E+00 -0.00000000000E+00 -0.45593999997E+02  0.45594000000E+02  0.51100000000E-03 0.  1.
    9900012    2    1    2    0    0  0.26264262968E+02  0.15883155721E+02  0.86384695316E+01  0.59302120668E+02  0.50000322149E+02 0.  0.
        -12    1    1    2    0    0 -0.26264262968E+02 -0.15883155721E+02 -0.86384695316E+01  0.31885879332E+02  0.00000000000E+00 0.  1.
         11    1    3    3    0    0  0.19314232608E+02  0.10308718699E+02  0.24013956752E+01  0.22024440149E+02  0.51100000000E-03 0.  1.
        -11    1    3    3    0    0  0.18169616671E+02 -0.24665079257E+01 -0.55164600681E+01  0.19148105997E+02  0.51100000000E-03 0. -1.
         12    1    3    3    0    0 -0.11219586311E+02  0.80409449475E+01  0.11753533924E+02  0.18129574522E+02  0.00000000000E+00 0. -1.
</event>
<event>
 7    1  0.6198176E-013  0.5930196E+02  0.7816164E-02  0.1266605E+00
        -11   -1    0    0    0    0  0.00000000000E+00  0.00000000000E+00  0.45593999997E+02  0.45594000000E+02  0.51100000000E-03 0.  1.
         11   -1    0    0    0    0 -0.00000000000E+00 -0.00000000000E+00 -0.45593999997E+02  0.45594000000E+02  0.51100000000E-03 0. -1.
    9900012    2    1    2    0    0 -0.20752697192E+02  0.75310212536E-01 -0.24208247826E+02  0.59301962692E+02  0.50000034040E+02 0.  0.
        -12    1    1    2    0    0  0.20752697192E+02 -0.75310212536E-01  0.24208247826E+02  0.31886037308E+02  0.00000000000E+00 0.  1.
         11    1    3    3    0    0 -0.50137948051E+01  0.19978825798E+01  0.68323631956E+01  0.87069432207E+01  0.51100000000E-03 0.  1.
        -11    1    3    3    0    0  0.10449751792E+02  0.65016392416E+01 -0.77013912773E+01  0.14518266192E+02  0.51100000000E-03 0. -1.
        -12    1    3    3    0    0 -0.26188654179E+02 -0.84242116088E+01 -0.23339219745E+02  0.36076753280E+02  0.00000000000E+00 0.  1.
</event>
<event>
 7    1  0.6198176E-013  0.5930193E+02  0.7816164E-02  0.1266605E+00
        -11   -1    0    0    0    0  0.00000000000E+00  0.00000000000E+00  0.45593999997E+02  0.45594000000E+02  0.51100000000E-03 0. -1.
         11   -1    0    0    0    0 -0.00000000000E+00 -0.00000000000E+00 -0.45593999997E+02  0.45594000000E+02  0.51100000000E-03 0.  1.
    9900012    2    1    2    0    0 -0.17883954801E+02 -0.66138600496E+01  0.25556647928E+02  0.59301933491E+02  0.49999980784E+02 0.  0.
        -12    1    1    2    0    0  0.17883954801E+02  0.66138600496E+01 -0.25556647928E+02  0.31886066509E+02  0.00000000000E+00 0.  1.
         11    1    3    3    0    0 -0.22594152995E+01 -0.37511783842E+01 -0.11455957983E+02  0.12264390337E+02  0.51100000000E-03 0. -1.
        -11    1    3    3    0    0  0.23382669943E+01  0.73741439394E+01  0.61162387026E+01  0.98617375499E+01  0.51100000000E-03 0.  1.
         12    1    3    3    0    0 -0.17962806496E+02 -0.10236825605E+02  0.30896367208E+02  0.37175805605E+02  0.00000000000E+00 0. -1.
</event>
<event>
 7    1  0.6198176E-013  0.5930191E+02  0.7816164E-02  0.1266605E+00
        -11   -1    0    0    0    0  0.00000000000E+00  0.00000000000E+00  0.45593999997E+02  0.45594000000E+02  0.51100000000E-03 0. -1.
         11   -1    0    0    0    0 -0.00000000000E+00 -0.00000000000E+00 -0.45593999997E+02  0.45594000000E+02  0.51100000000E-03 0.  1.
    9900012    2    1    2    0    0 -0.31788128406E+02  0.22838833471E+00  0.24870753886E+01  0.59301908788E+02  0.49999935732E+02 0.  0.
        -12    1    1    2    0    0  0.31788128406E+02 -0.22838833471E+00 -0.24870753886E+01  0.31886091212E+02  0.00000000000E+00 0.  1.
         11    1    3    3    0    0 -0.36936026608E+02  0.78463421979E+01  0.13175140204E+02  0.39992742681E+02  0.51100000000E-03 0. -1.
        -11    1    3    3    0    0  0.57274772919E+00  0.36968305996E+01 -0.14911907184E+01  0.40271884067E+01  0.51100000000E-03 0.  1.
        -12    1    3    3    0    0  0.45751504730E+01 -0.11314784463E+02 -0.91968740974E+01  0.15281977701E+02  0.00000000000E+00 0.  1.
</event>
<event>
 7    1  0.6198176E-013  0.5930195E+02  0.7816164E-02  0.1266605E+00
        -11   -1    0    0    0    0  0.00000000000E+00  0.00000000000E+00  0.45593999997E+02  0.45594000000E+02  0.51100000000E-03 0. -1.
         11   -1    0    0    0    0 -0.00000000000E+00 -0.00000000000E+00 -0.45593999997E+02  0.45594000000E+02  0.51100000000E-03 0.  1.
    9900012    2    1    2    0    0 -0.16801444132E+02  0.43590293470E+01  0.26747537723E+02  0.59301946058E+02  0.50000003702E+02 0.  0.
        -12    1    1    2    0    0  0.16801444132E+02 -0.43590293470E+01 -0.26747537723E+02  0.31886053942E+02  0.00000000000E+00 0.  1.
         11    1    3    3    0    0 -0.80001806370E+01 -0.37758826031E+01  0.18232638191E+02  0.20265470025E+02  0.51100000000E-03 0. -1.
        -11    1    3    3    0    0 -0.18205407052E+02  0.17185072185E+02  0.60140875521E+01  0.25747481455E+02  0.51100000000E-03 0.  1.
         12    1    3    3    0    0  0.94041435570E+01 -0.90501602352E+01  0.25008119797E+01  0.13288994577E+02  0.00000000000E+00 0. -1.
</event>
<event>
 7    1  0.6198176E-013  0.5930195E+02  0.7816164E-02  0.1266605E+00
        -11   -1    0    0    0    0  0.00000000000E+00  0.00000000000E+00  0.45593999997E+02  0.45594000000E+02  0.51100000000E-03 0.  1.
         11   -1    0    0    0    0 -0.00000000000E+00 -0.00000000000E+00 -0.45593999997E+02  0.45594000000E+02  0.51100000000E-03 0. -1.
    9900012    2    1    2    0    0 -0.29781898929E+02  0.10534517177E+02  0.43338637746E+01  0.59301953973E+02  0.50000018138E+02 0.  0.
        -12    1    1    2    0    0  0.29781898929E+02 -0.10534517177E+02 -0.43338637746E+01  0.31886046027E+02  0.00000000000E+00 0.  1.
         11    1    3    3    0    0 -0.11279635030E+01  0.49178290536E+01 -0.72715094216E+01  0.88505476551E+01  0.51100000000E-03 0. -1.
        -11    1    3    3    0    0  0.89134850823E+01 -0.11070522000E+01  0.81543231438E+01  0.12131313494E+02  0.51100000000E-03 0.  1.
        -12    1    3    3    0    0 -0.37567420509E+02  0.67237403234E+01  0.34510500524E+01  0.38320092825E+02  0.00000000000E+00 0.  1.
</event>
<event>
 7    1  0.6198176E-013  0.5930194E+02  0.7816164E-02  0.1266605E+00
        -11   -1    0    0    0    0  0.00000000000E+00  0.00000000000E+00  0.45593999997E+02  0.45594000000E+02  0.51100000000E-03 0.  1.
         11   -1    0    0    0    0 -0.00000000000E+00 -0.00000000000E+00 -0.45593999997E+02  0.45594000000E+02  0.51100000000E-03 0. -1.
    9900012    2    1    2    0    0  0.20949998833E+02  0.14353697887E+02 -0.19281846181E+02  0.59301942133E+02  0.49999996545E+02 0.  0.
        -12    1    1    2    0    0 -0.20949998833E+02 -0.14353697887E+02  0.19281846181E+02  0.31886057867E+02  0.00000000000E+00 0.  1.
         11    1    3    3    0    0  0.12085717770E+02  0.19543642705E+02 -0.26349125107E+02  0.34961334905E+02  0.51100000000E-03 0. -1.
        -11    1    3    3    0    0  0.86830028128E+01  0.68865038995E+01  0.20914288858E+01  0.11277967408E+02  0.51100000000E-03 0.  1.
        -12    1    3    3    0    0  0.18127825052E+00 -0.12076448718E+02  0.49758500400E+01  0.13062639820E+02  0.00000000000E+00 0.  1.
</event>
<event>
 7    1  0.6198176E-013  0.5930194E+02  0.7816164E-02  0.1266605E+00
        -11   -1    0    0    0    0  0.00000000000E+00  0.00000000000E+00  0.45593999997E+02  0.45594000000E+02  0.51100000000E-03 0.  1.
         11   -1    0    0    0    0 -0.00000000000E+00 -0.00000000000E+00 -0.45593999997E+02  0.45594000000E+02  0.51100000000E-03 0. -1.
    9900012    2    1    2    0    0  0.24713014747E+02 -0.16069235604E+02 -0.12155972017E+02  0.59301935858E+02  0.49999985100E+02 0.  0.
        -12    1    1    2    0    0 -0.24713014747E+02  0.16069235604E+02  0.12155972017E+02  0.31886064142E+02  0.00000000000E+00 0.  1.
         11    1    3    3    0    0  0.16079528569E+02  0.11757447242E+02  0.45434830661E+01  0.20431153744E+02  0.51100000000E-03 0. -1.
        -11    1    3    3    0    0  0.13161772999E+02 -0.16530217073E+02 -0.16312850993E+02  0.26694371180E+02  0.51100000000E-03 0.  1.
        -12    1    3    3    0    0 -0.45282868211E+01 -0.11296465773E+02 -0.38660409044E+00  0.12176410934E+02  0.00000000000E+00 0.  1.
</event>
<event>
 7    1  0.6198176E-013  0.5930195E+02  0.7816164E-02  0.1266605E+00
        -11   -1    0    0    0    0  0.00000000000E+00  0.00000000000E+00  0.45593999997E+02  0.45594000000E+02  0.51100000000E-03 0.  1.
         11   -1    0    0    0    0 -0.00000000000E+00 -0.00000000000E+00 -0.45593999997E+02  0.45594000000E+02  0.51100000000E-03 0. -1.
    9900012    2    1    2    0    0 -0.12046552755E+02  0.98786470424E+01  0.27821090992E+02  0.59301949686E+02  0.50000010319E+02 0.  0.
        -12    1    1    2    0    0  0.12046552755E+02 -0.98786470424E+01 -0.27821090992E+02  0.31886050314E+02  0.00000000000E+00 0.  1.
         11    1    3    3    0    0 -0.21155854700E+01  0.14147699706E+02 -0.54320916358E+00  0.14315312966E+02  0.51100000000E-03 0. -1.
        -11    1    3    3    0    0 -0.18881498062E+02  0.66907709078E+01  0.11993035492E+02  0.23347596985E+02  0.51100000000E-03 0.  1.
        -12    1    3    3    0    0  0.89505307779E+01 -0.10959823572E+02  0.16371264664E+02  0.21639039734E+02  0.00000000000E+00 0.  1.
</event>
<event>
 7    1  0.6198176E-013  0.5930196E+02  0.7816164E-02  0.1266605E+00
        -11   -1    0    0    0    0  0.00000000000E+00  0.00000000000E+00  0.45593999997E+02  0.45594000000E+02  0.51100000000E-03 0. -1.
         11   -1    0    0    0    0 -0.00000000000E+00 -0.00000000000E+00 -0.45593999997E+02  0.45594000000E+02  0.51100000000E-03 0.  1.
    9900012    2    1    2    0    0 -0.99291753673E+01 -0.28466493850E+01  0.30166661299E+02  0.59301962458E+02  0.50000033613E+02 0.  0.
        -12    1    1    2    0    0  0.99291753673E+01  0.28466493850E+01 -0.30166661299E+02  0.31886037542E+02  0.00000000000E+00 0.  1.
         11    1    3    3    0    0 -0.89808968251E+00 -0.19481683606E+01 -0.93450128456E+01  0.95880754265E+01  0.51100000000E-03 0. -1.
        -11    1    3    3    0    0  0.44576071685E+01 -0.10958021350E+02  0.89793416696E+01  0.14851837282E+02  0.51100000000E-03 0.  1.
         12    1    3    3    0    0 -0.13488692853E+02  0.10059540325E+02  0.30532332475E+02  0.34862049750E+02  0.00000000000E+00 0. -1.
</event>
<event>
 7    1  0.1038229E-012  0.5930207E+02  0.7816164E-02  0.1266604E+00
        -11   -1    0    0    0    0  0.00000000000E+00  0.00000000000E+00  0.45593999997E+02  0.45594000000E+02  0.51100000000E-03 0. -1.
         11   -1    0    0    0    0 -0.00000000000E+00 -0.00000000000E+00 -0.45593999997E+02  0.45594000000E+02  0.51100000000E-03 0.  1.
    9900012    2    1    2    0    0  0.14057467656E+02  0.17803996337E+02  0.22407983672E+02  0.59302071839E+02  0.50000233096E+02 0.  0.
        -12    1    1    2    0    0 -0.14057467656E+02 -0.17803996337E+02 -0.22407983672E+02  0.31885928161E+02  0.00000000000E+00 0.  1.
         11    1    3    3    0    0  0.80135685551E+01  0.13036429864E+02  0.18946364682E+02  0.24354271073E+02  0.51100000000E-03 0. -1.
        -11    1    3    3    0    0 -0.30593283785E+00  0.41363612652E+01  0.18316563441E+02  0.18780297548E+02  0.51100000000E-03 0.  1.
        -12    1    3    3    0    0  0.63498319386E+01  0.63120520734E+00 -0.14854944451E+02  0.16167503218E+02  0.00000000000E+00 0.  1.
</event>
<event>
 7    1  0.6198176E-013  0.5930190E+02  0.7816164E-02  0.1266605E+00
        -11   -1    0    0    0    0  0.00000000000E+00  0.00000000000E+00  0.45593999997E+02  0.45594000000E+02  0.51100000000E-03 0.  1.
         11   -1    0    0    0    0 -0.00000000000E+00 -0.00000000000E+00 -0.45593999997E+02  0.45594000000E+02  0.51100000000E-03 0. -1.
    9900012    2    1    2    0    0 -0.25521024321E+02 -0.30724142624E+01 -0.18866925334E+02  0.59301901409E+02  0.49999922274E+02 0.  0.
        -12    1    1    2    0    0  0.25521024321E+02  0.30724142624E+01  0.18866925334E+02  0.31886098591E+02  0.00000000000E+00 0.  1.
         11    1    3    3    0    0 -0.69085806578E+01 -0.20500013536E+01 -0.25848752144E+02  0.26834473721E+02  0.51100000000E-03 0. -1.
        -11    1    3    3    0    0  0.57435168601E+01 -0.27160711849E+01 -0.16629238229E+01  0.65673696794E+01  0.51100000000E-03 0.  1.
        -12    1    3    3    0    0 -0.24355960523E+02  0.16936582762E+01  0.86447506322E+01  0.25900058008E+02  0.00000000000E+00 0.  1.
</event>
<event>
 7    1  0.6198176E-013  0.5930194E+02  0.7816164E-02  0.1266605E+00
        -11   -1    0    0    0    0  0.00000000000E+00  0.00000000000E+00  0.45593999997E+02  0.45594000000E+02  0.51100000000E-03 0. -1.
         11   -1    0    0    0    0 -0.00000000000E+00 -0.00000000000E+00 -0.45593999997E+02  0.45594000000E+02  0.51100000000E-03 0.  1.
    9900012    2    1    2    0    0  0.18711313683E+01 -0.21033909603E+02  0.23891305932E+02  0.59301937450E+02  0.49999988004E+02 0.  0.
        -12    1    1    2    0    0 -0.18711313683E+01  0.21033909603E+02 -0.23891305932E+02  0.31886062550E+02  0.00000000000E+00 0.  1.
         11    1    3    3    0    0 -0.82497981722E+01 -0.22444197620E+02  0.14942421805E+02  0.28197112376E+02  0.51100000000E-03 0. -1.
        -11    1    3    3    0    0 -0.49208055502E+01  0.31807550123E+00  0.14281215096E+02  0.15108560626E+02  0.51100000000E-03 0.  1.
        -12    1    3    3    0    0  0.15041735091E+02  0.10922125157E+01 -0.53323309696E+01  0.15996264448E+02  0.00000000000E+00 0.  1.
</event>
<event>
 7    1  0.6198176E-013  0.5930193E+02  0.7816164E-02  0.1266605E+00
        -11   -1    0    0    0    0  0.00000000000E+00  0.00000000000E+00  0.45593999997E+02  0.45594000000E+02  0.51100000000E-03 0.  1.
         11   -1    0    0    0    0 -0.00000000000E+00 -0.00000000000E+00 -0.45593999997E+02  0.45594000000E+02  0.51100000000E-03 0. -1.
    9900012    2    1    2    0    0 -0.17168192023E+02 -0.26347737938E+02 -0.52698389242E+01  0.59301932289E+02  0.49999978591E+02 0.  0.
        -12    1    1    2    0    0  0.17168192023E+02  0.26347737938E+02  0.52698389242E+01  0.31886067711E+02  0.00000000000E+00 0.  1.
         11    1    3    3    0    0 -0.81265538654E+01 -0.16302758054E+02 -0.28823859893E+01  0.18442585154E+02  0.51100000000E-03 0. -1.
        -11    1    3    3    0    0  0.13990045796E+01 -0.15429855404E+01 -0.19204027495E+02  0.19316642836E+02  0.51100000000E-03 0.  1.
        -12    1    3    3    0    0 -0.10440642737E+02 -0.85019943435E+01  0.16816574560E+02  0.21542704299E+02  0.00000000000E+00 0.  1.
</event>
<event>
 7    1  0.6198176E-013  0.5930194E+02  0.7816164E-02  0.1266605E+00
        -11   -1    0    0    0    0  0.00000000000E+00  0.00000000000E+00  0.45593999997E+02  0.45594000000E+02  0.51100000000E-03 0. -1.
         11   -1    0    0    0    0 -0.00000000000E+00 -0.00000000000E+00 -0.45593999997E+02  0.45594000000E+02  0.51100000000E-03 0.  1.
    9900012    2    1    2    0    0 -0.10804081705E+02  0.14685735286E+01  0.29963906000E+02  0.59301944231E+02  0.50000000371E+02 0.  0.
        -12    1    1    2    0    0  0.10804081705E+02 -0.14685735286E+01 -0.29963906000E+02  0.31886055769E+02  0.00000000000E+00 0.  1.
         11    1    3    3    0    0 -0.32773031101E+01 -0.60523226538E+01 -0.66492306586E+00  0.69147269017E+01  0.51100000000E-03 0. -1.
        -11    1    3    3    0    0 -0.18292214341E+02 -0.52012709644E+01  0.18187909330E+01  0.19104091862E+02  0.51100000000E-03 0.  1.
         12    1    3    3    0    0  0.10765435746E+02  0.12722167147E+02  0.28810038133E+02  0.33283125468E+02  0.00000000000E+00 0. -1.
</event>
<event>
 7    1  0.6198176E-013  0.5930196E+02  0.7816164E-02  0.1266605E+00
        -11   -1    0    0    0    0  0.00000000000E+00  0.00000000000E+00  0.45593999997E+02  0.45594000000E+02  0.51100000000E-03 0.  1.
         11   -1    0    0    0    0 -0.00000000000E+00 -0.00000000000E+00 -0.45593999997E+02  0.45594000000E+02  0.51100000000E-03 0. -1.
    9900012    2    1    2    0    0 -0.11884771935E+02  0.17405510724E+02 -0.23927393703E+02  0.59301956393E+02  0.50000022551E+02 0.  0.
        -12    1    1    2    0    0  0.11884771935E+02 -0.17405510724E+02  0.23927393703E+02  0.31886043607E+02  0.00000000000E+00 0.  1.
         11    1    3    3    0    0  0.38678579971E+01  0.18457294102E+02 -0.13661615521E+02  0.23286729482E+02  0.51100000000E-03 0. -1.
        -11    1    3    3    0    0 -0.96473488312E+01  0.14707517137E+02 -0.60016616588E+01  0.18585003167E+02  0.51100000000E-03 0.  1.
        -12    1    3    3    0    0 -0.61052811008E+01 -0.15759300515E+02 -0.42641165228E+01  0.17430223744E+02  0.00000000000E+00 0.  1.
</event>
<event>
 7    1  0.6198176E-013  0.5930195E+02  0.7816164E-02  0.1266605E+00
        -11   -1    0    0    0    0  0.00000000000E+00  0.00000000000E+00  0.45593999997E+02  0.45594000000E+02  0.51100000000E-03 0.  1.
         11   -1    0    0    0    0 -0.00000000000E+00 -0.00000000000E+00 -0.45593999997E+02  0.45594000000E+02  0.51100000000E-03 0. -1.
    9900012    2    1    2    0    0 -0.24473780128E+01  0.29502304258E+02 -0.11846719406E+02  0.59301946993E+02  0.50000005408E+02 0.  0.
        -12    1    1    2    0    0  0.24473780128E+01 -0.29502304258E+02  0.11846719406E+02  0.31886053007E+02  0.00000000000E+00 0.  1.
         11    1    3    3    0    0  0.94589770660E-01 -0.26691668332E+01 -0.17046495647E+01  0.31684742713E+01  0.51100000000E-03 0. -1.
        -11    1    3    3    0    0  0.10842247171E+00  0.10491493841E+02 -0.26724579459E+02  0.28710387423E+02  0.51100000000E-03 0.  1.
        -12    1    3    3    0    0 -0.26503902551E+01  0.21679977250E+02  0.16582509618E+02  0.27423085299E+02  0.00000000000E+00 0.  1.
</event>
<event>
 7    1  0.6198176E-013  0.5930194E+02  0.7816164E-02  0.1266605E+00
        -11   -1    0    0    0    0  0.00000000000E+00  0.00000000000E+00  0.45593999997E+02  0.45594000000E+02  0.51100000000E-03 0. -1.
         11   -1    0    0    0    0 -0.00000000000E+00 -0.00000000000E+00 -0.45593999997E+02  0.45594000000E+02  0.51100000000E-03 0.  1.
    9900012    2    1    2    0    0 -0.26315939363E+02 -0.16328012330E+02  0.75886877287E+01  0.59301939838E+02  0.49999992359E+02 0.  0.
        -12    1    1    2    0    0  0.26315939363E+02  0.16328012330E+02 -0.75886877287E+01  0.31886060162E+02  0.00000000000E+00 0.  1.
         11    1    3    3    0    0 -0.28944461809E+02 -0.10265669736E+02 -0.60713348483E+01  0.31305382152E+02  0.51100000000E-03 0. -1.
        -11    1    3    3    0    0 -0.24002216473E+01  0.85968706135E+01  0.45301909703E+01  0.10009489437E+02  0.51100000000E-03 0.  1.
         12    1    3    3    0    0  0.50287440936E+01 -0.14659213208E+02  0.91298316067E+01  0.17987068249E+02  0.00000000000E+00 0. -1.
</event>
<event>
 7    1  0.6198176E-013  0.5930193E+02  0.7816164E-02  0.1266605E+00
        -11   -1    0    0    0    0  0.00000000000E+00  0.00000000000E+00  0.45593999997E+02  0.45594000000E+02  0.51100000000E-03 0.  1.
         11   -1    0    0    0    0 -0.00000000000E+00 -0.00000000000E+00 -0.45593999997E+02  0.45594000000E+02  0.51100000000E-03 0. -1.
    9900012    2    1    2    0    0  0.10543477543E+02 -0.10172146442E+02 -0.28321081561E+02  0.59301934976E+02  0.49999983491E+02 0.  0.
        -12    1    1    2    0    0 -0.10543477543E+02  0.10172146442E+02  0.28321081561E+02  0.31886065024E+02  0.00000000000E+00 0.  1.
         11    1    3    3    0    0 -0.89687730439E+00  0.15063701430E+02 -0.22491821360E+02  0.27085079251E+02  0.51100000000E-03 0. -1.
        -11    1    3    3    0    0 -0.14585250337E+01 -0.15335107332E+02 -0.22606057698E+01  0.15569301554E+02  0.51100000000E-03 0.  1.
        -12    1    3    3    0    0  0.12898879881E+02 -0.99007405396E+01 -0.35686544313E+01  0.16647554171E+02  0.00000000000E+00 0.  1.
</event>
<event>
 7    1  0.6198176E-013  0.5930194E+02  0.7816164E-02  0.1266605E+00
        -11   -1    0    0    0    0  0.00000000000E+00  0.00000000000E+00  0.45593999997E+02  0.45594000000E+02  0.51100000000E-03 0.  1.
         11   -1    0    0    0    0 -0.00000000000E+00 -0.00000000000E+00 -0.45593999997E+02  0.45594000000E+02  0.51100000000E-03 0. -1.
    9900012    2    1    2    0    0 -0.57860328198E+01  0.27290432769E+02 -0.15442634583E+02  0.59301939419E+02  0.49999991596E+02 0.  0.
        -12    1    1    2    0    0  0.57860328198E+01 -0.27290432769E+02  0.15442634583E+02  0.31886060581E+02  0.00000000000E+00 0.  1.
         11    1    3    3    0    0  0.68045031308E+01  0.16489463267E+02 -0.60325940230E+00  0.17848461667E+02  0.51100000000E-03 0. -1.
        -11    1    3    3    0    0  0.90567211448E+01  0.13946254448E+01  0.51606310749E+01  0.10516714857E+02  0.51100000000E-03 0.  1.
         12    1    3    3    0    0 -0.21647257095E+02  0.94063440565E+01 -0.20000006255E+02  0.30936762896E+02  0.00000000000E+00 0. -1.
</event>
<event>
 7    1  0.6198176E-013  0.5930192E+02  0.7816164E-02  0.1266605E+00
        -11   -1    0    0    0    0  0.00000000000E+00  0.00000000000E+00  0.45593999997E+02  0.45594000000E+02  0.51100000000E-03 0.  1.
         11   -1    0    0    0    0 -0.00000000000E+00 -0.00000000000E+00 -0.45593999997E+02  0.45594000000E+02  0.51100000000E-03 0. -1.
    9900012    2    1    2    0    0 -0.11401297814E+02 -0.46296562716E+01 -0.29415965603E+02  0.59301916180E+02  0.49999949212E+02 0.  0.
        -12    1    1    2    0    0  0.11401297814E+02  0.46296562716E+01  0.29415965603E+02  0.31886083820E+02  0.00000000000E+00 0.  1.
         11    1    3    3    0    0 -0.15184549299E+02  0.48334549437E+01 -0.33213610125E+01  0.16277722916E+02  0.51100000000E-03 0. -1.
        -11    1    3    3    0    0 -0.11769840928E+02 -0.13721515075E+02 -0.14124557000E+02  0.22941496074E+02  0.51100000000E-03 0.  1.
         12    1    3    3    0    0  0.15553092413E+02  0.42584038599E+01 -0.11970047591E+02  0.20082697189E+02  0.00000000000E+00 0. -1.
</event>
<event>
 7    1  0.6198176E-013  0.5930195E+02  0.7816164E-02  0.1266605E+00
        -11   -1    0    0    0    0  0.00000000000E+00  0.00000000000E+00  0.45593999997E+02  0.45594000000E+02  0.51100000000E-03 0.  1.
         11   -1    0    0    0    0 -0.00000000000E+00 -0.00000000000E+00 -0.45593999997E+02  0.45594000000E+02  0.51100000000E-03 0. -1.
    9900012    2    1    2    0    0  0.37742026449E+01  0.15368873193E+02 -0.27681638927E+02  0.59301952855E+02  0.50000016100E+02 0.  0.
        -12    1    1    2    0    0 -0.37742026449E+01 -0.15368873193E+02  0.27681638927E+02  0.31886047145E+02  0.00000000000E+00 0.  1.
         11    1    3    3    0    0 -0.19591581336E+02  0.13251953765E+02 -0.44735280759E+01  0.24071908764E+02  0.51100000000E-03 0.  1.
        -11    1    3    3    0    0  0.10257249279E+02  0.70812842262E+01 -0.11676118904E+02  0.17078861261E+02  0.51100000000E-03 0. -1.
        -12    1    3    3    0    0  0.13108534702E+02 -0.49643647985E+01 -0.11531991947E+02  0.18151182830E+02  0.00000000000E+00 0.  1.
</event>
<event>
 7    1  0.6198176E-013  0.5930195E+02  0.7816164E-02  0.1266605E+00
        -11   -1    0    0    0    0  0.00000000000E+00  0.00000000000E+00  0.45593999997E+02  0.45594000000E+02  0.51100000000E-03 0. -1.
         11   -1    0    0    0    0 -0.00000000000E+00 -0.00000000000E+00 -0.45593999997E+02  0.45594000000E+02  0.51100000000E-03 0.  1.
    9900012    2    1    2    0    0  0.23841736076E+02  0.21144310540E+02 -0.11001074901E+01  0.59301945309E+02  0.50000002336E+02 0.  0.
        -12    1    1    2    0    0 -0.23841736076E+02 -0.21144310540E+02  0.11001074901E+01  0.31886054691E+02  0.00000000000E+00 0.  1.
         11    1    3    3    0    0  0.38019394315E+00 -0.62828449357E+01 -0.86957211066E+01  0.10734721876E+02  0.51100000000E-03 0.  1.
        -11    1    3    3    0    0  0.24443972711E+02  0.43076668456E+01  0.43905435454E+01  0.25205964937E+02  0.51100000000E-03 0. -1.
         12    1    3    3    0    0 -0.98243057817E+00  0.23119488630E+02  0.32050700711E+01  0.23361258496E+02  0.00000000000E+00 0. -1.
</event>
<event>
 7    1  0.6198176E-013  0.5930195E+02  0.7816164E-02  0.1266605E+00
        -11   -1    0    0    0    0  0.00000000000E+00  0.00000000000E+00  0.45593999997E+02  0.45594000000E+02  0.51100000000E-03 0.  1.
         11   -1    0    0    0    0 -0.00000000000E+00 -0.00000000000E+00 -0.45593999997E+02  0.45594000000E+02  0.51100000000E-03 0. -1.
    9900012    2    1    2    0    0  0.18961243031E+02 -0.83847288650E+01 -0.24225771113E+02  0.59301946600E+02  0.50000004691E+02 0.  0.
        -12    1    1    2    0    0 -0.18961243031E+02  0.83847288650E+01  0.24225771113E+02  0.31886053400E+02  0.00000000000E+00 0.  1.
         11    1    3    3    0    0  0.10148013717E+02  0.13677698756E+01 -0.15368926023E+02  0.18467724933E+02  0.51100000000E-03 0. -1.
        -11    1    3    3    0    0  0.21139435622E+02 -0.78131650915E+01 -0.14852077571E+02  0.26990840957E+02  0.51100000000E-03 0.  1.
        -12    1    3    3    0    0 -0.12326206309E+02 -0.19393336492E+01  0.59952324807E+01  0.13843380709E+02  0.00000000000E+00 0.  1.
</event>
<event>
 7    1  0.6198176E-013  0.5930193E+02  0.7816164E-02  0.1266605E+00
        -11   -1    0    0    0    0  0.00000000000E+00  0.00000000000E+00  0.45593999997E+02  0.45594000000E+02  0.51100000000E-03 0.  1.
         11   -1    0    0    0    0 -0.00000000000E+00 -0.00000000000E+00 -0.45593999997E+02  0.45594000000E+02  0.51100000000E-03 0. -1.
    9900012    2    1    2    0    0 -0.23500172264E+01 -0.27949973510E+02 -0.15165670565E+02  0.59301934644E+02  0.49999982887E+02 0.  0.
        -12    1    1    2    0    0  0.23500172264E+01  0.27949973510E+02  0.15165670565E+02  0.31886065356E+02  0.00000000000E+00 0.  1.
         11    1    3    3    0    0  0.52236178548E+01 -0.52348477709E+01  0.68226695171E+00  0.74266616412E+01  0.51100000000E-03 0. -1.
        -11    1    3    3    0    0 -0.24075436786E+01 -0.35274922691E+02 -0.82237925323E+01  0.36300787888E+02  0.51100000000E-03 0.  1.
         12    1    3    3    0    0 -0.51660914027E+01  0.12559796952E+02 -0.76241449842E+01  0.15574485115E+02  0.00000000000E+00 0. -1.
</event>
<event>
 7    1  0.6198176E-013  0.5930204E+02  0.7816164E-02  0.1266604E+00
        -11   -1    0    0    0    0  0.00000000000E+00  0.00000000000E+00  0.45593999997E+02  0.45594000000E+02  0.51100000000E-03 0.  1.
         11   -1    0    0    0    0 -0.00000000000E+00 -0.00000000000E+00 -0.45593999997E+02  0.45594000000E+02  0.51100000000E-03 0. -1.
    9900012    2    1    2    0    0  0.68094793224E+01 -0.93589569015E+01 -0.29711196361E+02  0.59302042713E+02  0.50000179978E+02 0.  0.
        -12    1    1    2    0    0 -0.68094793224E+01  0.93589569015E+01  0.29711196361E+02  0.31885957287E+02  0.00000000000E+00 0.  1.
         11    1    3    3    0    0  0.72306909578E+01 -0.74791862819E+01  0.60966499894E+01  0.12057788376E+02  0.51100000000E-03 0. -1.
        -11    1    3    3    0    0  0.89859150609E+01 -0.74656270057E+01 -0.34257082652E+02  0.36194336134E+02  0.51100000000E-03 0.  1.
        -12    1    3    3    0    0 -0.94071266964E+01  0.55858563860E+01 -0.15507636976E+01  0.11049918203E+02  0.00000000000E+00 0.  1.
</event>
<event>
 7    1  0.6198176E-013  0.5930195E+02  0.7816164E-02  0.1266605E+00
        -11   -1    0    0    0    0  0.00000000000E+00  0.00000000000E+00  0.45593999997E+02  0.45594000000E+02  0.51100000000E-03 0.  1.
         11   -1    0    0    0    0 -0.00000000000E+00 -0.00000000000E+00 -0.45593999997E+02  0.45594000000E+02  0.51100000000E-03 0. -1.
    9900012    2    1    2    0    0  0.14715469093E+02 -0.28113199366E+02  0.31341668093E+01  0.59301952725E+02  0.50000015862E+02 0.  0.
        -12    1    1    2    0    0 -0.14715469093E+02  0.28113199366E+02 -0.31341668093E+01  0.31886047275E+02  0.00000000000E+00 0.  1.
         11    1    3    3    0    0 -0.29220925709E+01  0.27661741598E+01 -0.68141734470E+01  0.79134887693E+01  0.51100000000E-03 0. -1.
        -11    1    3    3    0    0  0.59029628892E+01  0.74949668567E+01  0.55051082335E+01  0.11014795322E+02  0.51100000000E-03 0.  1.
         12    1    3    3    0    0  0.11734598775E+02 -0.38374340382E+02  0.44432320229E+01  0.40373668634E+02  0.00000000000E+00 0. -1.
</event>
