<event>
 7    1  0.3223600E-013  0.5930198E+02  0.7816164E-02  0.1266605E+00
        -11   -1    0    0    0    0  0.00000000000E+00  0.00000000000E+00  0.45593999997E+02  0.45594000000E+02  0.51100000000E-03 0. -1.
         11   -1    0    0    0    0 -0.00000000000E+00 -0.00000000000E+00 -0.45593999997E+02  0.45594000000E+02  0.51100000000E-03 0.  1.
    9900012    2    1    2    0    0 -0.11634309102E+02  0.12701377191E+02  0.26833494697E+02  0.59301975342E+02  0.50000057109E+02 0.  0.
         12    1    1    2    0    0  0.11634309102E+02 -0.12701377191E+02 -0.26833494697E+02  0.31886024658E+02  0.00000000000E+00 0. -1.
         11    1    3    3    0    0  0.18013418661E+01  0.21382935484E+01  0.11336330726E+02  0.11676023570E+02  0.51100000000E-03 0. -1.
        -11    1    3    3    0    0  0.12646912234E+02  0.13835421484E+02  0.62102689136E+01  0.19746663438E+02  0.51100000000E-03 0.  1.
         12    1    3    3    0    0 -0.26082563203E+02 -0.32723378411E+01  0.92868950573E+01  0.27879288333E+02  0.00000000000E+00 0. -1.
</event>
<event>
 7    1  0.3223600E-013  0.5930197E+02  0.7816164E-02  0.1266605E+00
        -11   -1    0    0    0    0  0.00000000000E+00  0.00000000000E+00  0.45593999997E+02  0.45594000000E+02  0.51100000000E-03 0.  1.
         11   -1    0    0    0    0 -0.00000000000E+00 -0.00000000000E+00 -0.45593999997E+02  0.45594000000E+02  0.51100000000E-03 0. -1.
    9900012    2    1    2    0    0 -0.19844037666E+02 -0.19703758050E+02  0.15319760912E+02  0.59301968786E+02  0.50000045153E+02 0.  0.
         12    1    1    2    0    0  0.19844037666E+02  0.19703758050E+02 -0.15319760912E+02  0.31886031214E+02  0.00000000000E+00 0. -1.
         11    1    3    3    0    0 -0.46945143279E+01  0.91691182522E+01 -0.21515134428E+01  0.10523317189E+02  0.51100000000E-03 0. -1.
        -11    1    3    3    0    0 -0.13708856092E+02 -0.29481749282E+01 -0.45406270213E+01  0.14739123609E+02  0.51100000000E-03 0.  1.
        -12    1    3    3    0    0 -0.14406672461E+01 -0.25924701374E+02  0.22011901376E+02  0.34039527988E+02  0.00000000000E+00 0.  1.
</event>
<event>
 7    1  0.3223600E-013  0.5930195E+02  0.7816164E-02  0.1266605E+00
        -11   -1    0    0    0    0  0.00000000000E+00  0.00000000000E+00  0.45593999997E+02  0.45594000000E+02  0.51100000000E-03 0.  1.
         11   -1    0    0    0    0 -0.00000000000E+00 -0.00000000000E+00 -0.45593999997E+02  0.45594000000E+02  0.51100000000E-03 0. -1.
    9900012    2    1    2    0    0  0.98173956803E+01  0.18069290301E+02  0.24368827512E+02  0.59301948751E+02  0.50000008614E+02 0.  0.
         12    1    1    2    0    0 -0.98173956803E+01 -0.18069290301E+02 -0.24368827512E+02  0.31886051249E+02  0.00000000000E+00 0. -1.
         11    1    3    3    0    0 -0.10818312039E+02  0.13762185667E+02  0.34169761759E+01  0.17835620431E+02  0.51100000000E-03 0. -1.
        -11    1    3    3    0    0  0.15257596481E+02  0.15865185556E+02  0.17867567093E+02  0.28350455326E+02  0.51100000000E-03 0.  1.
        -12    1    3    3    0    0  0.53781112384E+01 -0.11558080922E+02  0.30842842432E+01  0.13115872994E+02  0.00000000000E+00 0.  1.
</event>
<event>
 7    1  0.3223600E-013  0.5930193E+02  0.7816164E-02  0.1266605E+00
        -11   -1    0    0    0    0  0.00000000000E+00  0.00000000000E+00  0.45593999997E+02  0.45594000000E+02  0.51100000000E-03 0.  1.
         11   -1    0    0    0    0 -0.00000000000E+00 -0.00000000000E+00 -0.45593999997E+02  0.45594000000E+02  0.51100000000E-03 0. -1.
    9900012    2    1    2    0    0  0.26348699704E+02 -0.17612600246E+02  0.35019337436E+01  0.59301934023E+02  0.49999981755E+02 0.  0.
         12    1    1    2    0    0 -0.26348699704E+02  0.17612600246E+02 -0.35019337436E+01  0.31886065977E+02  0.00000000000E+00 0. -1.
         11    1    3    3    0    0  0.78633132596E+01  0.10253216044E+02 -0.24070102698E+00  0.12923547188E+02  0.51100000000E-03 0. -1.
        -11    1    3    3    0    0 -0.33496908085E+00  0.13768043323E+01 -0.91730689844E+01  0.92818634610E+01  0.51100000000E-03 0.  1.
        -12    1    3    3    0    0  0.18820355525E+02 -0.29242620623E+02  0.12915703755E+02  0.37096523375E+02  0.00000000000E+00 0.  1.
</event>
<event>
 7    1  0.3223600E-013  0.5930195E+02  0.7816164E-02  0.1266605E+00
        -11   -1    0    0    0    0  0.00000000000E+00  0.00000000000E+00  0.45593999997E+02  0.45594000000E+02  0.51100000000E-03 0.  1.
         11   -1    0    0    0    0 -0.00000000000E+00 -0.00000000000E+00 -0.45593999997E+02  0.45594000000E+02  0.51100000000E-03 0. -1.
    9900012    2    1    2    0    0  0.29869925373E+02 -0.73051683151E+01  0.84345786224E+01  0.59301952229E+02  0.50000014958E+02 0.  0.
         12    1    1    2    0    0 -0.29869925373E+02  0.73051683151E+01 -0.84345786224E+01  0.31886047771E+02  0.00000000000E+00 0. -1.
         11    1    3    3    0    0 -0.21024137232E+01  0.33776783156E+01  0.39000922489E+01  0.55713170864E+01  0.51100000000E-03 0. -1.
        -11    1    3    3    0    0  0.68905103945E+01  0.14632883224E+02 -0.48375933184E+01  0.16882023407E+02  0.51100000000E-03 0.  1.
         12    1    3    3    0    0  0.25081828702E+02 -0.25315729855E+02  0.93720796920E+01  0.36848611736E+02  0.00000000000E+00 0. -1.
</event>
<event>
 7    1  0.3223600E-013  0.5930195E+02  0.7816164E-02  0.1266605E+00
        -11   -1    0    0    0    0  0.00000000000E+00  0.00000000000E+00  0.45593999997E+02  0.45594000000E+02  0.51100000000E-03 0.  1.
         11   -1    0    0    0    0 -0.00000000000E+00 -0.00000000000E+00 -0.45593999997E+02  0.45594000000E+02  0.51100000000E-03 0. -1.
    9900012    2    1    2    0    0  0.23482635593E+02  0.18031195132E+02 -0.11839014525E+02  0.59301946039E+02  0.50000003669E+02 0.  0.
         12    1    1    2    0    0 -0.23482635593E+02 -0.18031195132E+02  0.11839014525E+02  0.31886053961E+02  0.00000000000E+00 0. -1.
         11    1    3    3    0    0  0.15303731502E+02  0.68773389527E+01 -0.14232557491E+01  0.16838279192E+02  0.51100000000E-03 0. -1.
        -11    1    3    3    0    0  0.18661617811E+02 -0.72221958988E+01 -0.49873815692E+01  0.20622562113E+02  0.51100000000E-03 0.  1.
        -12    1    3    3    0    0 -0.10482713720E+02  0.18376052078E+02 -0.54283772066E+01  0.21841104734E+02  0.00000000000E+00 0.  1.
</event>
<event>
 7    1  0.3223600E-013  0.5930193E+02  0.7816164E-02  0.1266605E+00
        -11   -1    0    0    0    0  0.00000000000E+00  0.00000000000E+00  0.45593999997E+02  0.45594000000E+02  0.51100000000E-03 0.  1.
         11   -1    0    0    0    0 -0.00000000000E+00 -0.00000000000E+00 -0.45593999997E+02  0.45594000000E+02  0.51100000000E-03 0. -1.
    9900012    2    1    2    0    0 -0.57895073936E+00  0.16605930733E+02  0.27214510973E+02  0.59301925814E+02  0.49999966783E+02 0.  0.
         12    1    1    2    0    0  0.57895073936E+00 -0.16605930733E+02 -0.27214510973E+02  0.31886074186E+02  0.00000000000E+00 0. -1.
         11    1    3    3    0    0 -0.10991476294E+02  0.20863611037E+00  0.17470264203E+02  0.20641371362E+02  0.51100000000E-03 0. -1.
        -11    1    3    3    0    0  0.11476534088E+02  0.13009694512E+02  0.20778769399E+02  0.27068805736E+02  0.51100000000E-03 0.  1.
        -12    1    3    3    0    0 -0.10640085337E+01  0.33876001112E+01 -0.11034522628E+02  0.11591748717E+02  0.00000000000E+00 0.  1.
</event>
<event>
 7    1  0.3223600E-013  0.5930195E+02  0.7816164E-02  0.1266605E+00
        -11   -1    0    0    0    0  0.00000000000E+00  0.00000000000E+00  0.45593999997E+02  0.45594000000E+02  0.51100000000E-03 0.  1.
         11   -1    0    0    0    0 -0.00000000000E+00 -0.00000000000E+00 -0.45593999997E+02  0.45594000000E+02  0.51100000000E-03 0. -1.
    9900012    2    1    2    0    0  0.27013592456E+02  0.14032072470E+02  0.94914225804E+01  0.59301947598E+02  0.50000006511E+02 0.  0.
         12    1    1    2    0    0 -0.27013592456E+02 -0.14032072470E+02 -0.94914225804E+01  0.31886052402E+02  0.00000000000E+00 0. -1.
         11    1    3    3    0    0  0.11288497949E+02  0.21766831260E+02  0.55553078905E+01  0.25141332007E+02  0.51100000000E-03 0. -1.
        -11    1    3    3    0    0  0.19719807685E+02  0.14758501048E+01  0.10277282740E+02  0.22286127736E+02  0.51100000000E-03 0.  1.
         12    1    3    3    0    0 -0.39947131790E+01 -0.92106088944E+01 -0.63411680503E+01  0.11874487855E+02  0.00000000000E+00 0. -1.
</event>
<event>
 7    1  0.3223600E-013  0.5930196E+02  0.7816164E-02  0.1266605E+00
        -11   -1    0    0    0    0  0.00000000000E+00  0.00000000000E+00  0.45593999997E+02  0.45594000000E+02  0.51100000000E-03 0. -1.
         11   -1    0    0    0    0 -0.00000000000E+00 -0.00000000000E+00 -0.45593999997E+02  0.45594000000E+02  0.51100000000E-03 0.  1.
    9900012    2    1    2    0    0 -0.19201310827E+02 -0.58860956361E+01 -0.24766577363E+02  0.59301955818E+02  0.50000021502E+02 0.  0.
         12    1    1    2    0    0  0.19201310827E+02  0.58860956361E+01  0.24766577363E+02  0.31886044182E+02  0.00000000000E+00 0. -1.
         11    1    3    3    0    0 -0.26771529098E+02 -0.81026247224E+01 -0.73638586568E+01  0.28923929751E+02  0.51100000000E-03 0. -1.
        -11    1    3    3    0    0 -0.58536444125E+01  0.67275302595E+01 -0.12575258908E+02  0.15416288566E+02  0.51100000000E-03 0.  1.
         12    1    3    3    0    0  0.13423862684E+02 -0.45110011732E+01 -0.48274597985E+01  0.14961737501E+02  0.00000000000E+00 0. -1.
</event>
<event>
 7    1  0.3223600E-013  0.5930201E+02  0.7816164E-02  0.1266605E+00
        -11   -1    0    0    0    0  0.00000000000E+00  0.00000000000E+00  0.45593999997E+02  0.45594000000E+02  0.51100000000E-03 0.  1.
         11   -1    0    0    0    0 -0.00000000000E+00 -0.00000000000E+00 -0.45593999997E+02  0.45594000000E+02  0.51100000000E-03 0. -1.
    9900012    2    1    2    0    0 -0.23193401835E+02 -0.29538254817E+01  0.21680806927E+02  0.59302009931E+02  0.50000120192E+02 0.  0.
         12    1    1    2    0    0  0.23193401835E+02  0.29538254817E+01 -0.21680806927E+02  0.31885990069E+02  0.00000000000E+00 0. -1.
         11    1    3    3    0    0 -0.11997127091E+02  0.41592935086E+01  0.49095844752E+01  0.13613772472E+02  0.51100000000E-03 0. -1.
        -11    1    3    3    0    0 -0.88459571103E+01 -0.11195128518E+02  0.29143959931E+02  0.32449225884E+02  0.51100000000E-03 0.  1.
         12    1    3    3    0    0 -0.23503176341E+01  0.40820095281E+01 -0.12372737480E+02  0.13239011576E+02  0.00000000000E+00 0. -1.
</event>
<event>
 7    1  0.3223600E-013  0.5930189E+02  0.7816164E-02  0.1266605E+00
        -11   -1    0    0    0    0  0.00000000000E+00  0.00000000000E+00  0.45593999997E+02  0.45594000000E+02  0.51100000000E-03 0.  1.
         11   -1    0    0    0    0 -0.00000000000E+00 -0.00000000000E+00 -0.45593999997E+02  0.45594000000E+02  0.51100000000E-03 0. -1.
    9900012    2    1    2    0    0 -0.22447489496E+02  0.55858411532E+01  0.21946126419E+02  0.59301892196E+02  0.49999905472E+02 0.  0.
         12    1    1    2    0    0  0.22447489496E+02 -0.55858411532E+01 -0.21946126419E+02  0.31886107804E+02  0.00000000000E+00 0. -1.
         11    1    3    3    0    0 -0.14273248242E+01 -0.28984750078E+01  0.10013188940E+02  0.10521519212E+02  0.51100000000E-03 0.  1.
        -11    1    3    3    0    0  0.51386722201E+01 -0.39778043869E+01 -0.10354447353E+02  0.12224706956E+02  0.51100000000E-03 0. -1.
         12    1    3    3    0    0 -0.26158836892E+02  0.12462120548E+02  0.22287384832E+02  0.36555666028E+02  0.00000000000E+00 0. -1.
</event>
<event>
 7    1  0.3223600E-013  0.5930192E+02  0.7816164E-02  0.1266605E+00
        -11   -1    0    0    0    0  0.00000000000E+00  0.00000000000E+00  0.45593999997E+02  0.45594000000E+02  0.51100000000E-03 0.  1.
         11   -1    0    0    0    0 -0.00000000000E+00 -0.00000000000E+00 -0.45593999997E+02  0.45594000000E+02  0.51100000000E-03 0. -1.
    9900012    2    1    2    0    0  0.56148497630E+01 -0.99215145661E+01  0.29778499039E+02  0.59301921624E+02  0.49999959141E+02 0.  0.
         12    1    1    2    0    0 -0.56148497630E+01  0.99215145661E+01 -0.29778499039E+02  0.31886078376E+02  0.00000000000E+00 0. -1.
         11    1    3    3    0    0  0.16066050018E+00 -0.73095825874E+01  0.27707022724E+02  0.28655451800E+02  0.51100000000E-03 0. -1.
        -11    1    3    3    0    0  0.17010144822E+02 -0.30956835722E+01  0.61971049857E+01  0.18366610850E+02  0.51100000000E-03 0.  1.
         12    1    3    3    0    0 -0.11555955559E+02  0.48375159351E+00 -0.41256286700E+01  0.12279858974E+02  0.00000000000E+00 0. -1.
</event>
<event>
 7    1  0.3223600E-013  0.5930189E+02  0.7816164E-02  0.1266605E+00
        -11   -1    0    0    0    0  0.00000000000E+00  0.00000000000E+00  0.45593999997E+02  0.45594000000E+02  0.51100000000E-03 0. -1.
         11   -1    0    0    0    0 -0.00000000000E+00 -0.00000000000E+00 -0.45593999997E+02  0.45594000000E+02  0.51100000000E-03 0.  1.
    9900012    2    1    2    0    0  0.30982464936E+02 -0.17438993375E+01 -0.73327825588E+01  0.59301889882E+02  0.49999901251E+02 0.  0.
         12    1    1    2    0    0 -0.30982464936E+02  0.17438993375E+01  0.73327825588E+01  0.31886110118E+02  0.00000000000E+00 0. -1.
         11    1    3    3    0    0 -0.87878404377E+01  0.62858642929E+01 -0.44152399217E+01  0.11671871028E+02  0.51100000000E-03 0. -1.
        -11    1    3    3    0    0  0.12892766616E+02  0.87036442577E+00 -0.12263060960E+02  0.17814702625E+02  0.51100000000E-03 0.  1.
         12    1    3    3    0    0  0.26877538758E+02 -0.89001280561E+01  0.93455183233E+01  0.29815316229E+02  0.00000000000E+00 0. -1.
</event>
<event>
 7    1  0.3223600E-013  0.5930194E+02  0.7816164E-02  0.1266605E+00
        -11   -1    0    0    0    0  0.00000000000E+00  0.00000000000E+00  0.45593999997E+02  0.45594000000E+02  0.51100000000E-03 0. -1.
         11   -1    0    0    0    0 -0.00000000000E+00 -0.00000000000E+00 -0.45593999997E+02  0.45594000000E+02  0.51100000000E-03 0.  1.
    9900012    2    1    2    0    0 -0.77323060480E+00  0.67247795420E+01 -0.31159275450E+02  0.59301937339E+02  0.49999987801E+02 0.  0.
         12    1    1    2    0    0  0.77323060480E+00 -0.67247795420E+01  0.31159275450E+02  0.31886062661E+02  0.00000000000E+00 0. -1.
         11    1    3    3    0    0 -0.16305632228E+02  0.14234666952E+02 -0.15496132112E+02  0.26620095723E+02  0.51100000000E-03 0. -1.
        -11    1    3    3    0    0  0.67725562833E+01  0.21131816940E+01 -0.18101682579E+02  0.19442324139E+02  0.51100000000E-03 0.  1.
        -12    1    3    3    0    0  0.87598453404E+01 -0.96230691045E+01  0.24385392412E+01  0.13239517476E+02  0.00000000000E+00 0.  1.
</event>
<event>
 7    1  0.3223600E-013  0.5930204E+02  0.7816164E-02  0.1266604E+00
        -11   -1    0    0    0    0  0.00000000000E+00  0.00000000000E+00  0.45593999997E+02  0.45594000000E+02  0.51100000000E-03 0.  1.
         11   -1    0    0    0    0 -0.00000000000E+00 -0.00000000000E+00 -0.45593999997E+02  0.45594000000E+02  0.51100000000E-03 0. -1.
    9900012    2    1    2    0    0  0.19197881629E+02  0.21460813482E+02  0.13696332971E+02  0.59302035828E+02  0.50000167421E+02 0.  0.
         12    1    1    2    0    0 -0.19197881629E+02 -0.21460813482E+02 -0.13696332971E+02  0.31885964172E+02  0.00000000000E+00 0. -1.
         11    1    3    3    0    0  0.57447147434E+01 -0.16753850784E+01 -0.12974830067E+02  0.14288277649E+02  0.51100000000E-03 0. -1.
        -11    1    3    3    0    0 -0.52546378426E+01  0.53927569119E+01 -0.51253754229E+00  0.75469027396E+01  0.51100000000E-03 0.  1.
        -12    1    3    3    0    0  0.18707804728E+02  0.17743441649E+02  0.27183700580E+02  0.37466855439E+02  0.00000000000E+00 0.  1.
</event>
<event>
 7    1  0.3223600E-013  0.5930194E+02  0.7816164E-02  0.1266605E+00
        -11   -1    0    0    0    0  0.00000000000E+00  0.00000000000E+00  0.45593999997E+02  0.45594000000E+02  0.51100000000E-03 0. -1.
         11   -1    0    0    0    0 -0.00000000000E+00 -0.00000000000E+00 -0.45593999997E+02  0.45594000000E+02  0.51100000000E-03 0.  1.
    9900012    2    1    2    0    0  0.69570181125E+00 -0.30841070470E+02 -0.80663049756E+01  0.59301938708E+02  0.49999990299E+02 0.  0.
         12    1    1    2    0    0 -0.69570181125E+00  0.30841070470E+02  0.80663049756E+01  0.31886061292E+02  0.00000000000E+00 0. -1.
         11    1    3    3    0    0 -0.14710160111E+02 -0.92148422204E+01 -0.14464807043E+02  0.22594972244E+02  0.51100000000E-03 0. -1.
        -11    1    3    3    0    0  0.10039308316E+01 -0.10410681026E+02 -0.82347924458E+01  0.13311722782E+02  0.51100000000E-03 0.  1.
         12    1    3    3    0    0  0.14401931090E+02 -0.11215547224E+02  0.14633294514E+02  0.23395243683E+02  0.00000000000E+00 0. -1.
</event>
<event>
 7    1  0.3223600E-013  0.5930194E+02  0.7816164E-02  0.1266605E+00
        -11   -1    0    0    0    0  0.00000000000E+00  0.00000000000E+00  0.45593999997E+02  0.45594000000E+02  0.51100000000E-03 0. -1.
         11   -1    0    0    0    0 -0.00000000000E+00 -0.00000000000E+00 -0.45593999997E+02  0.45594000000E+02  0.51100000000E-03 0.  1.
    9900012    2    1    2    0    0 -0.32387098942E+01 -0.31719475353E+02 -0.32647522466E+00  0.59301938084E+02  0.49999989160E+02 0.  0.
         12    1    1    2    0    0  0.32387098942E+01  0.31719475353E+02  0.32647522466E+00  0.31886061916E+02  0.00000000000E+00 0. -1.
         11    1    3    3    0    0 -0.82079695497E+01 -0.19264904101E+02  0.13597693114E+02  0.24968070660E+02  0.51100000000E-03 0. -1.
        -11    1    3    3    0    0 -0.93909499726E+01 -0.22919244650E+01  0.27965197628E+01  0.10062970843E+02  0.51100000000E-03 0.  1.
         12    1    3    3    0    0  0.14360209628E+02 -0.10162646786E+02 -0.16720688102E+02  0.24270896581E+02  0.00000000000E+00 0. -1.
</event>
<event>
 7    1  0.3223600E-013  0.5930195E+02  0.7816164E-02  0.1266605E+00
        -11   -1    0    0    0    0  0.00000000000E+00  0.00000000000E+00  0.45593999997E+02  0.45594000000E+02  0.51100000000E-03 0.  1.
         11   -1    0    0    0    0 -0.00000000000E+00 -0.00000000000E+00 -0.45593999997E+02  0.45594000000E+02  0.51100000000E-03 0. -1.
    9900012    2    1    2    0    0  0.10717338300E+02 -0.14240048871E+02  0.26440114606E+02  0.59301953013E+02  0.50000016387E+02 0.  0.
         12    1    1    2    0    0 -0.10717338300E+02  0.14240048871E+02 -0.26440114606E+02  0.31886046987E+02  0.00000000000E+00 0. -1.
         11    1    3    3    0    0  0.11938846624E+02 -0.20876096043E+02  0.10648115128E+02  0.26300756657E+02  0.51100000000E-03 0. -1.
        -11    1    3    3    0    0  0.78588189208E+01  0.86528288626E+01 -0.29696727052E+01  0.12060324970E+02  0.51100000000E-03 0.  1.
        -12    1    3    3    0    0 -0.90803272447E+01 -0.20167816914E+01  0.18761672184E+02  0.20940871386E+02  0.00000000000E+00 0.  1.
</event>
<event>
 7    1  0.3223600E-013  0.5930195E+02  0.7816164E-02  0.1266605E+00
        -11   -1    0    0    0    0  0.00000000000E+00  0.00000000000E+00  0.45593999997E+02  0.45594000000E+02  0.51100000000E-03 0.  1.
         11   -1    0    0    0    0 -0.00000000000E+00 -0.00000000000E+00 -0.45593999997E+02  0.45594000000E+02  0.51100000000E-03 0. -1.
    9900012    2    1    2    0    0  0.72196281670E+01  0.31022820701E+02  0.14770572239E+01  0.59301950806E+02  0.50000012363E+02 0.  0.
         12    1    1    2    0    0 -0.72196281670E+01 -0.31022820701E+02 -0.14770572239E+01  0.31886049194E+02  0.00000000000E+00 0. -1.
         11    1    3    3    0    0  0.75674320001E+00 -0.29463630082E+01  0.11764282944E+02  0.12151216758E+02  0.51100000000E-03 0. -1.
        -11    1    3    3    0    0  0.47740038591E+01  0.26651931753E+02  0.72867571589E+01  0.28039497306E+02  0.51100000000E-03 0.  1.
         12    1    3    3    0    0  0.16888811079E+01  0.73172519561E+01 -0.17573982879E+02  0.19111236742E+02  0.00000000000E+00 0. -1.
</event>
<event>
 7    1  0.3223600E-013  0.5930193E+02  0.7816164E-02  0.1266605E+00
        -11   -1    0    0    0    0  0.00000000000E+00  0.00000000000E+00  0.45593999997E+02  0.45594000000E+02  0.51100000000E-03 0.  1.
         11   -1    0    0    0    0 -0.00000000000E+00 -0.00000000000E+00 -0.45593999997E+02  0.45594000000E+02  0.51100000000E-03 0. -1.
    9900012    2    1    2    0    0 -0.16540622187E+01 -0.29105669193E+02  0.12916859628E+02  0.59301934648E+02  0.49999982893E+02 0.  0.
         12    1    1    2    0    0  0.16540622187E+01  0.29105669193E+02 -0.12916859628E+02  0.31886065352E+02  0.00000000000E+00 0. -1.
         11    1    3    3    0    0  0.56154981672E+01  0.26164039975E+01  0.20709816375E+01  0.65321018629E+01  0.51100000000E-03 0. -1.
        -11    1    3    3    0    0 -0.18653845081E+02 -0.84456799242E+00  0.26977985201E+01  0.18866831969E+02  0.51100000000E-03 0.  1.
        -12    1    3    3    0    0  0.11384284696E+02 -0.30877505198E+02  0.81480794707E+01  0.33903000816E+02  0.00000000000E+00 0.  1.
</event>
<event>
 7    1  0.3223600E-013  0.5930193E+02  0.7816164E-02  0.1266605E+00
        -11   -1    0    0    0    0  0.00000000000E+00  0.00000000000E+00  0.45593999997E+02  0.45594000000E+02  0.51100000000E-03 0.  1.
         11   -1    0    0    0    0 -0.00000000000E+00 -0.00000000000E+00 -0.45593999997E+02  0.45594000000E+02  0.51100000000E-03 0. -1.
    9900012    2    1    2    0    0  0.15683564070E+02  0.26380967118E+02 -0.86482311300E+01  0.59301929221E+02  0.49999972997E+02 0.  0.
         12    1    1    2    0    0 -0.15683564070E+02 -0.26380967118E+02  0.86482311300E+01  0.31886070779E+02  0.00000000000E+00 0. -1.
         11    1    3    3    0    0 -0.42386463777E+01  0.45618456735E+01 -0.12325333614E+02  0.13809069774E+02  0.51100000000E-03 0. -1.
        -11    1    3    3    0    0 -0.93249330021E+01  0.76435702506E+01 -0.27382985660E+01  0.12364336657E+02  0.51100000000E-03 0.  1.
        -12    1    3    3    0    0  0.29247143450E+02  0.14175551194E+02  0.64154010501E+01  0.33128522790E+02  0.00000000000E+00 0.  1.
</event>
<event>
 7    1  0.3223600E-013  0.5930201E+02  0.7816164E-02  0.1266605E+00
        -11   -1    0    0    0    0  0.00000000000E+00  0.00000000000E+00  0.45593999997E+02  0.45594000000E+02  0.51100000000E-03 0. -1.
         11   -1    0    0    0    0 -0.00000000000E+00 -0.00000000000E+00 -0.45593999997E+02  0.45594000000E+02  0.51100000000E-03 0.  1.
    9900012    2    1    2    0    0  0.60809624806E+00 -0.25730655301E+00 -0.31879156423E+02  0.59302006179E+02  0.50000113348E+02 0.  0.
         12    1    1    2    0    0 -0.60809624806E+00  0.25730655301E+00  0.31879156423E+02  0.31885993821E+02  0.00000000000E+00 0. -1.
         11    1    3    3    0    0  0.14141888615E+02  0.32146367425E+01 -0.18450804006E+02  0.23468256683E+02  0.51100000000E-03 0. -1.
        -11    1    3    3    0    0  0.46055802040E+01  0.70919729756E+01  0.32132612533E+01  0.90461316509E+01  0.51100000000E-03 0.  1.
        -12    1    3    3    0    0 -0.18139372571E+02 -0.10563916271E+02 -0.16641613670E+02  0.26787617845E+02  0.00000000000E+00 0.  1.
</event>
<event>
 7    1  0.3223600E-013  0.5930199E+02  0.7816164E-02  0.1266605E+00
        -11   -1    0    0    0    0  0.00000000000E+00  0.00000000000E+00  0.45593999997E+02  0.45594000000E+02  0.51100000000E-03 0.  1.
         11   -1    0    0    0    0 -0.00000000000E+00 -0.00000000000E+00 -0.45593999997E+02  0.45594000000E+02  0.51100000000E-03 0. -1.
    9900012    2    1    2    0    0 -0.24491190017E+02 -0.11928116719E+02  0.16571643625E+02  0.59301988500E+02  0.50000081107E+02 0.  0.
         12    1    1    2    0    0  0.24491190017E+02  0.11928116719E+02 -0.16571643625E+02  0.31886011500E+02  0.00000000000E+00 0. -1.
         11    1    3    3    0    0 -0.21564471685E+02 -0.33634352168E+01  0.64809615645E+01  0.22767125391E+02  0.51100000000E-03 0. -1.
        -11    1    3    3    0    0 -0.13617773424E+02 -0.47338583157E+01 -0.69908210061E+01  0.16022632311E+02  0.51100000000E-03 0.  1.
        -12    1    3    3    0    0  0.10691055092E+02 -0.38308231863E+01  0.17081503067E+02  0.20512230798E+02  0.00000000000E+00 0.  1.
</event>
<event>
 7    1  0.3223600E-013  0.5930195E+02  0.7816164E-02  0.1266605E+00
        -11   -1    0    0    0    0  0.00000000000E+00  0.00000000000E+00  0.45593999997E+02  0.45594000000E+02  0.51100000000E-03 0. -1.
         11   -1    0    0    0    0 -0.00000000000E+00 -0.00000000000E+00 -0.45593999997E+02  0.45594000000E+02  0.51100000000E-03 0.  1.
    9900012    2    1    2    0    0 -0.19133235725E+02 -0.19436748696E+02  0.16518232645E+02  0.59301954166E+02  0.50000018490E+02 0.  0.
         12    1    1    2    0    0  0.19133235725E+02  0.19436748696E+02 -0.16518232645E+02  0.31886045834E+02  0.00000000000E+00 0. -1.
         11    1    3    3    0    0  0.27003387564E+01 -0.58539548015E+01  0.19357171836E+02  0.20402468428E+02  0.51100000000E-03 0. -1.
        -11    1    3    3    0    0 -0.79014952592E+01  0.84365833393E+01  0.35104500741E+01  0.12080265964E+02  0.51100000000E-03 0.  1.
        -12    1    3    3    0    0 -0.13932079223E+02 -0.22019377234E+02 -0.63493892651E+01  0.26819219774E+02  0.00000000000E+00 0.  1.
</event>
<event>
 7    1  0.3223600E-013  0.5930195E+02  0.7816164E-02  0.1266605E+00
        -11   -1    0    0    0    0  0.00000000000E+00  0.00000000000E+00  0.45593999997E+02  0.45594000000E+02  0.51100000000E-03 0. -1.
         11   -1    0    0    0    0 -0.00000000000E+00 -0.00000000000E+00 -0.45593999997E+02  0.45594000000E+02  0.51100000000E-03 0.  1.
    9900012    2    1    2    0    0  0.10589693182E+01 -0.43571904203E+01 -0.31569189611E+02  0.59301948863E+02  0.50000008819E+02 0.  0.
         12    1    1    2    0    0 -0.10589693182E+01  0.43571904203E+01  0.31569189611E+02  0.31886051137E+02  0.00000000000E+00 0. -1.
         11    1    3    3    0    0  0.31492580180E+01 -0.91671686288E+01  0.67706415680E+01  0.11823552522E+02  0.51100000000E-03 0. -1.
        -11    1    3    3    0    0 -0.14202993777E+01  0.10399791981E+02 -0.19752078771E+01  0.10680560378E+02  0.51100000000E-03 0.  1.
        -12    1    3    3    0    0 -0.66998932212E+00 -0.55898137725E+01 -0.36364623302E+02  0.36797835964E+02  0.00000000000E+00 0.  1.
</event>
<event>
 7    1  0.3223600E-013  0.5930192E+02  0.7816164E-02  0.1266605E+00
        -11   -1    0    0    0    0  0.00000000000E+00  0.00000000000E+00  0.45593999997E+02  0.45594000000E+02  0.51100000000E-03 0. -1.
         11   -1    0    0    0    0 -0.00000000000E+00 -0.00000000000E+00 -0.45593999997E+02  0.45594000000E+02  0.51100000000E-03 0.  1.
    9900012    2    1    2    0    0  0.29989803275E+02  0.10562391807E+02  0.24019536321E+01  0.59301924631E+02  0.49999964625E+02 0.  0.
         12    1    1    2    0    0 -0.29989803275E+02 -0.10562391807E+02 -0.24019536321E+01  0.31886075369E+02  0.00000000000E+00 0. -1.
         11    1    3    3    0    0  0.25851116437E+02 -0.11022920119E+02  0.60970087051E+01  0.28756886209E+02  0.51100000000E-03 0. -1.
        -11    1    3    3    0    0  0.75205955385E+01  0.93934621614E+00 -0.57640391712E+01  0.95218630738E+01  0.51100000000E-03 0.  1.
         12    1    3    3    0    0 -0.33819087005E+01  0.20645965710E+02  0.20689840982E+01  0.21023175349E+02  0.00000000000E+00 0. -1.
</event>
<event>
 7    1  0.3223600E-013  0.5930193E+02  0.7816164E-02  0.1266605E+00
        -11   -1    0    0    0    0  0.00000000000E+00  0.00000000000E+00  0.45593999997E+02  0.45594000000E+02  0.51100000000E-03 0.  1.
         11   -1    0    0    0    0 -0.00000000000E+00 -0.00000000000E+00 -0.45593999997E+02  0.45594000000E+02  0.51100000000E-03 0. -1.
    9900012    2    1    2    0    0 -0.11400726220E+02 -0.27227134259E+02  0.12059354050E+02  0.59301930653E+02  0.49999975607E+02 0.  0.
         12    1    1    2    0    0  0.11400726220E+02  0.27227134259E+02 -0.12059354050E+02  0.31886069347E+02  0.00000000000E+00 0. -1.
         11    1    3    3    0    0 -0.12139205701E+02 -0.14129908476E+02  0.17483767930E+01  0.18710196425E+02  0.51100000000E-03 0. -1.
        -11    1    3    3    0    0 -0.72146173109E+01  0.74879777215E+01  0.14784350075E+02  0.18074775813E+02  0.51100000000E-03 0.  1.
         12    1    3    3    0    0  0.79530967915E+01 -0.20585203504E+02 -0.44733728177E+01  0.22516958415E+02  0.00000000000E+00 0. -1.
</event>
<event>
 7    1  0.3223600E-013  0.5930194E+02  0.7816164E-02  0.1266605E+00
        -11   -1    0    0    0    0  0.00000000000E+00  0.00000000000E+00  0.45593999997E+02  0.45594000000E+02  0.51100000000E-03 0.  1.
         11   -1    0    0    0    0 -0.00000000000E+00 -0.00000000000E+00 -0.45593999997E+02  0.45594000000E+02  0.51100000000E-03 0. -1.
    9900012    2    1    2    0    0  0.20180927372E+02  0.78835146504E+01  0.23394466486E+02  0.59301941997E+02  0.49999996297E+02 0.  0.
         12    1    1    2    0    0 -0.20180927372E+02 -0.78835146504E+01 -0.23394466486E+02  0.31886058003E+02  0.00000000000E+00 0. -1.
         11    1    3    3    0    0  0.28863441215E+01  0.20445400975E+01 -0.84842270459E+01  0.91920202037E+01  0.51100000000E-03 0. -1.
        -11    1    3    3    0    0 -0.29454797747E+01  0.10734611680E+02 -0.10164533818E+01  0.11177697292E+02  0.51100000000E-03 0.  1.
         12    1    3    3    0    0  0.20240063025E+02 -0.48956371271E+01  0.32895146913E+02  0.38932224501E+02  0.00000000000E+00 0. -1.
</event>
<event>
 7    1  0.3223600E-013  0.5930192E+02  0.7816164E-02  0.1266605E+00
        -11   -1    0    0    0    0  0.00000000000E+00  0.00000000000E+00  0.45593999997E+02  0.45594000000E+02  0.51100000000E-03 0. -1.
         11   -1    0    0    0    0 -0.00000000000E+00 -0.00000000000E+00 -0.45593999997E+02  0.45594000000E+02  0.51100000000E-03 0.  1.
    9900012    2    1    2    0    0  0.20875223923E+00 -0.31308347373E+02  0.60386871094E+01  0.59301922556E+02  0.49999960842E+02 0.  0.
         12    1    1    2    0    0 -0.20875223923E+00  0.31308347373E+02 -0.60386871094E+01  0.31886077444E+02  0.00000000000E+00 0. -1.
         11    1    3    3    0    0  0.59640775967E+01 -0.45202974146E+00  0.23160120731E+01  0.64139273968E+01  0.51100000000E-03 0. -1.
        -11    1    3    3    0    0  0.17477754605E+02 -0.18306662830E+02 -0.34020994668E+01  0.25537816881E+02  0.51100000000E-03 0.  1.
        -12    1    3    3    0    0 -0.23233079962E+02 -0.12549654802E+02  0.71247745032E+01  0.27350178279E+02  0.00000000000E+00 0.  1.
</event>
<event>
 7    1  0.3223600E-013  0.5930192E+02  0.7816164E-02  0.1266605E+00
        -11   -1    0    0    0    0  0.00000000000E+00  0.00000000000E+00  0.45593999997E+02  0.45594000000E+02  0.51100000000E-03 0.  1.
         11   -1    0    0    0    0 -0.00000000000E+00 -0.00000000000E+00 -0.45593999997E+02  0.45594000000E+02  0.51100000000E-03 0. -1.
    9900012    2    1    2    0    0  0.81095851074E+01 -0.30828878872E+02  0.73264682654E+00  0.59301922874E+02  0.49999961421E+02 0.  0.
         12    1    1    2    0    0 -0.81095851074E+01  0.30828878872E+02 -0.73264682654E+00  0.31886077126E+02  0.00000000000E+00 0. -1.
         11    1    3    3    0    0  0.56344635644E+01 -0.16928556020E+02 -0.18061429582E+02  0.25387761370E+02  0.51100000000E-03 0. -1.
        -11    1    3    3    0    0  0.14015929133E+01 -0.46140856133E+01 -0.58355418503E+01  0.75701913906E+01  0.51100000000E-03 0.  1.
        -12    1    3    3    0    0  0.10735286297E+01 -0.92862372382E+01  0.24629618259E+02  0.26343970113E+02  0.00000000000E+00 0.  1.
</event>
<event>
 7    1  0.3223600E-013  0.5930195E+02  0.7816164E-02  0.1266605E+00
        -11   -1    0    0    0    0  0.00000000000E+00  0.00000000000E+00  0.45593999997E+02  0.45594000000E+02  0.51100000000E-03 0.  1.
         11   -1    0    0    0    0 -0.00000000000E+00 -0.00000000000E+00 -0.45593999997E+02  0.45594000000E+02  0.51100000000E-03 0. -1.
    9900012    2    1    2    0    0  0.21759736866E+02  0.11534093796E+02  0.20253365679E+02  0.59301948356E+02  0.50000007893E+02 0.  0.
         12    1    1    2    0    0 -0.21759736866E+02 -0.11534093796E+02 -0.20253365679E+02  0.31886051644E+02  0.00000000000E+00 0. -1.
         11    1    3    3    0    0  0.51996544090E+01  0.16866914441E+02  0.39155593051E+01  0.18079292400E+02  0.51100000000E-03 0. -1.
        -11    1    3    3    0    0 -0.41194803593E+01 -0.41988212799E+01  0.19413331290E+02  0.20284911896E+02  0.51100000000E-03 0.  1.
        -12    1    3    3    0    0  0.20679562816E+02 -0.11339993651E+01 -0.30755249168E+01  0.20937744060E+02  0.00000000000E+00 0.  1.
</event>
<event>
 7    1  0.3223600E-013  0.5930194E+02  0.7816164E-02  0.1266605E+00
        -11   -1    0    0    0    0  0.00000000000E+00  0.00000000000E+00  0.45593999997E+02  0.45594000000E+02  0.51100000000E-03 0.  1.
         11   -1    0    0    0    0 -0.00000000000E+00 -0.00000000000E+00 -0.45593999997E+02  0.45594000000E+02  0.51100000000E-03 0. -1.
    9900012    2    1    2    0    0 -0.27408869967E+02  0.97499982993E+01  0.13054197401E+02  0.59301942083E+02  0.49999996453E+02 0.  0.
         12    1    1    2    0    0  0.27408869967E+02 -0.97499982993E+01 -0.13054197401E+02  0.31886057917E+02  0.00000000000E+00 0. -1.
         11    1    3    3    0    0 -0.15592371760E+02 -0.53220612057E+00 -0.64556229744E+01  0.16884323164E+02  0.51100000000E-03 0. -1.
        -11    1    3    3    0    0 -0.20334502798E+02 -0.29828197451E+01  0.53727603844E+01  0.21242781647E+02  0.51100000000E-03 0.  1.
        -12    1    3    3    0    0  0.85180045914E+01  0.13265024165E+02  0.14137059991E+02  0.21174837272E+02  0.00000000000E+00 0.  1.
</event>
<event>
 7    1  0.3223600E-013  0.5930196E+02  0.7816164E-02  0.1266605E+00
        -11   -1    0    0    0    0  0.00000000000E+00  0.00000000000E+00  0.45593999997E+02  0.45594000000E+02  0.51100000000E-03 0. -1.
         11   -1    0    0    0    0 -0.00000000000E+00 -0.00000000000E+00 -0.45593999997E+02  0.45594000000E+02  0.51100000000E-03 0.  1.
    9900012    2    1    2    0    0 -0.28979883459E+02 -0.98987669659E+01 -0.88825762348E+01  0.59301962408E+02  0.50000033522E+02 0.  0.
         12    1    1    2    0    0  0.28979883459E+02  0.98987669659E+01  0.88825762348E+01  0.31886037592E+02  0.00000000000E+00 0. -1.
         11    1    3    3    0    0 -0.30235609511E+01  0.84485827959E+01 -0.27156260268E+01  0.93752385070E+01  0.51100000000E-03 0. -1.
        -11    1    3    3    0    0  0.97846398843E+01 -0.35694737620E+01  0.14268447595E+01  0.10512668873E+02  0.51100000000E-03 0.  1.
        -12    1    3    3    0    0 -0.35740962392E+02 -0.14777876000E+02 -0.75937949675E+01  0.39414055028E+02  0.00000000000E+00 0.  1.
</event>
<event>
 7    1  0.3223600E-013  0.5930194E+02  0.7816164E-02  0.1266605E+00
        -11   -1    0    0    0    0  0.00000000000E+00  0.00000000000E+00  0.45593999997E+02  0.45594000000E+02  0.51100000000E-03 0.  1.
         11   -1    0    0    0    0 -0.00000000000E+00 -0.00000000000E+00 -0.45593999997E+02  0.45594000000E+02  0.51100000000E-03 0. -1.
    9900012    2    1    2    0    0 -0.54897391239E+01 -0.29781147452E+02  0.99833414377E+01  0.59301935874E+02  0.49999985129E+02 0.  0.
         12    1    1    2    0    0  0.54897391239E+01  0.29781147452E+02 -0.99833414377E+01  0.31886064126E+02  0.00000000000E+00 0. -1.
         11    1    3    3    0    0 -0.45360024622E+01 -0.14043582836E+02  0.94795339404E+01  0.17540213830E+02  0.51100000000E-03 0. -1.
        -11    1    3    3    0    0  0.74385744998E+01 -0.20231334692E+02  0.13662422571E+02  0.25520601184E+02  0.51100000000E-03 0.  1.
         12    1    3    3    0    0 -0.83923111615E+01  0.44937700763E+01 -0.13158615074E+02  0.16241120860E+02  0.00000000000E+00 0. -1.
</event>
<event>
 7    1  0.3223600E-013  0.5930196E+02  0.7816164E-02  0.1266605E+00
        -11   -1    0    0    0    0  0.00000000000E+00  0.00000000000E+00  0.45593999997E+02  0.45594000000E+02  0.51100000000E-03 0.  1.
         11   -1    0    0    0    0 -0.00000000000E+00 -0.00000000000E+00 -0.45593999997E+02  0.45594000000E+02  0.51100000000E-03 0. -1.
    9900012    2    1    2    0    0 -0.21681763803E+02 -0.10682689490E+02  0.20796656573E+02  0.59301958211E+02  0.50000025866E+02 0.  0.
         12    1    1    2    0    0  0.21681763803E+02  0.10682689490E+02 -0.20796656573E+02  0.31886041789E+02  0.00000000000E+00 0. -1.
         11    1    3    3    0    0  0.22065625473E+01  0.52671274915E+01  0.17313495794E+01  0.59673379253E+01  0.51100000000E-03 0. -1.
        -11    1    3    3    0    0 -0.24973805829E+02  0.35730518740E+01  0.22110404673E+02  0.33545903957E+02  0.51100000000E-03 0.  1.
         12    1    3    3    0    0  0.10854794781E+01 -0.19522868855E+02 -0.30450976785E+01  0.19788716328E+02  0.00000000000E+00 0. -1.
</event>
<event>
 7    1  0.3223600E-013  0.5930192E+02  0.7816164E-02  0.1266605E+00
        -11   -1    0    0    0    0  0.00000000000E+00  0.00000000000E+00  0.45593999997E+02  0.45594000000E+02  0.51100000000E-03 0. -1.
         11   -1    0    0    0    0 -0.00000000000E+00 -0.00000000000E+00 -0.45593999997E+02  0.45594000000E+02  0.51100000000E-03 0.  1.
    9900012    2    1    2    0    0  0.89432502396E+01  0.19666040361E+02 -0.23451802960E+02  0.59301922624E+02  0.49999960965E+02 0.  0.
         12    1    1    2    0    0 -0.89432502396E+01 -0.19666040361E+02  0.23451802960E+02  0.31886077376E+02  0.00000000000E+00 0. -1.
         11    1    3    3    0    0  0.12968643399E+01  0.61521576242E+01  0.16994253303E+01  0.65129829774E+01  0.51100000000E-03 0. -1.
        -11    1    3    3    0    0  0.13007220392E+02  0.21536274272E+02 -0.32182658070E+02  0.40849998440E+02  0.51100000000E-03 0.  1.
         12    1    3    3    0    0 -0.53608344926E+01 -0.80223915345E+01  0.70314297799E+01  0.11938941207E+02  0.00000000000E+00 0. -1.
</event>
<event>
 7    1  0.3223600E-013  0.5930194E+02  0.7816164E-02  0.1266605E+00
        -11   -1    0    0    0    0  0.00000000000E+00  0.00000000000E+00  0.45593999997E+02  0.45594000000E+02  0.51100000000E-03 0. -1.
         11   -1    0    0    0    0 -0.00000000000E+00 -0.00000000000E+00 -0.45593999997E+02  0.45594000000E+02  0.51100000000E-03 0.  1.
    9900012    2    1    2    0    0  0.77888399510E+01  0.29583037980E+02 -0.89943761350E+01  0.59301937748E+02  0.49999988546E+02 0.  0.
         12    1    1    2    0    0 -0.77888399510E+01 -0.29583037980E+02  0.89943761350E+01  0.31886062252E+02  0.00000000000E+00 0. -1.
         11    1    3    3    0    0  0.22208322446E+02  0.31294093478E+02  0.14548187721E+00  0.38373832721E+02  0.51100000000E-03 0. -1.
        -11    1    3    3    0    0 -0.44493828012E+01 -0.45675012599E+01  0.96388287431E+00  0.64488871542E+01  0.51100000000E-03 0.  1.
        -12    1    3    3    0    0 -0.99700996938E+01  0.28564457624E+01 -0.10103740886E+02  0.14479217872E+02  0.00000000000E+00 0.  1.
</event>
<event>
 7    1  0.3223600E-013  0.5930194E+02  0.7816164E-02  0.1266605E+00
        -11   -1    0    0    0    0  0.00000000000E+00  0.00000000000E+00  0.45593999997E+02  0.45594000000E+02  0.51100000000E-03 0. -1.
         11   -1    0    0    0    0 -0.00000000000E+00 -0.00000000000E+00 -0.45593999997E+02  0.45594000000E+02  0.51100000000E-03 0.  1.
    9900012    2    1    2    0    0 -0.16454537230E+02 -0.13158350870E+02 -0.23933797076E+02  0.59301942928E+02  0.49999997995E+02 0.  0.
         12    1    1    2    0    0  0.16454537230E+02  0.13158350870E+02  0.23933797076E+02  0.31886057072E+02  0.00000000000E+00 0. -1.
         11    1    3    3    0    0 -0.98132508901E+01 -0.86103444170E+01 -0.19076343216E+02  0.23115899177E+02  0.51100000000E-03 0. -1.
        -11    1    3    3    0    0 -0.19848873413E+02 -0.45396898318E+01 -0.91159424959E+01  0.22308898839E+02  0.51100000000E-03 0.  1.
         12    1    3    3    0    0  0.13207587073E+02 -0.83166216737E-02  0.42584886363E+01  0.13877144912E+02  0.00000000000E+00 0. -1.
</event>
<event>
 7    1  0.3223600E-013  0.5930195E+02  0.7816164E-02  0.1266605E+00
        -11   -1    0    0    0    0  0.00000000000E+00  0.00000000000E+00  0.45593999997E+02  0.45594000000E+02  0.51100000000E-03 0. -1.
         11   -1    0    0    0    0 -0.00000000000E+00 -0.00000000000E+00 -0.45593999997E+02  0.45594000000E+02  0.51100000000E-03 0.  1.
    9900012    2    1    2    0    0 -0.81207489463E+01  0.28804805011E+02  0.11002583961E+02  0.59301949617E+02  0.50000010194E+02 0.  0.
         12    1    1    2    0    0  0.81207489463E+01 -0.28804805011E+02 -0.11002583961E+02  0.31886050383E+02  0.00000000000E+00 0. -1.
         11    1    3    3    0    0  0.21379116090E+01  0.13765876437E+02 -0.14882873560E+02  0.20385532757E+02  0.51100000000E-03 0. -1.
        -11    1    3    3    0    0  0.11129892993E+01  0.94881547585E+01 -0.59095370640E+00  0.95714707567E+01  0.51100000000E-03 0.  1.
         12    1    3    3    0    0 -0.11371649855E+02  0.55507738158E+01  0.26476411227E+02  0.29344946104E+02  0.00000000000E+00 0. -1.
</event>
<event>
 7    1  0.3223600E-013  0.5930180E+02  0.7816164E-02  0.1266605E+00
        -11   -1    0    0    0    0  0.00000000000E+00  0.00000000000E+00  0.45593999997E+02  0.45594000000E+02  0.51100000000E-03 0. -1.
         11   -1    0    0    0    0 -0.00000000000E+00 -0.00000000000E+00 -0.45593999997E+02  0.45594000000E+02  0.51100000000E-03 0.  1.
    9900012    2    1    2    0    0  0.28855081012E+00  0.29566334723E+02 -0.11936434098E+02  0.59301798133E+02  0.49999733923E+02 0.  0.
         12    1    1    2    0    0 -0.28855081012E+00 -0.29566334723E+02  0.11936434098E+02  0.31886201867E+02  0.00000000000E+00 0. -1.
         11    1    3    3    0    0 -0.21813786626E+01 -0.38041661642E+01  0.11332204701E+02  0.12151088705E+02  0.51100000000E-03 0. -1.
        -11    1    3    3    0    0  0.63598135298E+01  0.21859725007E-01 -0.81267221229E+01  0.10319463102E+02  0.51100000000E-03 0.  1.
        -12    1    3    3    0    0 -0.38898840570E+01  0.33348641162E+02 -0.15141916676E+02  0.36831246326E+02  0.00000000000E+00 0.  1.
</event>
<event>
 7    1  0.3223600E-013  0.5930194E+02  0.7816164E-02  0.1266605E+00
        -11   -1    0    0    0    0  0.00000000000E+00  0.00000000000E+00  0.45593999997E+02  0.45594000000E+02  0.51100000000E-03 0. -1.
         11   -1    0    0    0    0 -0.00000000000E+00 -0.00000000000E+00 -0.45593999997E+02  0.45594000000E+02  0.51100000000E-03 0.  1.
    9900012    2    1    2    0    0  0.14928538494E+02 -0.28175074551E+02  0.15826900411E+00  0.59301935072E+02  0.49999983667E+02 0.  0.
         12    1    1    2    0    0 -0.14928538494E+02  0.28175074551E+02 -0.15826900411E+00  0.31886064928E+02  0.00000000000E+00 0. -1.
         11    1    3    3    0    0  0.17637922404E+02 -0.85578317549E+01 -0.52031521022E+01  0.20283135437E+02  0.51100000000E-03 0. -1.
        -11    1    3    3    0    0 -0.71966696560E+01 -0.12322688736E+02 -0.12653181662E+02  0.19072066439E+02  0.51100000000E-03 0.  1.
         12    1    3    3    0    0  0.44872857459E+01 -0.72945540593E+01  0.18014602769E+02  0.19946733196E+02  0.00000000000E+00 0. -1.
</event>
<event>
 7    1  0.3223600E-013  0.5930194E+02  0.7816164E-02  0.1266605E+00
        -11   -1    0    0    0    0  0.00000000000E+00  0.00000000000E+00  0.45593999997E+02  0.45594000000E+02  0.51100000000E-03 0.  1.
         11   -1    0    0    0    0 -0.00000000000E+00 -0.00000000000E+00 -0.45593999997E+02  0.45594000000E+02  0.51100000000E-03 0. -1.
    9900012    2    1    2    0    0 -0.72522218867E+01 -0.89232262612E+01  0.29740580078E+02  0.59301940466E+02  0.49999993504E+02 0.  0.
         12    1    1    2    0    0  0.72522218867E+01  0.89232262612E+01 -0.29740580078E+02  0.31886059534E+02  0.00000000000E+00 0. -1.
         11    1    3    3    0    0 -0.98171090408E+01 -0.21178218177E+01 -0.15086599236E+01  0.10155631649E+02  0.51100000000E-03 0. -1.
        -11    1    3    3    0    0 -0.15681696500E+02 -0.97536061714E+01  0.10064843791E+02  0.21032106867E+02  0.51100000000E-03 0.  1.
        -12    1    3    3    0    0  0.18246583654E+02  0.29482017280E+01  0.21184396211E+02  0.28114201950E+02  0.00000000000E+00 0.  1.
</event>
<event>
 7    1  0.3223600E-013  0.5930193E+02  0.7816164E-02  0.1266605E+00
        -11   -1    0    0    0    0  0.00000000000E+00  0.00000000000E+00  0.45593999997E+02  0.45594000000E+02  0.51100000000E-03 0.  1.
         11   -1    0    0    0    0 -0.00000000000E+00 -0.00000000000E+00 -0.45593999997E+02  0.45594000000E+02  0.51100000000E-03 0. -1.
    9900012    2    1    2    0    0 -0.12361857181E+02  0.18708523125E+02 -0.22669292599E+02  0.59301934432E+02  0.49999982500E+02 0.  0.
         12    1    1    2    0    0  0.12361857181E+02 -0.18708523125E+02  0.22669292599E+02  0.31886065568E+02  0.00000000000E+00 0. -1.
         11    1    3    3    0    0 -0.38214652808E+01 -0.35727157806E+01  0.67822714284E+01  0.85654597618E+01  0.51100000000E-03 0. -1.
        -11    1    3    3    0    0  0.18131816091E+01  0.57097210324E+01  0.71000479077E+01  0.92897374758E+01  0.51100000000E-03 0.  1.
         12    1    3    3    0    0 -0.10353573510E+02  0.16571517873E+02 -0.36551611935E+02  0.41446737194E+02  0.00000000000E+00 0. -1.
</event>
<event>
 7    1  0.3223600E-013  0.5930197E+02  0.7816164E-02  0.1266605E+00
        -11   -1    0    0    0    0  0.00000000000E+00  0.00000000000E+00  0.45593999997E+02  0.45594000000E+02  0.51100000000E-03 0.  1.
         11   -1    0    0    0    0 -0.00000000000E+00 -0.00000000000E+00 -0.45593999997E+02  0.45594000000E+02  0.51100000000E-03 0. -1.
    9900012    2    1    2    0    0  0.19251281244E+02  0.56602087841E+01  0.24780422159E+02  0.59301966766E+02  0.50000041470E+02 0.  0.
         12    1    1    2    0    0 -0.19251281244E+02 -0.56602087841E+01 -0.24780422159E+02  0.31886033234E+02  0.00000000000E+00 0. -1.
         11    1    3    3    0    0  0.20708909782E+01 -0.26708625158E+01 -0.10162008681E+01  0.35291302735E+01  0.51100000000E-03 0. -1.
        -11    1    3    3    0    0  0.50626741110E+01 -0.14055458247E+02  0.26373144559E+02  0.30310548162E+02  0.51100000000E-03 0.  1.
         12    1    3    3    0    0  0.12117716154E+02  0.22386529547E+02 -0.57652153173E+00  0.25462288331E+02  0.00000000000E+00 0. -1.
</event>
<event>
 7    1  0.3223600E-013  0.5930198E+02  0.7816164E-02  0.1266605E+00
        -11   -1    0    0    0    0  0.00000000000E+00  0.00000000000E+00  0.45593999997E+02  0.45594000000E+02  0.51100000000E-03 0. -1.
         11   -1    0    0    0    0 -0.00000000000E+00 -0.00000000000E+00 -0.45593999997E+02  0.45594000000E+02  0.51100000000E-03 0.  1.
    9900012    2    1    2    0    0 -0.20234979980E+02  0.10702821584E+02 -0.22197148534E+02  0.59301981000E+02  0.50000067428E+02 0.  0.
         12    1    1    2    0    0  0.20234979980E+02 -0.10702821584E+02  0.22197148534E+02  0.31886019000E+02  0.00000000000E+00 0. -1.
         11    1    3    3    0    0 -0.31733800331E+00 -0.86669139226E+01 -0.77226867192E+01  0.11612751215E+02  0.51100000000E-03 0. -1.
        -11    1    3    3    0    0  0.87721286122E+01 -0.20696298308E+01 -0.61729655579E+01  0.10924244233E+02  0.51100000000E-03 0.  1.
         12    1    3    3    0    0 -0.28689770589E+02  0.21439365338E+02 -0.83014962566E+01  0.36764985552E+02  0.00000000000E+00 0. -1.
</event>
<event>
 7    1  0.3223600E-013  0.5930199E+02  0.7816164E-02  0.1266605E+00
        -11   -1    0    0    0    0  0.00000000000E+00  0.00000000000E+00  0.45593999997E+02  0.45594000000E+02  0.51100000000E-03 0.  1.
         11   -1    0    0    0    0 -0.00000000000E+00 -0.00000000000E+00 -0.45593999997E+02  0.45594000000E+02  0.51100000000E-03 0. -1.
    9900012    2    1    2    0    0  0.29211508142E+02  0.51632456952E+01  0.11693852670E+02  0.59301992030E+02  0.50000087544E+02 0.  0.
         12    1    1    2    0    0 -0.29211508142E+02 -0.51632456952E+01 -0.11693852670E+02  0.31886007970E+02  0.00000000000E+00 0. -1.
         11    1    3    3    0    0  0.22536149679E+02 -0.13159221892E+02  0.73889555080E+01  0.27122681042E+02  0.51100000000E-03 0. -1.
        -11    1    3    3    0    0  0.15225624164E+02  0.84514359073E+01  0.71314660714E+01  0.18817656833E+02  0.51100000000E-03 0.  1.
         12    1    3    3    0    0 -0.85502657008E+01  0.98710316795E+01 -0.28265689095E+01  0.13361654156E+02  0.00000000000E+00 0. -1.
</event>
<event>
 7    1  0.3223600E-013  0.5930194E+02  0.7816164E-02  0.1266605E+00
        -11   -1    0    0    0    0  0.00000000000E+00  0.00000000000E+00  0.45593999997E+02  0.45594000000E+02  0.51100000000E-03 0. -1.
         11   -1    0    0    0    0 -0.00000000000E+00 -0.00000000000E+00 -0.45593999997E+02  0.45594000000E+02  0.51100000000E-03 0.  1.
    9900012    2    1    2    0    0 -0.24626764886E+02  0.12038591176E+01  0.20218658278E+02  0.59301937714E+02  0.49999988486E+02 0.  0.
         12    1    1    2    0    0  0.24626764886E+02 -0.12038591176E+01 -0.20218658278E+02  0.31886062286E+02  0.00000000000E+00 0. -1.
         11    1    3    3    0    0 -0.16641964471E+02 -0.99364753198E+01  0.94447795288E+01  0.21561363218E+02  0.51100000000E-03 0. -1.
        -11    1    3    3    0    0 -0.18828018627E+02  0.11553198977E+01  0.12893206609E+02  0.22848716078E+02  0.51100000000E-03 0.  1.
        -12    1    3    3    0    0  0.10843218213E+02  0.99850145396E+01 -0.21193278595E+01  0.14891858418E+02  0.00000000000E+00 0.  1.
</event>
<event>
 7    1  0.3223600E-013  0.5930196E+02  0.7816164E-02  0.1266605E+00
        -11   -1    0    0    0    0  0.00000000000E+00  0.00000000000E+00  0.45593999997E+02  0.45594000000E+02  0.51100000000E-03 0.  1.
         11   -1    0    0    0    0 -0.00000000000E+00 -0.00000000000E+00 -0.45593999997E+02  0.45594000000E+02  0.51100000000E-03 0. -1.
    9900012    2    1    2    0    0  0.21434526050E+02  0.14042166690E+02  0.18976246945E+02  0.59301963864E+02  0.50000036176E+02 0.  0.
         12    1    1    2    0    0 -0.21434526050E+02 -0.14042166690E+02 -0.18976246945E+02  0.31886036136E+02  0.00000000000E+00 0. -1.
         11    1    3    3    0    0 -0.12145606839E+01  0.62614067632E+01 -0.19466573551E+01  0.66685716183E+01  0.51100000000E-03 0. -1.
        -11    1    3    3    0    0 -0.83890050071E+00  0.18965904694E+02  0.18496432418E+02  0.26505231698E+02  0.51100000000E-03 0.  1.
         12    1    3    3    0    0  0.23487987235E+02 -0.11185144767E+02  0.24264718819E+01  0.26128160547E+02  0.00000000000E+00 0. -1.
</event>
<event>
 7    1  0.3223600E-013  0.5930194E+02  0.7816164E-02  0.1266605E+00
        -11   -1    0    0    0    0  0.00000000000E+00  0.00000000000E+00  0.45593999997E+02  0.45594000000E+02  0.51100000000E-03 0.  1.
         11   -1    0    0    0    0 -0.00000000000E+00 -0.00000000000E+00 -0.45593999997E+02  0.45594000000E+02  0.51100000000E-03 0. -1.
    9900012    2    1    2    0    0  0.22822823616E+02 -0.21397052738E+02  0.61648835889E+01  0.59301938260E+02  0.49999989480E+02 0.  0.
         12    1    1    2    0    0 -0.22822823616E+02  0.21397052738E+02 -0.61648835889E+01  0.31886061740E+02  0.00000000000E+00 0. -1.
         11    1    3    3    0    0  0.21745574317E+02 -0.16304064655E+02 -0.12619591984E+01  0.27208180166E+02  0.51100000000E-03 0. -1.
        -11    1    3    3    0    0  0.10348514321E+02  0.45553218702E+01  0.13320734103E+02  0.17472397182E+02  0.51100000000E-03 0.  1.
         12    1    3    3    0    0 -0.92712650226E+01 -0.96483099531E+01 -0.58938913153E+01  0.14621360912E+02  0.00000000000E+00 0. -1.
</event>
<event>
 7    1  0.3223600E-013  0.5930195E+02  0.7816164E-02  0.1266605E+00
        -11   -1    0    0    0    0  0.00000000000E+00  0.00000000000E+00  0.45593999997E+02  0.45594000000E+02  0.51100000000E-03 0.  1.
         11   -1    0    0    0    0 -0.00000000000E+00 -0.00000000000E+00 -0.45593999997E+02  0.45594000000E+02  0.51100000000E-03 0. -1.
    9900012    2    1    2    0    0 -0.16014624886E+02 -0.18220872229E+02  0.20694241036E+02  0.59301952784E+02  0.50000015969E+02 0.  0.
         12    1    1    2    0    0  0.16014624886E+02  0.18220872229E+02 -0.20694241036E+02  0.31886047216E+02  0.00000000000E+00 0. -1.
         11    1    3    3    0    0  0.89937472149E+01  0.67980385664E+01 -0.15481766616E+01  0.11379704238E+02  0.51100000000E-03 0. -1.
        -11    1    3    3    0    0 -0.11080112011E+02  0.18991980850E+01  0.18513466460E+01  0.11393126007E+02  0.51100000000E-03 0.  1.
        -12    1    3    3    0    0 -0.13928260089E+02 -0.26918108880E+02  0.20391071052E+02  0.36529122539E+02  0.00000000000E+00 0.  1.
</event>
<event>
 7    1  0.3223600E-013  0.5930192E+02  0.7816164E-02  0.1266605E+00
        -11   -1    0    0    0    0  0.00000000000E+00  0.00000000000E+00  0.45593999997E+02  0.45594000000E+02  0.51100000000E-03 0.  1.
         11   -1    0    0    0    0 -0.00000000000E+00 -0.00000000000E+00 -0.45593999997E+02  0.45594000000E+02  0.51100000000E-03 0. -1.
    9900012    2    1    2    0    0  0.18976602430E+02 -0.99444494684E+01  0.23616072590E+02  0.59301915267E+02  0.49999947547E+02 0.  0.
         12    1    1    2    0    0 -0.18976602430E+02  0.99444494684E+01 -0.23616072590E+02  0.31886084733E+02  0.00000000000E+00 0. -1.
         11    1    3    3    0    0 -0.10803269506E+02 -0.57267414601E+01 -0.80549212165E+00  0.12253775646E+02  0.51100000000E-03 0. -1.
        -11    1    3    3    0    0  0.32714929627E+01 -0.79909538925E+00 -0.57976908425E+01  0.67048071570E+01  0.51100000000E-03 0.  1.
        -12    1    3    3    0    0  0.26508378974E+02 -0.34186126190E+01  0.30219255554E+02  0.40343332464E+02  0.00000000000E+00 0.  1.
</event>
<event>
 7    1  0.3223600E-013  0.5930196E+02  0.7816164E-02  0.1266605E+00
        -11   -1    0    0    0    0  0.00000000000E+00  0.00000000000E+00  0.45593999997E+02  0.45594000000E+02  0.51100000000E-03 0.  1.
         11   -1    0    0    0    0 -0.00000000000E+00 -0.00000000000E+00 -0.45593999997E+02  0.45594000000E+02  0.51100000000E-03 0. -1.
    9900012    2    1    2    0    0 -0.15317298919E+02 -0.48407880991E+01  0.27543903387E+02  0.59301960901E+02  0.50000030773E+02 0.  0.
         12    1    1    2    0    0  0.15317298919E+02  0.48407880991E+01 -0.27543903387E+02  0.31886039099E+02  0.00000000000E+00 0. -1.
         11    1    3    3    0    0  0.16708517036E+01 -0.34351223407E+01  0.13104118618E+02  0.13649532443E+02  0.51100000000E-03 0. -1.
        -11    1    3    3    0    0 -0.15321134525E+02 -0.18119239898E+02  0.35367653005E+00  0.23731184230E+02  0.51100000000E-03 0.  1.
         12    1    3    3    0    0 -0.16670160981E+01  0.16713574139E+02  0.14086108240E+02  0.21921244228E+02  0.00000000000E+00 0. -1.
</event>
<event>
 7    1  0.3223600E-013  0.5930191E+02  0.7816164E-02  0.1266605E+00
        -11   -1    0    0    0    0  0.00000000000E+00  0.00000000000E+00  0.45593999997E+02  0.45594000000E+02  0.51100000000E-03 0. -1.
         11   -1    0    0    0    0 -0.00000000000E+00 -0.00000000000E+00 -0.45593999997E+02  0.45594000000E+02  0.51100000000E-03 0.  1.
    9900012    2    1    2    0    0  0.19258520572E+02  0.57647813713E+01 -0.24750741366E+02  0.59301913426E+02  0.49999944189E+02 0.  0.
         12    1    1    2    0    0 -0.19258520572E+02 -0.57647813713E+01  0.24750741366E+02  0.31886086574E+02  0.00000000000E+00 0. -1.
         11    1    3    3    0    0  0.96875374145E+01  0.14504383440E+02  0.66422792272E+01  0.18664013334E+02  0.51100000000E-03 0. -1.
        -11    1    3    3    0    0 -0.38673180836E+01  0.51508322438E+01 -0.69231622060E+01  0.94560772604E+01  0.51100000000E-03 0.  1.
        -12    1    3    3    0    0  0.13438301241E+02 -0.13890434312E+02 -0.24469858387E+02  0.31181822832E+02  0.00000000000E+00 0.  1.
</event>
<event>
 7    1  0.3223600E-013  0.5930192E+02  0.7816164E-02  0.1266605E+00
        -11   -1    0    0    0    0  0.00000000000E+00  0.00000000000E+00  0.45593999997E+02  0.45594000000E+02  0.51100000000E-03 0. -1.
         11   -1    0    0    0    0 -0.00000000000E+00 -0.00000000000E+00 -0.45593999997E+02  0.45594000000E+02  0.51100000000E-03 0.  1.
    9900012    2    1    2    0    0  0.22063809715E+02  0.18991587626E+02 -0.13008848495E+02  0.59301917787E+02  0.49999952144E+02 0.  0.
         12    1    1    2    0    0 -0.22063809715E+02 -0.18991587626E+02  0.13008848495E+02  0.31886082213E+02  0.00000000000E+00 0. -1.
         11    1    3    3    0    0  0.90058328317E+01  0.70815602634E+01 -0.29433561826E+01  0.11828646019E+02  0.51100000000E-03 0. -1.
        -11    1    3    3    0    0 -0.66688955311E+01 -0.26875320177E+01 -0.19805707422E+02  0.21070430530E+02  0.51100000000E-03 0.  1.
         12    1    3    3    0    0  0.19726872415E+02  0.14597559380E+02  0.97402151096E+01  0.26402841239E+02  0.00000000000E+00 0. -1.
</event>
<event>
 7    1  0.3223600E-013  0.5930195E+02  0.7816164E-02  0.1266605E+00
        -11   -1    0    0    0    0  0.00000000000E+00  0.00000000000E+00  0.45593999997E+02  0.45594000000E+02  0.51100000000E-03 0.  1.
         11   -1    0    0    0    0 -0.00000000000E+00 -0.00000000000E+00 -0.45593999997E+02  0.45594000000E+02  0.51100000000E-03 0. -1.
    9900012    2    1    2    0    0  0.19860554848E+02  0.17193178507E+02  0.18074105191E+02  0.59301948120E+02  0.50000007463E+02 0.  0.
         12    1    1    2    0    0 -0.19860554848E+02 -0.17193178507E+02 -0.18074105191E+02  0.31886051880E+02  0.00000000000E+00 0. -1.
         11    1    3    3    0    0 -0.77621949226E+01  0.11370175069E+02 -0.28482763417E+01  0.14058635406E+02  0.51100000000E-03 0. -1.
        -11    1    3    3    0    0 -0.46812718879E+01  0.61962167985E+01  0.48968776363E+01  0.91807853666E+01  0.51100000000E-03 0.  1.
        -12    1    3    3    0    0  0.32304021659E+02 -0.37321336005E+00  0.16025503896E+02  0.36062527347E+02  0.00000000000E+00 0.  1.
</event>
<event>
 7    1  0.3223600E-013  0.5930194E+02  0.7816164E-02  0.1266605E+00
        -11   -1    0    0    0    0  0.00000000000E+00  0.00000000000E+00  0.45593999997E+02  0.45594000000E+02  0.51100000000E-03 0. -1.
         11   -1    0    0    0    0 -0.00000000000E+00 -0.00000000000E+00 -0.45593999997E+02  0.45594000000E+02  0.51100000000E-03 0.  1.
    9900012    2    1    2    0    0 -0.20684187050E+02  0.55554982719E+01 -0.23622486534E+02  0.59301936822E+02  0.49999986858E+02 0.  0.
         12    1    1    2    0    0  0.20684187050E+02 -0.55554982719E+01  0.23622486534E+02  0.31886063178E+02  0.00000000000E+00 0. -1.
         11    1    3    3    0    0 -0.14849107383E+01  0.80073283703E+01 -0.11789284194E+02  0.14328624833E+02  0.51100000000E-03 0. -1.
        -11    1    3    3    0    0 -0.97198697425E+01 -0.24682293777E+01 -0.26034339726E+02  0.27899011977E+02  0.51100000000E-03 0.  1.
         12    1    3    3    0    0 -0.94794065692E+01  0.16399279252E-01  0.14201137386E+02  0.17074300012E+02  0.00000000000E+00 0. -1.
</event>
<event>
 7    1  0.3223600E-013  0.5930190E+02  0.7816164E-02  0.1266605E+00
        -11   -1    0    0    0    0  0.00000000000E+00  0.00000000000E+00  0.45593999997E+02  0.45594000000E+02  0.51100000000E-03 0. -1.
         11   -1    0    0    0    0 -0.00000000000E+00 -0.00000000000E+00 -0.45593999997E+02  0.45594000000E+02  0.51100000000E-03 0.  1.
    9900012    2    1    2    0    0 -0.27530348740E+02  0.99146235987E+01  0.12668998225E+02  0.59301899911E+02  0.49999919541E+02 0.  0.
         12    1    1    2    0    0  0.27530348740E+02 -0.99146235987E+01 -0.12668998225E+02  0.31886100089E+02  0.00000000000E+00 0. -1.
         11    1    3    3    0    0 -0.20396473201E+02  0.11659743557E+02  0.28982240443E+01  0.23672039239E+02  0.51100000000E-03 0. -1.
        -11    1    3    3    0    0 -0.19480540065E+01  0.15621444628E+02  0.18514786982E+01  0.15850943830E+02  0.51100000000E-03 0.  1.
        -12    1    3    3    0    0 -0.51858215329E+01 -0.17366564586E+02  0.79192954824E+01  0.19778916842E+02  0.00000000000E+00 0.  1.
</event>
<event>
 7    1  0.3223600E-013  0.5930193E+02  0.7816164E-02  0.1266605E+00
        -11   -1    0    0    0    0  0.00000000000E+00  0.00000000000E+00  0.45593999997E+02  0.45594000000E+02  0.51100000000E-03 0.  1.
         11   -1    0    0    0    0 -0.00000000000E+00 -0.00000000000E+00 -0.45593999997E+02  0.45594000000E+02  0.51100000000E-03 0. -1.
    9900012    2    1    2    0    0 -0.29746426984E+02  0.85899682723E+01  0.76212687190E+01  0.59301933919E+02  0.49999981564E+02 0.  0.
         12    1    1    2    0    0  0.29746426984E+02 -0.85899682723E+01 -0.76212687190E+01  0.31886066081E+02  0.00000000000E+00 0. -1.
         11    1    3    3    0    0 -0.16794373007E+02 -0.10819502298E+02 -0.66325775856E+01  0.21050028037E+02  0.51100000000E-03 0. -1.
        -11    1    3    3    0    0 -0.10667625059E+02  0.34052684662E+00  0.15708787238E+02  0.18991581811E+02  0.51100000000E-03 0.  1.
        -12    1    3    3    0    0 -0.22844289179E+01  0.19068943723E+02 -0.14549409334E+01  0.19260324071E+02  0.00000000000E+00 0.  1.
</event>
<event>
 7    1  0.3223600E-013  0.5930204E+02  0.7816164E-02  0.1266604E+00
        -11   -1    0    0    0    0  0.00000000000E+00  0.00000000000E+00  0.45593999997E+02  0.45594000000E+02  0.51100000000E-03 0.  1.
         11   -1    0    0    0    0 -0.00000000000E+00 -0.00000000000E+00 -0.45593999997E+02  0.45594000000E+02  0.51100000000E-03 0. -1.
    9900012    2    1    2    0    0  0.12477918597E+02  0.25644769214E+02  0.14260489378E+02  0.59302043877E+02  0.50000182101E+02 0.  0.
         12    1    1    2    0    0 -0.12477918597E+02 -0.25644769214E+02 -0.14260489378E+02  0.31885956123E+02  0.00000000000E+00 0. -1.
         11    1    3    3    0    0  0.13787266409E+01  0.27240005052E+02  0.96709105491E+01  0.28938646711E+02  0.51100000000E-03 0. -1.
        -11    1    3    3    0    0  0.14620144785E+02  0.42321773338E+01  0.12665176811E+02  0.19800673282E+02  0.51100000000E-03 0.  1.
         12    1    3    3    0    0 -0.35209528294E+01 -0.58274131712E+01 -0.80755979814E+01  0.10562723884E+02  0.00000000000E+00 0. -1.
</event>
<event>
 7    1  0.3223600E-013  0.5930192E+02  0.7816164E-02  0.1266605E+00
        -11   -1    0    0    0    0  0.00000000000E+00  0.00000000000E+00  0.45593999997E+02  0.45594000000E+02  0.51100000000E-03 0.  1.
         11   -1    0    0    0    0 -0.00000000000E+00 -0.00000000000E+00 -0.45593999997E+02  0.45594000000E+02  0.51100000000E-03 0. -1.
    9900012    2    1    2    0    0  0.18843082483E+02 -0.25419726578E+02  0.39367374587E+01  0.59301919047E+02  0.49999954440E+02 0.  0.
         12    1    1    2    0    0 -0.18843082483E+02  0.25419726578E+02 -0.39367374587E+01  0.31886080953E+02  0.00000000000E+00 0. -1.
         11    1    3    3    0    0  0.17600585550E+02 -0.19318403070E+02 -0.54215183099E+01  0.26690338512E+02  0.51100000000E-03 0.  1.
        -11    1    3    3    0    0  0.13458066146E+02  0.53339123755E+01  0.50626624290E+01  0.15336254978E+02  0.51100000000E-03 0. -1.
         12    1    3    3    0    0 -0.12215569213E+02 -0.11435235883E+02  0.42955933396E+01  0.17275325556E+02  0.00000000000E+00 0. -1.
</event>
<event>
 7    1  0.3223600E-013  0.5930193E+02  0.7816164E-02  0.1266605E+00
        -11   -1    0    0    0    0  0.00000000000E+00  0.00000000000E+00  0.45593999997E+02  0.45594000000E+02  0.51100000000E-03 0.  1.
         11   -1    0    0    0    0 -0.00000000000E+00 -0.00000000000E+00 -0.45593999997E+02  0.45594000000E+02  0.51100000000E-03 0. -1.
    9900012    2    1    2    0    0  0.28190816011E+01  0.31704238139E+02  0.19014268424E+01  0.59301931551E+02  0.49999977246E+02 0.  0.
         12    1    1    2    0    0 -0.28190816011E+01 -0.31704238139E+02 -0.19014268424E+01  0.31886068449E+02  0.00000000000E+00 0. -1.
         11    1    3    3    0    0  0.69390286009E+01  0.58193202613E+01  0.10814912641E+01  0.91205389010E+01  0.51100000000E-03 0. -1.
        -11    1    3    3    0    0  0.90666099531E+01  0.32413210170E+02 -0.56135909472E+01  0.34122309611E+02  0.51100000000E-03 0.  1.
        -12    1    3    3    0    0 -0.13186556953E+02 -0.65282922920E+01  0.64335265255E+01  0.16059083040E+02  0.00000000000E+00 0.  1.
</event>
<event>
 7    1  0.3223600E-013  0.5930197E+02  0.7816164E-02  0.1266605E+00
        -11   -1    0    0    0    0  0.00000000000E+00  0.00000000000E+00  0.45593999997E+02  0.45594000000E+02  0.51100000000E-03 0.  1.
         11   -1    0    0    0    0 -0.00000000000E+00 -0.00000000000E+00 -0.45593999997E+02  0.45594000000E+02  0.51100000000E-03 0. -1.
    9900012    2    1    2    0    0  0.37219261186E+01  0.27523244293E+02  0.15663243942E+02  0.59301969811E+02  0.50000047023E+02 0.  0.
         12    1    1    2    0    0 -0.37219261186E+01 -0.27523244293E+02 -0.15663243942E+02  0.31886030189E+02  0.00000000000E+00 0. -1.
         11    1    3    3    0    0 -0.99608972819E+01  0.23459292886E+02 -0.28521508744E+01  0.25645519341E+02  0.51100000000E-03 0. -1.
        -11    1    3    3    0    0  0.21207043648E+00  0.12190952990E+02  0.62098580650E+01  0.13683078825E+02  0.51100000000E-03 0.  1.
         12    1    3    3    0    0  0.13470752964E+02 -0.81270015835E+01  0.12305536751E+02  0.19973371646E+02  0.00000000000E+00 0. -1.
</event>
<event>
 7    1  0.3223600E-013  0.5930192E+02  0.7816164E-02  0.1266605E+00
        -11   -1    0    0    0    0  0.00000000000E+00  0.00000000000E+00  0.45593999997E+02  0.45594000000E+02  0.51100000000E-03 0.  1.
         11   -1    0    0    0    0 -0.00000000000E+00 -0.00000000000E+00 -0.45593999997E+02  0.45594000000E+02  0.51100000000E-03 0. -1.
    9900012    2    1    2    0    0  0.13819745960E+02 -0.16121903345E+01  0.28690375802E+02  0.59301918401E+02  0.49999953263E+02 0.  0.
         12    1    1    2    0    0 -0.13819745960E+02  0.16121903345E+01 -0.28690375802E+02  0.31886081599E+02  0.00000000000E+00 0. -1.
         11    1    3    3    0    0  0.12170178142E+02 -0.18269824945E+02  0.13514835029E+02  0.25778877121E+02  0.51100000000E-03 0. -1.
        -11    1    3    3    0    0  0.56384875625E+01 -0.23614338651E+01  0.12489690988E+02  0.13905441134E+02  0.51100000000E-03 0.  1.
         12    1    3    3    0    0 -0.39889197441E+01  0.19019068476E+02  0.26858497857E+01  0.19617600146E+02  0.00000000000E+00 0. -1.
</event>
<event>
 7    1  0.3223600E-013  0.5930194E+02  0.7816164E-02  0.1266605E+00
        -11   -1    0    0    0    0  0.00000000000E+00  0.00000000000E+00  0.45593999997E+02  0.45594000000E+02  0.51100000000E-03 0.  1.
         11   -1    0    0    0    0 -0.00000000000E+00 -0.00000000000E+00 -0.45593999997E+02  0.45594000000E+02  0.51100000000E-03 0. -1.
    9900012    2    1    2    0    0  0.14926201972E+02 -0.20976593514E+01 -0.28098555596E+02  0.59301944950E+02  0.50000001682E+02 0.  0.
         12    1    1    2    0    0 -0.14926201972E+02  0.20976593514E+01  0.28098555596E+02  0.31886055050E+02  0.00000000000E+00 0. -1.
         11    1    3    3    0    0 -0.24810235379E+00  0.53293264747E+01 -0.18820479000E+01  0.56573297598E+01  0.51100000000E-03 0. -1.
        -11    1    3    3    0    0  0.28196776961E+02 -0.11544833922E+02 -0.92051733496E+01  0.31828864854E+02  0.51100000000E-03 0.  1.
         12    1    3    3    0    0 -0.13022472635E+02  0.41178480958E+01 -0.17011334346E+02  0.21815750336E+02  0.00000000000E+00 0. -1.
</event>
<event>
 7    1  0.3223600E-013  0.5930194E+02  0.7816164E-02  0.1266605E+00
        -11   -1    0    0    0    0  0.00000000000E+00  0.00000000000E+00  0.45593999997E+02  0.45594000000E+02  0.51100000000E-03 0.  1.
         11   -1    0    0    0    0 -0.00000000000E+00 -0.00000000000E+00 -0.45593999997E+02  0.45594000000E+02  0.51100000000E-03 0. -1.
    9900012    2    1    2    0    0 -0.69773072226E+01 -0.30284045429E+02  0.71354602910E+01  0.59301936944E+02  0.49999987081E+02 0.  0.
         12    1    1    2    0    0  0.69773072226E+01  0.30284045429E+02 -0.71354602910E+01  0.31886063056E+02  0.00000000000E+00 0. -1.
         11    1    3    3    0    0  0.81783555190E+00  0.91565208253E+00 -0.13889523722E+02  0.13943677535E+02  0.51100000000E-03 0. -1.
        -11    1    3    3    0    0 -0.60580679451E+01 -0.76598307935E+00  0.12168233329E+02  0.13614434249E+02  0.51100000000E-03 0.  1.
        -12    1    3    3    0    0 -0.17370748293E+01 -0.30433714432E+02  0.88567506840E+01  0.31743825160E+02  0.00000000000E+00 0.  1.
</event>
<event>
 7    1  0.3223600E-013  0.5930169E+02  0.7816164E-02  0.1266606E+00
        -11   -1    0    0    0    0  0.00000000000E+00  0.00000000000E+00  0.45593999997E+02  0.45594000000E+02  0.51100000000E-03 0.  1.
         11   -1    0    0    0    0 -0.00000000000E+00 -0.00000000000E+00 -0.45593999997E+02  0.45594000000E+02  0.51100000000E-03 0. -1.
    9900012    2    1    2    0    0 -0.98486682564E+01  0.91577962900E+01  0.28911508686E+02  0.59301688928E+02  0.49999534757E+02 0.  0.
         12    1    1    2    0    0  0.98486682564E+01 -0.91577962900E+01 -0.28911508686E+02  0.31886311072E+02  0.00000000000E+00 0. -1.
         11    1    3    3    0    0 -0.41605191186E+01 -0.12306833785E+02  0.41891419892E+01  0.13649798094E+02  0.51100000000E-03 0.  1.
        -11    1    3    3    0    0  0.61210925471E+01 -0.59447507027E+01  0.55923156449E+01  0.10202050256E+02  0.51100000000E-03 0. -1.
        -12    1    3    3    0    0 -0.11809241685E+02  0.27409380777E+02  0.19130051052E+02  0.35449840578E+02  0.00000000000E+00 0.  1.
</event>
<event>
 7    1  0.3223600E-013  0.5930184E+02  0.7816164E-02  0.1266605E+00
        -11   -1    0    0    0    0  0.00000000000E+00  0.00000000000E+00  0.45593999997E+02  0.45594000000E+02  0.51100000000E-03 0.  1.
         11   -1    0    0    0    0 -0.00000000000E+00 -0.00000000000E+00 -0.45593999997E+02  0.45594000000E+02  0.51100000000E-03 0. -1.
    9900012    2    1    2    0    0  0.13860893280E+02  0.26992663160E+02 -0.97978931835E+01  0.59301844104E+02  0.49999817763E+02 0.  0.
         12    1    1    2    0    0 -0.13860893280E+02 -0.26992663160E+02  0.97978931835E+01  0.31886155896E+02  0.00000000000E+00 0. -1.
         11    1    3    3    0    0  0.14250917428E+02 -0.17324728700E+00  0.49231491731E+01  0.15078330816E+02  0.51100000000E-03 0. -1.
        -11    1    3    3    0    0  0.33244902599E+01  0.29062000569E+02 -0.34373434610E+00  0.29253551342E+02  0.51100000000E-03 0.  1.
         12    1    3    3    0    0 -0.37145144076E+01 -0.18960901220E+01 -0.14377308011E+02  0.14969961946E+02  0.00000000000E+00 0. -1.
</event>
<event>
 7    1  0.3223600E-013  0.5930208E+02  0.7816164E-02  0.1266604E+00
        -11   -1    0    0    0    0  0.00000000000E+00  0.00000000000E+00  0.45593999997E+02  0.45594000000E+02  0.51100000000E-03 0. -1.
         11   -1    0    0    0    0 -0.00000000000E+00 -0.00000000000E+00 -0.45593999997E+02  0.45594000000E+02  0.51100000000E-03 0.  1.
    9900012    2    1    2    0    0 -0.68520048458E+00 -0.31715075369E+02  0.32243688532E+01  0.59302077402E+02  0.50000243243E+02 0.  0.
         12    1    1    2    0    0  0.68520048458E+00  0.31715075369E+02 -0.32243688532E+01  0.31885922598E+02  0.00000000000E+00 0. -1.
         11    1    3    3    0    0  0.11812155217E+02 -0.24751720123E+02  0.14365425564E+02  0.30960298961E+02  0.51100000000E-03 0. -1.
        -11    1    3    3    0    0  0.40609268614E+01 -0.79080357435E+01 -0.68155820092E+01  0.11201799618E+02  0.51100000000E-03 0.  1.
        -12    1    3    3    0    0 -0.16558282563E+02  0.94468049660E+00 -0.43254747014E+01  0.17139978823E+02  0.00000000000E+00 0.  1.
</event>
<event>
 7    1  0.3223600E-013  0.5930195E+02  0.7816164E-02  0.1266605E+00
        -11   -1    0    0    0    0  0.00000000000E+00  0.00000000000E+00  0.45593999997E+02  0.45594000000E+02  0.51100000000E-03 0.  1.
         11   -1    0    0    0    0 -0.00000000000E+00 -0.00000000000E+00 -0.45593999997E+02  0.45594000000E+02  0.51100000000E-03 0. -1.
    9900012    2    1    2    0    0  0.18144096676E+02  0.83436092548E+01  0.24857520905E+02  0.59301946542E+02  0.50000004586E+02 0.  0.
         12    1    1    2    0    0 -0.18144096676E+02 -0.83436092548E+01 -0.24857520905E+02  0.31886053458E+02  0.00000000000E+00 0. -1.
         11    1    3    3    0    0  0.92066753336E+01 -0.72339505720E+00  0.96647979022E+00  0.92854862314E+01  0.51100000000E-03 0. -1.
        -11    1    3    3    0    0  0.13162745150E+02 -0.14656388826E+02  0.87312916875E+01  0.21547692407E+02  0.51100000000E-03 0.  1.
        -12    1    3    3    0    0 -0.42253238074E+01  0.23723393138E+02  0.15159749427E+02  0.28468767903E+02  0.00000000000E+00 0.  1.
</event>
<event>
 7    1  0.3223600E-013  0.5930193E+02  0.7816164E-02  0.1266605E+00
        -11   -1    0    0    0    0  0.00000000000E+00  0.00000000000E+00  0.45593999997E+02  0.45594000000E+02  0.51100000000E-03 0.  1.
         11   -1    0    0    0    0 -0.00000000000E+00 -0.00000000000E+00 -0.45593999997E+02  0.45594000000E+02  0.51100000000E-03 0. -1.
    9900012    2    1    2    0    0 -0.25397406154E+02  0.14351273643E+02 -0.12873788283E+02  0.59301925935E+02  0.49999967003E+02 0.  0.
         12    1    1    2    0    0  0.25397406154E+02 -0.14351273643E+02  0.12873788283E+02  0.31886074065E+02  0.00000000000E+00 0. -1.
         11    1    3    3    0    0 -0.13517385734E+02  0.22735305572E+02 -0.39635547683E+01  0.26745534267E+02  0.51100000000E-03 0. -1.
        -11    1    3    3    0    0  0.90640707631E+01 -0.39432209408E+01 -0.22893010507E+01  0.10146293399E+02  0.51100000000E-03 0.  1.
        -12    1    3    3    0    0 -0.20944091183E+02 -0.44408109880E+01 -0.66209324639E+01  0.22410098268E+02  0.00000000000E+00 0.  1.
</event>
<event>
 7    1  0.3223600E-013  0.5930195E+02  0.7816164E-02  0.1266605E+00
        -11   -1    0    0    0    0  0.00000000000E+00  0.00000000000E+00  0.45593999997E+02  0.45594000000E+02  0.51100000000E-03 0.  1.
         11   -1    0    0    0    0 -0.00000000000E+00 -0.00000000000E+00 -0.45593999997E+02  0.45594000000E+02  0.51100000000E-03 0. -1.
    9900012    2    1    2    0    0  0.76687371039E+01 -0.21668103174E+02  0.22099865649E+02  0.59301948415E+02  0.50000008002E+02 0.  0.
         12    1    1    2    0    0 -0.76687371039E+01  0.21668103174E+02 -0.22099865649E+02  0.31886051585E+02  0.00000000000E+00 0. -1.
         11    1    3    3    0    0 -0.86981064467E+01 -0.22305279282E+02  0.13038602314E+02  0.27261468965E+02  0.51100000000E-03 0. -1.
        -11    1    3    3    0    0  0.11221515660E+02 -0.11646263272E+02  0.44540792216E+00  0.16178882854E+02  0.51100000000E-03 0.  1.
        -12    1    3    3    0    0  0.51453278903E+01  0.12283439379E+02  0.86158554130E+01  0.15861596596E+02  0.00000000000E+00 0.  1.
</event>
<event>
 7    1  0.3223600E-013  0.5930195E+02  0.7816164E-02  0.1266605E+00
        -11   -1    0    0    0    0  0.00000000000E+00  0.00000000000E+00  0.45593999997E+02  0.45594000000E+02  0.51100000000E-03 0.  1.
         11   -1    0    0    0    0 -0.00000000000E+00 -0.00000000000E+00 -0.45593999997E+02  0.45594000000E+02  0.51100000000E-03 0. -1.
    9900012    2    1    2    0    0  0.90334042009E+01 -0.25173659466E+02  0.17361011023E+02  0.59301949350E+02  0.50000009706E+02 0.  0.
         12    1    1    2    0    0 -0.90334042009E+01  0.25173659466E+02 -0.17361011023E+02  0.31886050650E+02  0.00000000000E+00 0. -1.
         11    1    3    3    0    0  0.78990011838E+01  0.10132923527E+02 -0.12664493740E+01  0.12910238309E+02  0.51100000000E-03 0. -1.
        -11    1    3    3    0    0  0.11443833242E+02 -0.15553102462E+02  0.39483749646E+01  0.19709134445E+02  0.51100000000E-03 0.  1.
        -12    1    3    3    0    0 -0.10309430225E+02 -0.19753480531E+02  0.14679085432E+02  0.26682576595E+02  0.00000000000E+00 0.  1.
</event>
<event>
 7    1  0.3223600E-013  0.5930198E+02  0.7816164E-02  0.1266605E+00
        -11   -1    0    0    0    0  0.00000000000E+00  0.00000000000E+00  0.45593999997E+02  0.45594000000E+02  0.51100000000E-03 0. -1.
         11   -1    0    0    0    0 -0.00000000000E+00 -0.00000000000E+00 -0.45593999997E+02  0.45594000000E+02  0.51100000000E-03 0.  1.
    9900012    2    1    2    0    0  0.22174856131E+02  0.22641067428E+02 -0.35179252546E+01  0.59301984620E+02  0.50000074031E+02 0.  0.
         12    1    1    2    0    0 -0.22174856131E+02 -0.22641067428E+02  0.35179252546E+01  0.31886015380E+02  0.00000000000E+00 0. -1.
         11    1    3    3    0    0  0.17534379605E+02  0.12124716904E+01  0.12726675007E+02  0.21700064809E+02  0.51100000000E-03 0. -1.
        -11    1    3    3    0    0  0.34442300661E+01 -0.10599879739E+01 -0.14581517758E+02  0.15020218229E+02  0.51100000000E-03 0.  1.
        -12    1    3    3    0    0  0.11962464599E+01  0.22488583712E+02 -0.16630825037E+01  0.22581701582E+02  0.00000000000E+00 0.  1.
</event>
<event>
 7    1  0.3223600E-013  0.5930194E+02  0.7816164E-02  0.1266605E+00
        -11   -1    0    0    0    0  0.00000000000E+00  0.00000000000E+00  0.45593999997E+02  0.45594000000E+02  0.51100000000E-03 0.  1.
         11   -1    0    0    0    0 -0.00000000000E+00 -0.00000000000E+00 -0.45593999997E+02  0.45594000000E+02  0.51100000000E-03 0. -1.
    9900012    2    1    2    0    0 -0.85240233440E+01 -0.24458957536E+02  0.18596263768E+02  0.59301943426E+02  0.49999998903E+02 0.  0.
         12    1    1    2    0    0  0.85240233440E+01  0.24458957536E+02 -0.18596263768E+02  0.31886056574E+02  0.00000000000E+00 0. -1.
         11    1    3    3    0    0  0.10441313307E+02 -0.16973271307E+02  0.13277172926E+02  0.23945694469E+02  0.51100000000E-03 0. -1.
        -11    1    3    3    0    0 -0.56646779666E-01 -0.36554726600E+01  0.13804153932E+02  0.14280068461E+02  0.51100000000E-03 0.  1.
         12    1    3    3    0    0 -0.18908689871E+02 -0.38302135695E+01 -0.84850630905E+01  0.21076180496E+02  0.00000000000E+00 0. -1.
</event>
<event>
 7    1  0.3223600E-013  0.5930194E+02  0.7816164E-02  0.1266605E+00
        -11   -1    0    0    0    0  0.00000000000E+00  0.00000000000E+00  0.45593999997E+02  0.45594000000E+02  0.51100000000E-03 0. -1.
         11   -1    0    0    0    0 -0.00000000000E+00 -0.00000000000E+00 -0.45593999997E+02  0.45594000000E+02  0.51100000000E-03 0.  1.
    9900012    2    1    2    0    0 -0.39950708846E+00 -0.30632089833E+02 -0.88451253986E+01  0.59301940715E+02  0.49999993958E+02 0.  0.
         12    1    1    2    0    0  0.39950708846E+00  0.30632089833E+02  0.88451253986E+01  0.31886059285E+02  0.00000000000E+00 0. -1.
         11    1    3    3    0    0 -0.85370300209E+00  0.50166440353E+01 -0.26195557320E+01  0.57234254330E+01  0.51100000000E-03 0. -1.
        -11    1    3    3    0    0 -0.16590859009E+02 -0.10816474736E+02 -0.11645456353E+02  0.22975408208E+02  0.51100000000E-03 0.  1.
         12    1    3    3    0    0  0.17045054922E+02 -0.24832259132E+02  0.54198866867E+01  0.30603107074E+02  0.00000000000E+00 0. -1.
</event>
<event>
 7    1  0.3223600E-013  0.5930192E+02  0.7816164E-02  0.1266605E+00
        -11   -1    0    0    0    0  0.00000000000E+00  0.00000000000E+00  0.45593999997E+02  0.45594000000E+02  0.51100000000E-03 0. -1.
         11   -1    0    0    0    0 -0.00000000000E+00 -0.00000000000E+00 -0.45593999997E+02  0.45594000000E+02  0.51100000000E-03 0.  1.
    9900012    2    1    2    0    0 -0.72583668664E+01  0.11992981492E+00 -0.31048735040E+02  0.59301918079E+02  0.49999952675E+02 0.  0.
         12    1    1    2    0    0  0.72583668664E+01 -0.11992981492E+00  0.31048735040E+02  0.31886081921E+02  0.00000000000E+00 0. -1.
         11    1    3    3    0    0  0.75122064072E+01 -0.13291089462E+00 -0.15688290983E+02  0.17394636663E+02  0.51100000000E-03 0. -1.
        -11    1    3    3    0    0 -0.10726616110E+02  0.74068716728E+01 -0.25629981730E+02  0.28754443220E+02  0.51100000000E-03 0.  1.
         12    1    3    3    0    0 -0.40439571632E+01 -0.71540309633E+01  0.10269537674E+02  0.13152838195E+02  0.00000000000E+00 0. -1.
</event>
<event>
 7    1  0.3223600E-013  0.5930193E+02  0.7816164E-02  0.1266605E+00
        -11   -1    0    0    0    0  0.00000000000E+00  0.00000000000E+00  0.45593999997E+02  0.45594000000E+02  0.51100000000E-03 0.  1.
         11   -1    0    0    0    0 -0.00000000000E+00 -0.00000000000E+00 -0.45593999997E+02  0.45594000000E+02  0.51100000000E-03 0. -1.
    9900012    2    1    2    0    0 -0.25251256774E+01 -0.98388128558E+00  0.31770692516E+02  0.59301934312E+02  0.49999982282E+02 0.  0.
         12    1    1    2    0    0  0.25251256774E+01  0.98388128558E+00 -0.31770692516E+02  0.31886065688E+02  0.00000000000E+00 0. -1.
         11    1    3    3    0    0  0.90390050358E+01 -0.54922105545E+00 -0.26401827664E+01  0.94326995662E+01  0.51100000000E-03 0. -1.
        -11    1    3    3    0    0 -0.29901847378E+01 -0.13780918792E+02  0.30393349349E+02  0.33505381843E+02  0.51100000000E-03 0.  1.
         12    1    3    3    0    0 -0.85739459754E+01  0.13346258562E+02  0.40175259333E+01  0.16363852903E+02  0.00000000000E+00 0. -1.
</event>
<event>
 7    1  0.3223600E-013  0.5930195E+02  0.7816164E-02  0.1266605E+00
        -11   -1    0    0    0    0  0.00000000000E+00  0.00000000000E+00  0.45593999997E+02  0.45594000000E+02  0.51100000000E-03 0.  1.
         11   -1    0    0    0    0 -0.00000000000E+00 -0.00000000000E+00 -0.45593999997E+02  0.45594000000E+02  0.51100000000E-03 0. -1.
    9900012    2    1    2    0    0 -0.25529808082E+02  0.48889367297E+01  0.18467469497E+02  0.59301949246E+02  0.50000009518E+02 0.  0.
         12    1    1    2    0    0  0.25529808082E+02 -0.48889367297E+01 -0.18467469497E+02  0.31886050754E+02  0.00000000000E+00 0. -1.
         11    1    3    3    0    0 -0.71017982310E+01 -0.69104254640E+01  0.22470689030E+02  0.24558529759E+02  0.51100000000E-03 0. -1.
        -11    1    3    3    0    0 -0.11902903708E+02 -0.47368199696E+01  0.62151557808E+01  0.14238846223E+02  0.51100000000E-03 0.  1.
         12    1    3    3    0    0 -0.65251061428E+01  0.16536182163E+02 -0.10218375314E+02  0.20504573265E+02  0.00000000000E+00 0. -1.
</event>
<event>
 7    1  0.3223600E-013  0.5930170E+02  0.7816164E-02  0.1266606E+00
        -11   -1    0    0    0    0  0.00000000000E+00  0.00000000000E+00  0.45593999997E+02  0.45594000000E+02  0.51100000000E-03 0. -1.
         11   -1    0    0    0    0 -0.00000000000E+00 -0.00000000000E+00 -0.45593999997E+02  0.45594000000E+02  0.51100000000E-03 0.  1.
    9900012    2    1    2    0    0  0.62881283134E+01  0.18421528083E+02 -0.25255555712E+02  0.59301696531E+02  0.49999548623E+02 0.  0.
         12    1    1    2    0    0 -0.62881283134E+01 -0.18421528083E+02  0.25255555712E+02  0.31886303469E+02  0.00000000000E+00 0. -1.
         11    1    3    3    0    0 -0.44549791449E+01 -0.78034888944E+00  0.11290099437E+02  0.12162324166E+02  0.51100000000E-03 0. -1.
        -11    1    3    3    0    0 -0.25387718583E+00  0.37068208392E+01  0.19600561575E+01  0.42008088222E+01  0.51100000000E-03 0.  1.
        -12    1    3    3    0    0  0.10996984644E+02  0.15495056133E+02 -0.38505711307E+02  0.42938563542E+02  0.00000000000E+00 0.  1.
</event>
<event>
 7    1  0.3223600E-013  0.5930196E+02  0.7816164E-02  0.1266605E+00
        -11   -1    0    0    0    0  0.00000000000E+00  0.00000000000E+00  0.45593999997E+02  0.45594000000E+02  0.51100000000E-03 0. -1.
         11   -1    0    0    0    0 -0.00000000000E+00 -0.00000000000E+00 -0.45593999997E+02  0.45594000000E+02  0.51100000000E-03 0.  1.
    9900012    2    1    2    0    0 -0.27278458443E+02  0.13830561516E+02 -0.90178039481E+01  0.59301960501E+02  0.50000030043E+02 0.  0.
         12    1    1    2    0    0  0.27278458443E+02 -0.13830561516E+02  0.90178039481E+01  0.31886039499E+02  0.00000000000E+00 0. -1.
         11    1    3    3    0    0  0.47189422203E+01 -0.63243613784E+01 -0.57246613078E+01  0.97487286286E+01  0.51100000000E-03 0. -1.
        -11    1    3    3    0    0 -0.14465903325E+02  0.26145300833E+02  0.28951961845E+01  0.30020347697E+02  0.51100000000E-03 0.  1.
         12    1    3    3    0    0 -0.17531497339E+02 -0.59903779387E+01 -0.61883388248E+01  0.19532884175E+02  0.00000000000E+00 0. -1.
</event>
<event>
 7    1  0.3223600E-013  0.5930203E+02  0.7816164E-02  0.1266604E+00
        -11   -1    0    0    0    0  0.00000000000E+00  0.00000000000E+00  0.45593999997E+02  0.45594000000E+02  0.51100000000E-03 0.  1.
         11   -1    0    0    0    0 -0.00000000000E+00 -0.00000000000E+00 -0.45593999997E+02  0.45594000000E+02  0.51100000000E-03 0. -1.
    9900012    2    1    2    0    0  0.15440130499E+01 -0.23070173949E+02 -0.21956729654E+02  0.59302033190E+02  0.50000162610E+02 0.  0.
         12    1    1    2    0    0 -0.15440130499E+01  0.23070173949E+02  0.21956729654E+02  0.31885966810E+02  0.00000000000E+00 0. -1.
         11    1    3    3    0    0  0.75694509828E+01 -0.81230990803E+01 -0.29373126013E+02  0.31401621915E+02  0.51100000000E-03 0. -1.
        -11    1    3    3    0    0  0.69979159698E+01  0.74156852939E-01  0.23758628215E+01  0.73906056292E+01  0.51100000000E-03 0.  1.
         12    1    3    3    0    0 -0.13023353903E+02 -0.15021231721E+02  0.50405335367E+01  0.20509805646E+02  0.00000000000E+00 0. -1.
</event>
<event>
 7    1  0.3223600E-013  0.5930190E+02  0.7816164E-02  0.1266605E+00
        -11   -1    0    0    0    0  0.00000000000E+00  0.00000000000E+00  0.45593999997E+02  0.45594000000E+02  0.51100000000E-03 0. -1.
         11   -1    0    0    0    0 -0.00000000000E+00 -0.00000000000E+00 -0.45593999997E+02  0.45594000000E+02  0.51100000000E-03 0.  1.
    9900012    2    1    2    0    0 -0.14131964075E+02 -0.20690759742E+02 -0.19720638107E+02  0.59301897782E+02  0.49999915659E+02 0.  0.
         12    1    1    2    0    0  0.14131964075E+02  0.20690759742E+02  0.19720638107E+02  0.31886102218E+02  0.00000000000E+00 0. -1.
         11    1    3    3    0    0  0.34465899132E+01 -0.80344461801E+01  0.20782224600E+01  0.89861179775E+01  0.51100000000E-03 0. -1.
        -11    1    3    3    0    0 -0.36120266513E+01 -0.20647650451E+02 -0.26276835918E+02  0.33613156826E+02  0.51100000000E-03 0.  1.
         12    1    3    3    0    0 -0.13966527337E+02  0.79913368892E+01  0.44779753509E+01  0.16702622979E+02  0.00000000000E+00 0. -1.
</event>
<event>
 7    1  0.3223600E-013  0.5930196E+02  0.7816164E-02  0.1266605E+00
        -11   -1    0    0    0    0  0.00000000000E+00  0.00000000000E+00  0.45593999997E+02  0.45594000000E+02  0.51100000000E-03 0.  1.
         11   -1    0    0    0    0 -0.00000000000E+00 -0.00000000000E+00 -0.45593999997E+02  0.45594000000E+02  0.51100000000E-03 0. -1.
    9900012    2    1    2    0    0 -0.24057840241E+02  0.20917195949E+02 -0.64074248333E+00  0.59301963646E+02  0.50000035779E+02 0.  0.
         12    1    1    2    0    0  0.24057840241E+02 -0.20917195949E+02  0.64074248333E+00  0.31886036354E+02  0.00000000000E+00 0. -1.
         11    1    3    3    0    0 -0.74234142066E+01  0.13873633728E+02  0.11298910480E+02  0.19371375005E+02  0.51100000000E-03 0. -1.
        -11    1    3    3    0    0  0.92320539163E+01 -0.29943354672E+01  0.48428037974E-01  0.97056277458E+01  0.51100000000E-03 0.  1.
         12    1    3    3    0    0 -0.25866479951E+02  0.10037897688E+02 -0.11988081001E+02  0.30224960895E+02  0.00000000000E+00 0. -1.
</event>
<event>
 7    1  0.3223600E-013  0.5930195E+02  0.7816164E-02  0.1266605E+00
        -11   -1    0    0    0    0  0.00000000000E+00  0.00000000000E+00  0.45593999997E+02  0.45594000000E+02  0.51100000000E-03 0. -1.
         11   -1    0    0    0    0 -0.00000000000E+00 -0.00000000000E+00 -0.45593999997E+02  0.45594000000E+02  0.51100000000E-03 0.  1.
    9900012    2    1    2    0    0 -0.25207518375E+02  0.15969250534E+02 -0.11237616369E+02  0.59301953414E+02  0.50000017118E+02 0.  0.
         12    1    1    2    0    0  0.25207518375E+02 -0.15969250534E+02  0.11237616369E+02  0.31886046586E+02  0.00000000000E+00 0. -1.
         11    1    3    3    0    0 -0.18384220500E+02  0.76989665948E+01  0.62645044954E+01  0.20892526579E+02  0.51100000000E-03 0. -1.
        -11    1    3    3    0    0  0.49905790060E+01 -0.56804987424E+01  0.52631066089E+01  0.92127214337E+01  0.51100000000E-03 0.  1.
         12    1    3    3    0    0 -0.11813876881E+02  0.13950782682E+02 -0.22765227473E+02  0.29196705401E+02  0.00000000000E+00 0. -1.
</event>
<event>
 7    1  0.3223600E-013  0.5930188E+02  0.7816164E-02  0.1266605E+00
        -11   -1    0    0    0    0  0.00000000000E+00  0.00000000000E+00  0.45593999997E+02  0.45594000000E+02  0.51100000000E-03 0. -1.
         11   -1    0    0    0    0 -0.00000000000E+00 -0.00000000000E+00 -0.45593999997E+02  0.45594000000E+02  0.51100000000E-03 0.  1.
    9900012    2    1    2    0    0 -0.23864725321E+01 -0.84335822097E-01 -0.31796580176E+02  0.59301876457E+02  0.49999876768E+02 0.  0.
         12    1    1    2    0    0  0.23864725321E+01  0.84335822097E-01  0.31796580176E+02  0.31886123543E+02  0.00000000000E+00 0. -1.
         11    1    3    3    0    0  0.52261617897E+01  0.51205269613E+01 -0.17527060928E+02  0.18992904687E+02  0.51100000000E-03 0. -1.
        -11    1    3    3    0    0 -0.19662573605E+02  0.10165717470E+01 -0.17529285136E+02  0.26361450198E+02  0.51100000000E-03 0.  1.
         12    1    3    3    0    0  0.12049939284E+02 -0.62214345304E+01  0.32597658879E+01  0.13947521572E+02  0.00000000000E+00 0. -1.
</event>
<event>
 7    1  0.3223600E-013  0.5930194E+02  0.7816164E-02  0.1266605E+00
        -11   -1    0    0    0    0  0.00000000000E+00  0.00000000000E+00  0.45593999997E+02  0.45594000000E+02  0.51100000000E-03 0. -1.
         11   -1    0    0    0    0 -0.00000000000E+00 -0.00000000000E+00 -0.45593999997E+02  0.45594000000E+02  0.51100000000E-03 0.  1.
    9900012    2    1    2    0    0  0.22530777645E+02  0.17614075478E+01  0.22494049363E+02  0.59301941062E+02  0.49999994592E+02 0.  0.
         12    1    1    2    0    0 -0.22530777645E+02 -0.17614075478E+01 -0.22494049363E+02  0.31886058938E+02  0.00000000000E+00 0. -1.
         11    1    3    3    0    0 -0.62775182984E+01 -0.52817067746E+01  0.23737444298E+02  0.25115133376E+02  0.51100000000E-03 0. -1.
        -11    1    3    3    0    0  0.14980244316E+02 -0.30630433566E+01  0.47976465684E+01  0.16025210365E+02  0.51100000000E-03 0.  1.
        -12    1    3    3    0    0  0.13828051627E+02  0.10106157679E+02 -0.60410415028E+01  0.18161597321E+02  0.00000000000E+00 0.  1.
</event>
<event>
 7    1  0.3223600E-013  0.5930194E+02  0.7816164E-02  0.1266605E+00
        -11   -1    0    0    0    0  0.00000000000E+00  0.00000000000E+00  0.45593999997E+02  0.45594000000E+02  0.51100000000E-03 0.  1.
         11   -1    0    0    0    0 -0.00000000000E+00 -0.00000000000E+00 -0.45593999997E+02  0.45594000000E+02  0.51100000000E-03 0. -1.
    9900012    2    1    2    0    0  0.73099867295E+01  0.20519173910E+02  0.23286222683E+02  0.59301943944E+02  0.49999999848E+02 0.  0.
         12    1    1    2    0    0 -0.73099867295E+01 -0.20519173910E+02 -0.23286222683E+02  0.31886056056E+02  0.00000000000E+00 0. -1.
         11    1    3    3    0    0  0.15459025773E+02  0.87680185651E+01 -0.89665424769E+01  0.19906243032E+02  0.51100000000E-03 0. -1.
        -11    1    3    3    0    0  0.20910104068E+01  0.88379472874E+01  0.55369592417E+01  0.10636707887E+02  0.51100000000E-03 0.  1.
        -12    1    3    3    0    0 -0.10240049450E+02  0.29132080573E+01  0.26715805919E+02  0.28758993025E+02  0.00000000000E+00 0.  1.
</event>
<event>
 7    1  0.3223600E-013  0.5930194E+02  0.7816164E-02  0.1266605E+00
        -11   -1    0    0    0    0  0.00000000000E+00  0.00000000000E+00  0.45593999997E+02  0.45594000000E+02  0.51100000000E-03 0.  1.
         11   -1    0    0    0    0 -0.00000000000E+00 -0.00000000000E+00 -0.45593999997E+02  0.45594000000E+02  0.51100000000E-03 0. -1.
    9900012    2    1    2    0    0 -0.21979522432E+02 -0.21981139379E+02 -0.71028768960E+01  0.59301941057E+02  0.49999994582E+02 0.  0.
         12    1    1    2    0    0  0.21979522432E+02  0.21981139379E+02  0.71028768960E+01  0.31886058943E+02  0.00000000000E+00 0. -1.
         11    1    3    3    0    0 -0.16723873813E+02  0.64701692512E+01  0.13544799803E+01  0.17982926951E+02  0.51100000000E-03 0. -1.
        -11    1    3    3    0    0 -0.13452443697E+02 -0.28021662412E+02 -0.25136656758E+01  0.31184937408E+02  0.51100000000E-03 0.  1.
         12    1    3    3    0    0  0.81967950783E+01 -0.42964621844E+00 -0.59436912006E+01  0.10134076698E+02  0.00000000000E+00 0. -1.
</event>
<event>
 7    1  0.3223600E-013  0.5930196E+02  0.7816164E-02  0.1266605E+00
        -11   -1    0    0    0    0  0.00000000000E+00  0.00000000000E+00  0.45593999997E+02  0.45594000000E+02  0.51100000000E-03 0.  1.
         11   -1    0    0    0    0 -0.00000000000E+00 -0.00000000000E+00 -0.45593999997E+02  0.45594000000E+02  0.51100000000E-03 0. -1.
    9900012    2    1    2    0    0  0.25232011616E+02  0.10886393977E+02 -0.16172551799E+02  0.59301962057E+02  0.50000032882E+02 0.  0.
         12    1    1    2    0    0 -0.25232011616E+02 -0.10886393977E+02  0.16172551799E+02  0.31886037943E+02  0.00000000000E+00 0. -1.
         11    1    3    3    0    0 -0.29931304573E+01  0.55219778991E+01 -0.22832629913E+00  0.62851573579E+01  0.51100000000E-03 0. -1.
        -11    1    3    3    0    0 -0.69142530164E+01  0.11792993846E+02 -0.96762679413E+01  0.16748485310E+02  0.51100000000E-03 0.  1.
        -12    1    3    3    0    0  0.35139395090E+02 -0.64285777691E+01 -0.62679575585E+01  0.36268319390E+02  0.00000000000E+00 0.  1.
</event>
<event>
 7    1  0.3223600E-013  0.5930194E+02  0.7816164E-02  0.1266605E+00
        -11   -1    0    0    0    0  0.00000000000E+00  0.00000000000E+00  0.45593999997E+02  0.45594000000E+02  0.51100000000E-03 0.  1.
         11   -1    0    0    0    0 -0.00000000000E+00 -0.00000000000E+00 -0.45593999997E+02  0.45594000000E+02  0.51100000000E-03 0. -1.
    9900012    2    1    2    0    0  0.13996526689E+02 -0.56888590229E+01  0.28079442574E+02  0.59301937659E+02  0.49999988385E+02 0.  0.
         12    1    1    2    0    0 -0.13996526689E+02  0.56888590229E+01 -0.28079442574E+02  0.31886062341E+02  0.00000000000E+00 0. -1.
         11    1    3    3    0    0  0.23875151529E+02  0.50390346053E+01  0.10591186434E+02  0.26600525570E+02  0.51100000000E-03 0. -1.
        -11    1    3    3    0    0 -0.25846047490E+01  0.47705511631E+01 -0.28356173896E+01  0.61220148930E+01  0.51100000000E-03 0.  1.
        -12    1    3    3    0    0 -0.72940200914E+01 -0.15498444791E+02  0.20323873530E+02  0.26579397196E+02  0.00000000000E+00 0.  1.
</event>
<event>
 7    1  0.3223600E-013  0.5930211E+02  0.7816164E-02  0.1266604E+00
        -11   -1    0    0    0    0  0.00000000000E+00  0.00000000000E+00  0.45593999997E+02  0.45594000000E+02  0.51100000000E-03 0.  1.
         11   -1    0    0    0    0 -0.00000000000E+00 -0.00000000000E+00 -0.45593999997E+02  0.45594000000E+02  0.51100000000E-03 0. -1.
    9900012    2    1    2    0    0  0.15404850448E+02  0.23033060337E+02  0.15775898602E+02  0.59302105587E+02  0.50000294644E+02 0.  0.
         12    1    1    2    0    0 -0.15404850448E+02 -0.23033060337E+02 -0.15775898602E+02  0.31885894413E+02  0.00000000000E+00 0. -1.
         11    1    3    3    0    0 -0.10762987985E+02 -0.13754182728E+01  0.41419261602E+01  0.11614182639E+02  0.51100000000E-03 0. -1.
        -11    1    3    3    0    0  0.21262501200E+02  0.29710288686E+01  0.13906172115E+02  0.25579339182E+02  0.51100000000E-03 0.  1.
        -12    1    3    3    0    0  0.49053372326E+01  0.21437449742E+02 -0.22721996741E+01  0.22108583766E+02  0.00000000000E+00 0.  1.
</event>
<event>
 7    1  0.3223600E-013  0.5930192E+02  0.7816164E-02  0.1266605E+00
        -11   -1    0    0    0    0  0.00000000000E+00  0.00000000000E+00  0.45593999997E+02  0.45594000000E+02  0.51100000000E-03 0.  1.
         11   -1    0    0    0    0 -0.00000000000E+00 -0.00000000000E+00 -0.45593999997E+02  0.45594000000E+02  0.51100000000E-03 0. -1.
    9900012    2    1    2    0    0 -0.94439121118E+01 -0.22744766711E+02 -0.20253644255E+02  0.59301921622E+02  0.49999959138E+02 0.  0.
         12    1    1    2    0    0  0.94439121118E+01  0.22744766711E+02  0.20253644255E+02  0.31886078378E+02  0.00000000000E+00 0. -1.
         11    1    3    3    0    0 -0.11031338102E+02 -0.30530804414E+01  0.52633850058E+01  0.12598211876E+02  0.51100000000E-03 0.  1.
        -11    1    3    3    0    0  0.74230677513E+01 -0.22572353232E+02 -0.38387788744E+01  0.24069675710E+02  0.51100000000E-03 0. -1.
         12    1    3    3    0    0 -0.58356417615E+01  0.28806669630E+01 -0.21678250387E+02  0.22634034036E+02  0.00000000000E+00 0. -1.
</event>
<event>
 7    1  0.3223600E-013  0.5930197E+02  0.7816164E-02  0.1266605E+00
        -11   -1    0    0    0    0  0.00000000000E+00  0.00000000000E+00  0.45593999997E+02  0.45594000000E+02  0.51100000000E-03 0.  1.
         11   -1    0    0    0    0 -0.00000000000E+00 -0.00000000000E+00 -0.45593999997E+02  0.45594000000E+02  0.51100000000E-03 0. -1.
    9900012    2    1    2    0    0 -0.57100911321E+01  0.23276141360E+02  0.21031767382E+02  0.59301966434E+02  0.50000040863E+02 0.  0.
         12    1    1    2    0    0  0.57100911321E+01 -0.23276141360E+02 -0.21031767382E+02  0.31886033566E+02  0.00000000000E+00 0. -1.
         11    1    3    3    0    0  0.73335487732E+01 -0.86522653945E+01  0.36805119489E+01  0.11924294635E+02  0.51100000000E-03 0. -1.
        -11    1    3    3    0    0  0.17000607451E+00  0.55184264395E+01  0.16968460793E+02  0.17844063281E+02  0.51100000000E-03 0.  1.
         12    1    3    3    0    0 -0.13213645980E+02  0.26409980315E+02  0.38279464008E+00  0.29533608518E+02  0.00000000000E+00 0. -1.
</event>
<event>
 7    1  0.3223600E-013  0.5930197E+02  0.7816164E-02  0.1266605E+00
        -11   -1    0    0    0    0  0.00000000000E+00  0.00000000000E+00  0.45593999997E+02  0.45594000000E+02  0.51100000000E-03 0.  1.
         11   -1    0    0    0    0 -0.00000000000E+00 -0.00000000000E+00 -0.45593999997E+02  0.45594000000E+02  0.51100000000E-03 0. -1.
    9900012    2    1    2    0    0  0.23451629586E+02 -0.21411113274E+02  0.28816921991E+01  0.59301970900E+02  0.50000049008E+02 0.  0.
         12    1    1    2    0    0 -0.23451629586E+02  0.21411113274E+02 -0.28816921991E+01  0.31886029100E+02  0.00000000000E+00 0. -1.
         11    1    3    3    0    0 -0.44802742987E+01 -0.16795931097E+02 -0.48652021614E+01  0.18051214683E+02  0.51100000000E-03 0. -1.
        -11    1    3    3    0    0  0.14178849020E-01 -0.36303563265E-01  0.12554396664E+02  0.12554457171E+02  0.51100000000E-03 0.  1.
        -12    1    3    3    0    0  0.27917725035E+02 -0.45788786139E+01 -0.48075023038E+01  0.28696299045E+02  0.00000000000E+00 0.  1.
</event>
<event>
 7    1  0.3223600E-013  0.5930199E+02  0.7816164E-02  0.1266605E+00
        -11   -1    0    0    0    0  0.00000000000E+00  0.00000000000E+00  0.45593999997E+02  0.45594000000E+02  0.51100000000E-03 0.  1.
         11   -1    0    0    0    0 -0.00000000000E+00 -0.00000000000E+00 -0.45593999997E+02  0.45594000000E+02  0.51100000000E-03 0. -1.
    9900012    2    1    2    0    0  0.27485357174E+02  0.37809155476E+01  0.15715519392E+02  0.59301988473E+02  0.50000081057E+02 0.  0.
         12    1    1    2    0    0 -0.27485357174E+02 -0.37809155476E+01 -0.15715519392E+02  0.31886011527E+02  0.00000000000E+00 0. -1.
         11    1    3    3    0    0  0.11064272593E+02  0.12680564184E+01  0.12852158294E+01  0.11210614394E+02  0.51100000000E-03 0. -1.
        -11    1    3    3    0    0  0.23377231734E+02  0.13864812484E+02  0.19912372640E+02  0.33693182889E+02  0.51100000000E-03 0.  1.
         12    1    3    3    0    0 -0.69561471538E+01 -0.11351953354E+02 -0.54820690774E+01  0.14398191190E+02  0.00000000000E+00 0. -1.
</event>
<event>
 7    1  0.3223600E-013  0.5930182E+02  0.7816164E-02  0.1266605E+00
        -11   -1    0    0    0    0  0.00000000000E+00  0.00000000000E+00  0.45593999997E+02  0.45594000000E+02  0.51100000000E-03 0.  1.
         11   -1    0    0    0    0 -0.00000000000E+00 -0.00000000000E+00 -0.45593999997E+02  0.45594000000E+02  0.51100000000E-03 0. -1.
    9900012    2    1    2    0    0 -0.31031074163E+02 -0.42579859191E+01  0.59724727863E+01  0.59301820565E+02  0.49999774833E+02 0.  0.
         12    1    1    2    0    0  0.31031074163E+02  0.42579859191E+01 -0.59724727863E+01  0.31886179435E+02  0.00000000000E+00 0. -1.
         11    1    3    3    0    0 -0.70434574660E+01  0.13774383854E+02  0.15266370190E+02  0.21734902868E+02  0.51100000000E-03 0. -1.
        -11    1    3    3    0    0 -0.52461899895E+01 -0.11292199114E+02  0.46098461019E+01  0.13277309652E+02  0.51100000000E-03 0.  1.
        -12    1    3    3    0    0 -0.18741426707E+02 -0.67401706588E+01 -0.13903743506E+02  0.24289608045E+02  0.00000000000E+00 0.  1.
</event>
<event>
 7    1  0.3223600E-013  0.5930192E+02  0.7816164E-02  0.1266605E+00
        -11   -1    0    0    0    0  0.00000000000E+00  0.00000000000E+00  0.45593999997E+02  0.45594000000E+02  0.51100000000E-03 0. -1.
         11   -1    0    0    0    0 -0.00000000000E+00 -0.00000000000E+00 -0.45593999997E+02  0.45594000000E+02  0.51100000000E-03 0.  1.
    9900012    2    1    2    0    0 -0.19329961136E+01  0.31751370520E+02 -0.21991464475E+01  0.59301917629E+02  0.49999951855E+02 0.  0.
         12    1    1    2    0    0  0.19329961136E+01 -0.31751370520E+02  0.21991464475E+01  0.31886082371E+02  0.00000000000E+00 0. -1.
         11    1    3    3    0    0 -0.73576005409E+00 -0.93252297426E+01  0.71881707293E+01  0.11797078083E+02  0.51100000000E-03 0. -1.
        -11    1    3    3    0    0 -0.38955139605E+01  0.57334801929E+01 -0.98636363129E+01  0.12055668613E+02  0.51100000000E-03 0.  1.
        -12    1    3    3    0    0  0.26982779009E+01  0.35343120070E+02  0.47631913615E+00  0.35449170933E+02  0.00000000000E+00 0.  1.
</event>
<event>
 7    1  0.3223600E-013  0.5930196E+02  0.7816164E-02  0.1266605E+00
        -11   -1    0    0    0    0  0.00000000000E+00  0.00000000000E+00  0.45593999997E+02  0.45594000000E+02  0.51100000000E-03 0.  1.
         11   -1    0    0    0    0 -0.00000000000E+00 -0.00000000000E+00 -0.45593999997E+02  0.45594000000E+02  0.51100000000E-03 0. -1.
    9900012    2    1    2    0    0 -0.26133954439E+02 -0.14634296381E+02 -0.10934956513E+02  0.59301961062E+02  0.50000031066E+02 0.  0.
         12    1    1    2    0    0  0.26133954439E+02  0.14634296381E+02  0.10934956513E+02  0.31886038938E+02  0.00000000000E+00 0. -1.
         11    1    3    3    0    0 -0.16467627957E+02 -0.15731341056E+02 -0.44106195631E+01  0.23197228867E+02  0.51100000000E-03 0. -1.
        -11    1    3    3    0    0 -0.97618730458E+01 -0.12510927115E+02 -0.13480446577E+02  0.20821621042E+02  0.51100000000E-03 0.  1.
        -12    1    3    3    0    0  0.95546563604E-01  0.13607971789E+02  0.69561096266E+01  0.15283111153E+02  0.00000000000E+00 0.  1.
</event>
<event>
 7    1  0.3223600E-013  0.5930195E+02  0.7816164E-02  0.1266605E+00
        -11   -1    0    0    0    0  0.00000000000E+00  0.00000000000E+00  0.45593999997E+02  0.45594000000E+02  0.51100000000E-03 0.  1.
         11   -1    0    0    0    0 -0.00000000000E+00 -0.00000000000E+00 -0.45593999997E+02  0.45594000000E+02  0.51100000000E-03 0. -1.
    9900012    2    1    2    0    0 -0.18858023371E+02 -0.18887937950E+02  0.17445361825E+02  0.59301954546E+02  0.50000019183E+02 0.  0.
         12    1    1    2    0    0  0.18858023371E+02  0.18887937950E+02 -0.17445361825E+02  0.31886045454E+02  0.00000000000E+00 0. -1.
         11    1    3    3    0    0 -0.14528016310E+02 -0.20589195646E+01  0.98033836159E+01  0.17646776993E+02  0.51100000000E-03 0. -1.
        -11    1    3    3    0    0  0.16028957410E+01  0.60862711236E+01  0.15487919848E+02  0.16717883611E+02  0.51100000000E-03 0.  1.
         12    1    3    3    0    0 -0.59329028028E+01 -0.22915289509E+02 -0.78459416391E+01  0.24937293942E+02  0.00000000000E+00 0. -1.
</event>
<event>
 7    1  0.3223600E-013  0.5930181E+02  0.7816164E-02  0.1266605E+00
        -11   -1    0    0    0    0  0.00000000000E+00  0.00000000000E+00  0.45593999997E+02  0.45594000000E+02  0.51100000000E-03 0. -1.
         11   -1    0    0    0    0 -0.00000000000E+00 -0.00000000000E+00 -0.45593999997E+02  0.45594000000E+02  0.51100000000E-03 0.  1.
    9900012    2    1    2    0    0 -0.13808009506E+02  0.23516032415E+02 -0.16524646268E+02  0.59301814256E+02  0.49999763326E+02 0.  0.
         12    1    1    2    0    0  0.13808009506E+02 -0.23516032415E+02  0.16524646268E+02  0.31886185744E+02  0.00000000000E+00 0. -1.
         11    1    3    3    0    0 -0.11695040609E+02  0.77319581877E+01 -0.13013071761E+02  0.19128439277E+02  0.51100000000E-03 0. -1.
        -11    1    3    3    0    0 -0.81701604503E+01 -0.46434106938E+01 -0.13654389465E+02  0.16575739398E+02  0.51100000000E-03 0.  1.
         12    1    3    3    0    0  0.60571915538E+01  0.20427484921E+02  0.10142814958E+02  0.23597635581E+02  0.00000000000E+00 0. -1.
</event>
<event>
 7    1  0.3223600E-013  0.5930167E+02  0.7816164E-02  0.1266606E+00
        -11   -1    0    0    0    0  0.00000000000E+00  0.00000000000E+00  0.45593999997E+02  0.45594000000E+02  0.51100000000E-03 0.  1.
         11   -1    0    0    0    0 -0.00000000000E+00 -0.00000000000E+00 -0.45593999997E+02  0.45594000000E+02  0.51100000000E-03 0. -1.
    9900012    2    1    2    0    0 -0.22441843600E+02 -0.10448702242E+02  0.20097917402E+02  0.59301670537E+02  0.49999501217E+02 0.  0.
         12    1    1    2    0    0  0.22441843600E+02  0.10448702242E+02 -0.20097917402E+02  0.31886329463E+02  0.00000000000E+00 0. -1.
         11    1    3    3    0    0 -0.14962374410E+02 -0.11911770687E+02 -0.10590872251E+02  0.21861598847E+02  0.51100000000E-03 0. -1.
        -11    1    3    3    0    0  0.75821314102E+00 -0.28496914998E+01 -0.19284016747E+01  0.35234020621E+01  0.51100000000E-03 0.  1.
        -12    1    3    3    0    0 -0.82376823309E+01  0.43127599444E+01  0.32617191328E+02  0.33916669628E+02  0.00000000000E+00 0.  1.
</event>
<event>
 7    1  0.3223600E-013  0.5930195E+02  0.7816164E-02  0.1266605E+00
        -11   -1    0    0    0    0  0.00000000000E+00  0.00000000000E+00  0.45593999997E+02  0.45594000000E+02  0.51100000000E-03 0.  1.
         11   -1    0    0    0    0 -0.00000000000E+00 -0.00000000000E+00 -0.45593999997E+02  0.45594000000E+02  0.51100000000E-03 0. -1.
    9900012    2    1    2    0    0  0.19440783673E+02 -0.82268770416E+01  0.23897587745E+02  0.59301948571E+02  0.50000008286E+02 0.  0.
         12    1    1    2    0    0 -0.19440783673E+02  0.82268770416E+01 -0.23897587745E+02  0.31886051429E+02  0.00000000000E+00 0. -1.
         11    1    3    3    0    0  0.42430440791E+01  0.67732844428E+01  0.16510458603E+01  0.81612963367E+01  0.51100000000E-03 0. -1.
        -11    1    3    3    0    0 -0.47990772006E+01  0.85645731443E+01  0.17229529747E+02  0.19830273590E+02  0.51100000000E-03 0.  1.
         12    1    3    3    0    0  0.19996816795E+02 -0.23564734629E+02  0.50170121382E+01  0.31310378644E+02  0.00000000000E+00 0. -1.
</event>
<event>
 7    1  0.3223600E-013  0.5930195E+02  0.7816164E-02  0.1266605E+00
        -11   -1    0    0    0    0  0.00000000000E+00  0.00000000000E+00  0.45593999997E+02  0.45594000000E+02  0.51100000000E-03 0.  1.
         11   -1    0    0    0    0 -0.00000000000E+00 -0.00000000000E+00 -0.45593999997E+02  0.45594000000E+02  0.51100000000E-03 0. -1.
    9900012    2    1    2    0    0 -0.26920311996E+02  0.41015010850E+01  0.16588985360E+02  0.59301953767E+02  0.50000017762E+02 0.  0.
         12    1    1    2    0    0  0.26920311996E+02 -0.41015010850E+01 -0.16588985360E+02  0.31886046233E+02  0.00000000000E+00 0. -1.
         11    1    3    3    0    0 -0.10711779880E+01 -0.83492630328E+01  0.56986243593E+01  0.10165231691E+02  0.51100000000E-03 0. -1.
        -11    1    3    3    0    0 -0.94530465124E+01 -0.13850709715E+02  0.19661382808E+01  0.16883955341E+02  0.51100000000E-03 0.  1.
         12    1    3    3    0    0 -0.16396087495E+02  0.26301473832E+02  0.89242227204E+01  0.32252766735E+02  0.00000000000E+00 0. -1.
</event>
<event>
 7    1  0.3223600E-013  0.5930204E+02  0.7816164E-02  0.1266604E+00
        -11   -1    0    0    0    0  0.00000000000E+00  0.00000000000E+00  0.45593999997E+02  0.45594000000E+02  0.51100000000E-03 0.  1.
         11   -1    0    0    0    0 -0.00000000000E+00 -0.00000000000E+00 -0.45593999997E+02  0.45594000000E+02  0.51100000000E-03 0. -1.
    9900012    2    1    2    0    0  0.15420518360E+02 -0.15473813842E+02  0.23226780221E+02  0.59302037246E+02  0.50000170007E+02 0.  0.
         12    1    1    2    0    0 -0.15420518360E+02  0.15473813842E+02 -0.23226780221E+02  0.31885962754E+02  0.00000000000E+00 0. -1.
         11    1    3    3    0    0  0.12423996119E+02 -0.22021230158E+02  0.78660348215E+01  0.26479515882E+02  0.51100000000E-03 0. -1.
        -11    1    3    3    0    0  0.50283912842E+01  0.22642615639E+01  0.23098680942E+02  0.23747855921E+02  0.51100000000E-03 0.  1.
         12    1    3    3    0    0 -0.20318690427E+01  0.42831547527E+01 -0.77379355424E+01  0.90746654429E+01  0.00000000000E+00 0. -1.
</event>
<event>
 7    1  0.3223600E-013  0.5930197E+02  0.7816164E-02  0.1266605E+00
        -11   -1    0    0    0    0  0.00000000000E+00  0.00000000000E+00  0.45593999997E+02  0.45594000000E+02  0.51100000000E-03 0.  1.
         11   -1    0    0    0    0 -0.00000000000E+00 -0.00000000000E+00 -0.45593999997E+02  0.45594000000E+02  0.51100000000E-03 0. -1.
    9900012    2    1    2    0    0  0.27307616521E+02  0.15391060147E+02  0.58419459227E+01  0.59301968816E+02  0.50000045207E+02 0.  0.
         12    1    1    2    0    0 -0.27307616521E+02 -0.15391060147E+02 -0.58419459227E+01  0.31886031184E+02  0.00000000000E+00 0. -1.
         11    1    3    3    0    0  0.23472861794E+02  0.28089052994E+01 -0.19185823620E+01  0.23718055324E+02  0.51100000000E-03 0. -1.
        -11    1    3    3    0    0  0.25444280342E+01  0.17018395058E+02 -0.81328171309E+01  0.19032671886E+02  0.51100000000E-03 0.  1.
        -12    1    3    3    0    0  0.12903266929E+01 -0.44362402112E+01  0.15893345416E+02  0.16551241606E+02  0.00000000000E+00 0.  1.
</event>
<event>
 7    1  0.3223600E-013  0.5930193E+02  0.7816164E-02  0.1266605E+00
        -11   -1    0    0    0    0  0.00000000000E+00  0.00000000000E+00  0.45593999997E+02  0.45594000000E+02  0.51100000000E-03 0. -1.
         11   -1    0    0    0    0 -0.00000000000E+00 -0.00000000000E+00 -0.45593999997E+02  0.45594000000E+02  0.51100000000E-03 0.  1.
    9900012    2    1    2    0    0 -0.18506588226E+02  0.53005098372E+01 -0.25419128322E+02  0.59301932557E+02  0.49999979081E+02 0.  0.
         12    1    1    2    0    0  0.18506588226E+02 -0.53005098372E+01  0.25419128322E+02  0.31886067443E+02  0.00000000000E+00 0. -1.
         11    1    3    3    0    0  0.10165131155E+02 -0.55785713525E+01 -0.80015370584E+01  0.14088113617E+02  0.51100000000E-03 0. -1.
        -11    1    3    3    0    0  0.23344775001E+01  0.93712998535E+01 -0.86284807606E+01  0.12950742320E+02  0.51100000000E-03 0.  1.
        -12    1    3    3    0    0 -0.31006196881E+02  0.15077813361E+01 -0.87891105032E+01  0.32263076620E+02  0.00000000000E+00 0.  1.
</event>
<event>
 7    1  0.3223600E-013  0.5930207E+02  0.7816164E-02  0.1266604E+00
        -11   -1    0    0    0    0  0.00000000000E+00  0.00000000000E+00  0.45593999997E+02  0.45594000000E+02  0.51100000000E-03 0.  1.
         11   -1    0    0    0    0 -0.00000000000E+00 -0.00000000000E+00 -0.45593999997E+02  0.45594000000E+02  0.51100000000E-03 0. -1.
    9900012    2    1    2    0    0 -0.26555514539E+02 -0.14995625334E+02  0.93085051826E+01  0.59302072064E+02  0.50000233508E+02 0.  0.
         12    1    1    2    0    0  0.26555514539E+02  0.14995625334E+02 -0.93085051826E+01  0.31885927936E+02  0.00000000000E+00 0. -1.
         11    1    3    3    0    0 -0.22794457309E+02 -0.18020763498E+02  0.85081407102E+01  0.30277444734E+02  0.51100000000E-03 0. -1.
        -11    1    3    3    0    0 -0.12808537922E+02  0.63607468930E+01  0.85427600329E+01  0.16658226015E+02  0.51100000000E-03 0.  1.
         12    1    3    3    0    0  0.90474806919E+01 -0.33356087291E+01 -0.77423955604E+01  0.12366401315E+02  0.00000000000E+00 0. -1.
</event>
<event>
 7    1  0.3223600E-013  0.5930195E+02  0.7816164E-02  0.1266605E+00
        -11   -1    0    0    0    0  0.00000000000E+00  0.00000000000E+00  0.45593999997E+02  0.45594000000E+02  0.51100000000E-03 0.  1.
         11   -1    0    0    0    0 -0.00000000000E+00 -0.00000000000E+00 -0.45593999997E+02  0.45594000000E+02  0.51100000000E-03 0. -1.
    9900012    2    1    2    0    0 -0.10090822777E+02  0.14991275950E+02  0.26270838280E+02  0.59301952850E+02  0.50000016090E+02 0.  0.
         12    1    1    2    0    0  0.10090822777E+02 -0.14991275950E+02 -0.26270838280E+02  0.31886047150E+02  0.00000000000E+00 0. -1.
         11    1    3    3    0    0 -0.71896002780E+01 -0.11523811321E+02  0.46791355364E+01  0.14366032477E+02  0.51100000000E-03 0. -1.
        -11    1    3    3    0    0 -0.15864000724E+02  0.16964070636E+02  0.14161173983E+02  0.27202666420E+02  0.51100000000E-03 0.  1.
         12    1    3    3    0    0  0.12962778226E+02  0.95510166351E+01  0.74305287601E+01  0.17733253952E+02  0.00000000000E+00 0. -1.
</event>
<event>
 7    1  0.3223600E-013  0.5930197E+02  0.7816164E-02  0.1266605E+00
        -11   -1    0    0    0    0  0.00000000000E+00  0.00000000000E+00  0.45593999997E+02  0.45594000000E+02  0.51100000000E-03 0.  1.
         11   -1    0    0    0    0 -0.00000000000E+00 -0.00000000000E+00 -0.45593999997E+02  0.45594000000E+02  0.51100000000E-03 0. -1.
    9900012    2    1    2    0    0  0.25987179906E+02  0.16614929122E+02 -0.80826565048E+01  0.59301972882E+02  0.50000052623E+02 0.  0.
         12    1    1    2    0    0 -0.25987179906E+02 -0.16614929122E+02  0.80826565048E+01  0.31886027118E+02  0.00000000000E+00 0. -1.
         11    1    3    3    0    0  0.55090605876E+01 -0.64708866439E+01  0.94804668009E+00  0.85510768494E+01  0.51100000000E-03 0. -1.
        -11    1    3    3    0    0  0.39605747280E+00  0.26445902321E+02  0.37461618795E+01  0.26712849720E+02  0.51100000000E-03 0.  1.
         12    1    3    3    0    0  0.20082061846E+02 -0.33600865550E+01 -0.12776865064E+02  0.24038046312E+02  0.00000000000E+00 0. -1.
</event>
<event>
 7    1  0.3223600E-013  0.5930199E+02  0.7816164E-02  0.1266605E+00
        -11   -1    0    0    0    0  0.00000000000E+00  0.00000000000E+00  0.45593999997E+02  0.45594000000E+02  0.51100000000E-03 0. -1.
         11   -1    0    0    0    0 -0.00000000000E+00 -0.00000000000E+00 -0.45593999997E+02  0.45594000000E+02  0.51100000000E-03 0.  1.
    9900012    2    1    2    0    0  0.27234902761E+01  0.30887970957E+02  0.74319138427E+01  0.59301992214E+02  0.50000087881E+02 0.  0.
         12    1    1    2    0    0 -0.27234902761E+01 -0.30887970957E+02 -0.74319138427E+01  0.31886007786E+02  0.00000000000E+00 0. -1.
         11    1    3    3    0    0 -0.31816468354E+00  0.80252186140E+00 -0.76729033693E+01  0.77213157221E+01  0.51100000000E-03 0. -1.
        -11    1    3    3    0    0 -0.17139201131E+02  0.21194826139E+02  0.88528483759E+01  0.28659131095E+02  0.51100000000E-03 0.  1.
         12    1    3    3    0    0  0.20180856090E+02  0.88906229567E+01  0.62519688362E+01  0.22921545398E+02  0.00000000000E+00 0. -1.
</event>
<event>
 7    1  0.3223600E-013  0.5930203E+02  0.7816164E-02  0.1266604E+00
        -11   -1    0    0    0    0  0.00000000000E+00  0.00000000000E+00  0.45593999997E+02  0.45594000000E+02  0.51100000000E-03 0. -1.
         11   -1    0    0    0    0 -0.00000000000E+00 -0.00000000000E+00 -0.45593999997E+02  0.45594000000E+02  0.51100000000E-03 0.  1.
    9900012    2    1    2    0    0  0.12700397971E+02 -0.23795855313E+02 -0.17005058888E+02  0.59302033393E+02  0.50000162980E+02 0.  0.
         12    1    1    2    0    0 -0.12700397971E+02  0.23795855313E+02  0.17005058888E+02  0.31885966607E+02  0.00000000000E+00 0. -1.
         11    1    3    3    0    0  0.22289006059E+02 -0.21780452455E+02 -0.54718329834E+01  0.31640620359E+02  0.51100000000E-03 0. -1.
        -11    1    3    3    0    0  0.76245796576E+01  0.82677959559E+00 -0.29380315244E+01  0.82127832648E+01  0.51100000000E-03 0.  1.
         12    1    3    3    0    0 -0.17213187745E+02 -0.28421824540E+01 -0.85951943805E+01  0.19448629769E+02  0.00000000000E+00 0. -1.
</event>
<event>
 7    1  0.3223600E-013  0.5930194E+02  0.7816164E-02  0.1266605E+00
        -11   -1    0    0    0    0  0.00000000000E+00  0.00000000000E+00  0.45593999997E+02  0.45594000000E+02  0.51100000000E-03 0.  1.
         11   -1    0    0    0    0 -0.00000000000E+00 -0.00000000000E+00 -0.45593999997E+02  0.45594000000E+02  0.51100000000E-03 0. -1.
    9900012    2    1    2    0    0 -0.13105097294E+02  0.11418488790E+02  0.26731911997E+02  0.59301943795E+02  0.49999999575E+02 0.  0.
         12    1    1    2    0    0  0.13105097294E+02 -0.11418488790E+02 -0.26731911997E+02  0.31886056205E+02  0.00000000000E+00 0. -1.
         11    1    3    3    0    0 -0.28816620630E+01  0.24686699947E+02 -0.21801170757E+01  0.24949750324E+02  0.51100000000E-03 0. -1.
        -11    1    3    3    0    0  0.27852293430E+00 -0.35625472212E+01  0.26483583775E+01  0.44478219484E+01  0.51100000000E-03 0.  1.
        -12    1    3    3    0    0 -0.10501958166E+02 -0.97056639360E+01  0.26263670695E+02  0.29904371522E+02  0.00000000000E+00 0.  1.
</event>
<event>
 7    1  0.3223600E-013  0.5930193E+02  0.7816164E-02  0.1266605E+00
        -11   -1    0    0    0    0  0.00000000000E+00  0.00000000000E+00  0.45593999997E+02  0.45594000000E+02  0.51100000000E-03 0. -1.
         11   -1    0    0    0    0 -0.00000000000E+00 -0.00000000000E+00 -0.45593999997E+02  0.45594000000E+02  0.51100000000E-03 0.  1.
    9900012    2    1    2    0    0 -0.18658798677E+02 -0.83676537674E+01 -0.24465343355E+02  0.59301930579E+02  0.49999975473E+02 0.  0.
         12    1    1    2    0    0  0.18658798677E+02  0.83676537674E+01  0.24465343355E+02  0.31886069421E+02  0.00000000000E+00 0. -1.
         11    1    3    3    0    0 -0.16999595295E+02 -0.45703410310E+01 -0.75218070537E+01  0.19142931828E+02  0.51100000000E-03 0. -1.
        -11    1    3    3    0    0 -0.21521120201E+01 -0.19719511532E+02 -0.13100635180E+02  0.23772197281E+02  0.51100000000E-03 0.  1.
         12    1    3    3    0    0  0.49290863821E+00  0.15922198795E+02 -0.38429011212E+01  0.16386801470E+02  0.00000000000E+00 0. -1.
</event>
<event>
 7    1  0.3223600E-013  0.5930194E+02  0.7816164E-02  0.1266605E+00
        -11   -1    0    0    0    0  0.00000000000E+00  0.00000000000E+00  0.45593999997E+02  0.45594000000E+02  0.51100000000E-03 0.  1.
         11   -1    0    0    0    0 -0.00000000000E+00 -0.00000000000E+00 -0.45593999997E+02  0.45594000000E+02  0.51100000000E-03 0. -1.
    9900012    2    1    2    0    0  0.18923826647E+02 -0.23726577500E+02 -0.97805477717E+01  0.59301940201E+02  0.49999993021E+02 0.  0.
         12    1    1    2    0    0 -0.18923826647E+02  0.23726577500E+02  0.97805477717E+01  0.31886059799E+02  0.00000000000E+00 0. -1.
         11    1    3    3    0    0 -0.12433951440E+02 -0.12671658765E+02 -0.80296711941E+01  0.19484601715E+02  0.51100000000E-03 0. -1.
        -11    1    3    3    0    0  0.10689444991E+02 -0.56975523344E+01 -0.11173266031E+02  0.16479326773E+02  0.51100000000E-03 0.  1.
        -12    1    3    3    0    0  0.20668333095E+02 -0.53573664004E+01  0.94223894534E+01  0.23338011713E+02  0.00000000000E+00 0.  1.
</event>
<event>
 7    1  0.3223600E-013  0.5930196E+02  0.7816164E-02  0.1266605E+00
        -11   -1    0    0    0    0  0.00000000000E+00  0.00000000000E+00  0.45593999997E+02  0.45594000000E+02  0.51100000000E-03 0.  1.
         11   -1    0    0    0    0 -0.00000000000E+00 -0.00000000000E+00 -0.45593999997E+02  0.45594000000E+02  0.51100000000E-03 0. -1.
    9900012    2    1    2    0    0  0.21010946446E+02  0.22942268358E+02  0.69937283633E+01  0.59301956276E+02  0.50000022338E+02 0.  0.
         12    1    1    2    0    0 -0.21010946446E+02 -0.22942268358E+02 -0.69937283633E+01  0.31886043724E+02  0.00000000000E+00 0. -1.
         11    1    3    3    0    0  0.76282911913E+00  0.19288446536E+01  0.10754232591E+02  0.10952436662E+02  0.51100000000E-03 0. -1.
        -11    1    3    3    0    0  0.27189300658E+02  0.20890296421E+02  0.75209989480E+01  0.35103104994E+02  0.51100000000E-03 0.  1.
         12    1    3    3    0    0 -0.69411833310E+01  0.12312728300E+00 -0.11281503176E+02  0.13246414619E+02  0.00000000000E+00 0. -1.
</event>
<event>
 7    1  0.3223600E-013  0.5930234E+02  0.7816164E-02  0.1266603E+00
        -11   -1    0    0    0    0  0.00000000000E+00  0.00000000000E+00  0.45593999997E+02  0.45594000000E+02  0.51100000000E-03 0.  1.
         11   -1    0    0    0    0 -0.00000000000E+00 -0.00000000000E+00 -0.45593999997E+02  0.45594000000E+02  0.51100000000E-03 0. -1.
    9900012    2    1    2    0    0  0.25980340371E+02 -0.64819988157E+01  0.17311881065E+02  0.59302335189E+02  0.50000713378E+02 0.  0.
         12    1    1    2    0    0 -0.25980340371E+02  0.64819988157E+01 -0.17311881065E+02  0.31885664811E+02  0.00000000000E+00 0. -1.
         11    1    3    3    0    0  0.26143566415E+02  0.79900063648E+00  0.16380189640E+02  0.30861546945E+02  0.51100000000E-03 0. -1.
        -11    1    3    3    0    0  0.10072588486E+02 -0.12074472794E+02  0.48869482953E+01  0.16466092310E+02  0.51100000000E-03 0.  1.
         12    1    3    3    0    0 -0.10235814530E+02  0.47934733423E+01 -0.39552568702E+01  0.11974695933E+02  0.00000000000E+00 0. -1.
</event>
<event>
 7    1  0.3223600E-013  0.5930196E+02  0.7816164E-02  0.1266605E+00
        -11   -1    0    0    0    0  0.00000000000E+00  0.00000000000E+00  0.45593999997E+02  0.45594000000E+02  0.51100000000E-03 0. -1.
         11   -1    0    0    0    0 -0.00000000000E+00 -0.00000000000E+00 -0.45593999997E+02  0.45594000000E+02  0.51100000000E-03 0.  1.
    9900012    2    1    2    0    0  0.20092877450E+02 -0.24636047259E+02  0.24619662898E+01  0.59301955611E+02  0.50000021125E+02 0.  0.
         12    1    1    2    0    0 -0.20092877450E+02  0.24636047259E+02 -0.24619662898E+01  0.31886044389E+02  0.00000000000E+00 0. -1.
         11    1    3    3    0    0  0.99476745799E+01 -0.82477818222E+01  0.22638120820E+01  0.13118954986E+02  0.51100000000E-03 0. -1.
        -11    1    3    3    0    0 -0.22265951097E+01 -0.22377908419E+02  0.14172302188E+02  0.26581622610E+02  0.51100000000E-03 0.  1.
        -12    1    3    3    0    0  0.12371797980E+02  0.59896429816E+01 -0.13974147981E+02  0.19601378015E+02  0.00000000000E+00 0.  1.
</event>
<event>
 7    1  0.3223600E-013  0.5930194E+02  0.7816164E-02  0.1266605E+00
        -11   -1    0    0    0    0  0.00000000000E+00  0.00000000000E+00  0.45593999997E+02  0.45594000000E+02  0.51100000000E-03 0.  1.
         11   -1    0    0    0    0 -0.00000000000E+00 -0.00000000000E+00 -0.45593999997E+02  0.45594000000E+02  0.51100000000E-03 0. -1.
    9900012    2    1    2    0    0  0.15659688468E+02 -0.69055337107E+01  0.26903694861E+02  0.59301936651E+02  0.49999986547E+02 0.  0.
         12    1    1    2    0    0 -0.15659688468E+02  0.69055337107E+01 -0.26903694861E+02  0.31886063349E+02  0.00000000000E+00 0. -1.
         11    1    3    3    0    0  0.20870298695E+01  0.11763749294E+02 -0.70840999727E+01  0.13889779113E+02  0.51100000000E-03 0. -1.
        -11    1    3    3    0    0  0.39280382951E+01  0.36736399751E+01  0.93214103673E+01  0.10761682350E+02  0.51100000000E-03 0.  1.
         12    1    3    3    0    0  0.96446203031E+01 -0.22342922980E+02  0.24666384466E+02  0.34650475187E+02  0.00000000000E+00 0. -1.
</event>
<event>
 7    1  0.3223600E-013  0.5930176E+02  0.7816164E-02  0.1266605E+00
        -11   -1    0    0    0    0  0.00000000000E+00  0.00000000000E+00  0.45593999997E+02  0.45594000000E+02  0.51100000000E-03 0.  1.
         11   -1    0    0    0    0 -0.00000000000E+00 -0.00000000000E+00 -0.45593999997E+02  0.45594000000E+02  0.51100000000E-03 0. -1.
    9900012    2    1    2    0    0 -0.13073736225E+02 -0.15556843400E+02  0.24572223443E+02  0.59301762838E+02  0.49999669552E+02 0.  0.
         12    1    1    2    0    0  0.13073736225E+02  0.15556843400E+02 -0.24572223443E+02  0.31886237162E+02  0.00000000000E+00 0. -1.
         11    1    3    3    0    0 -0.17857483748E+01 -0.12889513908E+02  0.25859227160E+01  0.13267081917E+02  0.51100000000E-03 0. -1.
        -11    1    3    3    0    0 -0.17425582286E+02 -0.17211041090E+02  0.15390112004E+02  0.28926223416E+02  0.51100000000E-03 0.  1.
         12    1    3    3    0    0  0.61375944355E+01  0.14543711598E+02  0.65961887228E+01  0.17108457504E+02  0.00000000000E+00 0. -1.
</event>
<event>
 7    1  0.3223600E-013  0.5930196E+02  0.7816164E-02  0.1266605E+00
        -11   -1    0    0    0    0  0.00000000000E+00  0.00000000000E+00  0.45593999997E+02  0.45594000000E+02  0.51100000000E-03 0.  1.
         11   -1    0    0    0    0 -0.00000000000E+00 -0.00000000000E+00 -0.45593999997E+02  0.45594000000E+02  0.51100000000E-03 0. -1.
    9900012    2    1    2    0    0  0.12021017192E+02 -0.14052748398E+02  0.25975660374E+02  0.59301960363E+02  0.50000029792E+02 0.  0.
         12    1    1    2    0    0 -0.12021017192E+02  0.14052748398E+02 -0.25975660374E+02  0.31886039637E+02  0.00000000000E+00 0. -1.
         11    1    3    3    0    0 -0.20813688715E+01 -0.12025669212E+01  0.11473712058E+02  0.11722812471E+02  0.51100000000E-03 0. -1.
        -11    1    3    3    0    0  0.10118256274E+02 -0.14731496187E+02  0.28090731425E+02  0.33293922602E+02  0.51100000000E-03 0.  1.
         12    1    3    3    0    0  0.39841297898E+01  0.18813147110E+01 -0.13588783109E+02  0.14285225291E+02  0.00000000000E+00 0. -1.
</event>
<event>
 7    1  0.3223600E-013  0.5930195E+02  0.7816164E-02  0.1266605E+00
        -11   -1    0    0    0    0  0.00000000000E+00  0.00000000000E+00  0.45593999997E+02  0.45594000000E+02  0.51100000000E-03 0.  1.
         11   -1    0    0    0    0 -0.00000000000E+00 -0.00000000000E+00 -0.45593999997E+02  0.45594000000E+02  0.51100000000E-03 0. -1.
    9900012    2    1    2    0    0  0.22732988142E+02 -0.11266515918E+02  0.19313133120E+02  0.59301949104E+02  0.50000009258E+02 0.  0.
         12    1    1    2    0    0 -0.22732988142E+02  0.11266515918E+02 -0.19313133120E+02  0.31886050896E+02  0.00000000000E+00 0. -1.
         11    1    3    3    0    0  0.12239703088E+02 -0.31718256227E+01 -0.15101755600E+02  0.19696035944E+02  0.51100000000E-03 0. -1.
        -11    1    3    3    0    0  0.73420720560E+01  0.28419079945E+01  0.17835458286E+02  0.19495795333E+02  0.51100000000E-03 0.  1.
        -12    1    3    3    0    0  0.31512129979E+01 -0.10936598290E+02  0.16579430433E+02  0.20110117827E+02  0.00000000000E+00 0.  1.
</event>
<event>
 7    1  0.3223600E-013  0.5930190E+02  0.7816164E-02  0.1266605E+00
        -11   -1    0    0    0    0  0.00000000000E+00  0.00000000000E+00  0.45593999997E+02  0.45594000000E+02  0.51100000000E-03 0.  1.
         11   -1    0    0    0    0 -0.00000000000E+00 -0.00000000000E+00 -0.45593999997E+02  0.45594000000E+02  0.51100000000E-03 0. -1.
    9900012    2    1    2    0    0  0.21481251529E+02  0.10757021360E+02  0.20965820538E+02  0.59301901044E+02  0.49999921609E+02 0.  0.
         12    1    1    2    0    0 -0.21481251529E+02 -0.10757021360E+02 -0.20965820538E+02  0.31886098956E+02  0.00000000000E+00 0. -1.
         11    1    3    3    0    0  0.36106887742E+01  0.98814030901E+01  0.27542639416E+02  0.29483490070E+02  0.51100000000E-03 0. -1.
        -11    1    3    3    0    0  0.52582640404E+01  0.10058695034E+02  0.27006974291E+01  0.11667067042E+02  0.51100000000E-03 0.  1.
         12    1    3    3    0    0  0.12612298714E+02 -0.91830767636E+01 -0.92775163078E+01  0.18151343932E+02  0.00000000000E+00 0. -1.
</event>
<event>
 7    1  0.3223600E-013  0.5930197E+02  0.7816164E-02  0.1266605E+00
        -11   -1    0    0    0    0  0.00000000000E+00  0.00000000000E+00  0.45593999997E+02  0.45594000000E+02  0.51100000000E-03 0. -1.
         11   -1    0    0    0    0 -0.00000000000E+00 -0.00000000000E+00 -0.45593999997E+02  0.45594000000E+02  0.51100000000E-03 0.  1.
    9900012    2    1    2    0    0 -0.19136400416E+02  0.12861642472E+02 -0.22024876596E+02  0.59301970817E+02  0.50000048858E+02 0.  0.
         12    1    1    2    0    0  0.19136400416E+02 -0.12861642472E+02  0.22024876596E+02  0.31886029183E+02  0.00000000000E+00 0. -1.
         11    1    3    3    0    0  0.14406189890E+02  0.46018329016E+01 -0.46832859564E+01  0.15831877362E+02  0.51100000000E-03 0. -1.
        -11    1    3    3    0    0 -0.38716410149E+00  0.65807158634E+01 -0.19266104104E+01  0.68678632231E+01  0.51100000000E-03 0.  1.
         12    1    3    3    0    0 -0.33155426205E+02  0.16790937067E+01 -0.15414980230E+02  0.36602230232E+02  0.00000000000E+00 0. -1.
</event>
<event>
 7    1  0.3223600E-013  0.5930194E+02  0.7816164E-02  0.1266605E+00
        -11   -1    0    0    0    0  0.00000000000E+00  0.00000000000E+00  0.45593999997E+02  0.45594000000E+02  0.51100000000E-03 0.  1.
         11   -1    0    0    0    0 -0.00000000000E+00 -0.00000000000E+00 -0.45593999997E+02  0.45594000000E+02  0.51100000000E-03 0. -1.
    9900012    2    1    2    0    0 -0.71955625059E-01 -0.24464996676E+02  0.20449446237E+02  0.59301935781E+02  0.49999984960E+02 0.  0.
         12    1    1    2    0    0  0.71955625059E-01  0.24464996676E+02 -0.20449446237E+02  0.31886064219E+02  0.00000000000E+00 0. -1.
         11    1    3    3    0    0 -0.10036804696E+02 -0.11025497164E+02  0.14401225835E+02  0.20729069975E+02  0.51100000000E-03 0. -1.
        -11    1    3    3    0    0  0.35160388427E+01 -0.23584660335E+02 -0.22716967296E+01  0.23953274068E+02  0.51100000000E-03 0.  1.
         12    1    3    3    0    0  0.64488102278E+01  0.10145160824E+02  0.83199171317E+01  0.14619591738E+02  0.00000000000E+00 0. -1.
</event>
<event>
 7    1  0.3223600E-013  0.5930191E+02  0.7816164E-02  0.1266605E+00
        -11   -1    0    0    0    0  0.00000000000E+00  0.00000000000E+00  0.45593999997E+02  0.45594000000E+02  0.51100000000E-03 0.  1.
         11   -1    0    0    0    0 -0.00000000000E+00 -0.00000000000E+00 -0.45593999997E+02  0.45594000000E+02  0.51100000000E-03 0. -1.
    9900012    2    1    2    0    0 -0.30141049163E+02  0.29715941661E+01 -0.99704408441E+01  0.59301907308E+02  0.49999933032E+02 0.  0.
         12    1    1    2    0    0  0.30141049163E+02 -0.29715941661E+01  0.99704408441E+01  0.31886092692E+02  0.00000000000E+00 0. -1.
         11    1    3    3    0    0 -0.26536465936E+02 -0.10676943102E+01 -0.11770162429E+01  0.26584005775E+02  0.51100000000E-03 0. -1.
        -11    1    3    3    0    0 -0.70057890120E+01  0.12873162505E+02  0.54324506866E+01  0.15630448275E+02  0.51100000000E-03 0.  1.
         12    1    3    3    0    0  0.34012057854E+01 -0.88338740284E+01 -0.14225875288E+02  0.17087453258E+02  0.00000000000E+00 0. -1.
</event>
<event>
 7    1  0.3223600E-013  0.5930192E+02  0.7816164E-02  0.1266605E+00
        -11   -1    0    0    0    0  0.00000000000E+00  0.00000000000E+00  0.45593999997E+02  0.45594000000E+02  0.51100000000E-03 0.  1.
         11   -1    0    0    0    0 -0.00000000000E+00 -0.00000000000E+00 -0.45593999997E+02  0.45594000000E+02  0.51100000000E-03 0. -1.
    9900012    2    1    2    0    0  0.73236626781E+01 -0.26710116951E+02  0.15800498253E+02  0.59301919532E+02  0.49999955325E+02 0.  0.
         12    1    1    2    0    0 -0.73236626781E+01  0.26710116951E+02 -0.15800498253E+02  0.31886080468E+02  0.00000000000E+00 0. -1.
         11    1    3    3    0    0 -0.10041619049E+02 -0.94366962529E+01 -0.49761440340E+01  0.14650848406E+02  0.51100000000E-03 0. -1.
        -11    1    3    3    0    0  0.11312147853E+02 -0.32512823511E+01 -0.64586647287E+01  0.13425716976E+02  0.51100000000E-03 0.  1.
         12    1    3    3    0    0  0.60531338737E+01 -0.14022138347E+02  0.27235307016E+02  0.31225354150E+02  0.00000000000E+00 0. -1.
</event>
<event>
 7    1  0.3223600E-013  0.5930197E+02  0.7816164E-02  0.1266605E+00
        -11   -1    0    0    0    0  0.00000000000E+00  0.00000000000E+00  0.45593999997E+02  0.45594000000E+02  0.51100000000E-03 0.  1.
         11   -1    0    0    0    0 -0.00000000000E+00 -0.00000000000E+00 -0.45593999997E+02  0.45594000000E+02  0.51100000000E-03 0. -1.
    9900012    2    1    2    0    0 -0.18898696468E+02  0.15676181872E+01  0.25633979334E+02  0.59301967769E+02  0.50000043298E+02 0.  0.
         12    1    1    2    0    0  0.18898696468E+02 -0.15676181872E+01 -0.25633979334E+02  0.31886032231E+02  0.00000000000E+00 0. -1.
         11    1    3    3    0    0  0.49509356124E+01 -0.35134511324E+01 -0.19261156884E+01  0.63691462697E+01  0.51100000000E-03 0. -1.
        -11    1    3    3    0    0 -0.12138817744E+02 -0.13572213533E+01 -0.82304546343E+01  0.14728656754E+02  0.51100000000E-03 0.  1.
         12    1    3    3    0    0 -0.11710814337E+02  0.64382906730E+01  0.35790549656E+02  0.38204164746E+02  0.00000000000E+00 0. -1.
</event>
<event>
 7    1  0.3223600E-013  0.5930194E+02  0.7816164E-02  0.1266605E+00
        -11   -1    0    0    0    0  0.00000000000E+00  0.00000000000E+00  0.45593999997E+02  0.45594000000E+02  0.51100000000E-03 0.  1.
         11   -1    0    0    0    0 -0.00000000000E+00 -0.00000000000E+00 -0.45593999997E+02  0.45594000000E+02  0.51100000000E-03 0. -1.
    9900012    2    1    2    0    0  0.24640629313E+02 -0.10406845654E+02  0.17356777446E+02  0.59301940778E+02  0.49999994073E+02 0.  0.
         12    1    1    2    0    0 -0.24640629313E+02  0.10406845654E+02 -0.17356777446E+02  0.31886059222E+02  0.00000000000E+00 0. -1.
         11    1    3    3    0    0  0.34265229790E+01  0.60153288155E+01 -0.52595830448E+00  0.69427568647E+01  0.51100000000E-03 0. -1.
        -11    1    3    3    0    0  0.15900174839E+02  0.97821066669E+01  0.17545616386E+02  0.25619403299E+02  0.51100000000E-03 0.  1.
         12    1    3    3    0    0  0.53139314951E+01 -0.26204281137E+02  0.33711936413E+00  0.26739780614E+02  0.00000000000E+00 0. -1.
</event>
<event>
 7    1  0.3223600E-013  0.5930193E+02  0.7816164E-02  0.1266605E+00
        -11   -1    0    0    0    0  0.00000000000E+00  0.00000000000E+00  0.45593999997E+02  0.45594000000E+02  0.51100000000E-03 0. -1.
         11   -1    0    0    0    0 -0.00000000000E+00 -0.00000000000E+00 -0.45593999997E+02  0.45594000000E+02  0.51100000000E-03 0.  1.
    9900012    2    1    2    0    0  0.47320837745E+01 -0.11658755376E+02 -0.29298503007E+02  0.59301929809E+02  0.49999974069E+02 0.  0.
         12    1    1    2    0    0 -0.47320837745E+01  0.11658755376E+02  0.29298503007E+02  0.31886070191E+02  0.00000000000E+00 0. -1.
         11    1    3    3    0    0 -0.53639778890E+01 -0.17776539482E+02 -0.22205022648E+02  0.28945477122E+02  0.51100000000E-03 0. -1.
        -11    1    3    3    0    0  0.13187702599E+02 -0.72174828276E+01 -0.21175615152E+00  0.15035039047E+02  0.51100000000E-03 0.  1.
        -12    1    3    3    0    0 -0.30916409359E+01  0.13335266934E+02 -0.68817242072E+01  0.15321413640E+02  0.00000000000E+00 0.  1.
</event>
<event>
 7    1  0.3223600E-013  0.5930200E+02  0.7816164E-02  0.1266605E+00
        -11   -1    0    0    0    0  0.00000000000E+00  0.00000000000E+00  0.45593999997E+02  0.45594000000E+02  0.51100000000E-03 0.  1.
         11   -1    0    0    0    0 -0.00000000000E+00 -0.00000000000E+00 -0.45593999997E+02  0.45594000000E+02  0.51100000000E-03 0. -1.
    9900012    2    1    2    0    0  0.16046835326E+02  0.27213096005E+02  0.43201052833E+01  0.59302002637E+02  0.50000106890E+02 0.  0.
         12    1    1    2    0    0 -0.16046835326E+02 -0.27213096005E+02 -0.43201052833E+01  0.31885997363E+02  0.00000000000E+00 0. -1.
         11    1    3    3    0    0  0.47179656405E+01  0.63023897212E+01  0.59961887950E+01  0.98961404754E+01  0.51100000000E-03 0. -1.
        -11    1    3    3    0    0  0.14912705377E+02 -0.97739968612E+01  0.32447131974E+01  0.18123133291E+02  0.51100000000E-03 0.  1.
         12    1    3    3    0    0 -0.35838356911E+01  0.30684703145E+02 -0.49207967091E+01  0.31282728871E+02  0.00000000000E+00 0. -1.
</event>
<event>
 7    1  0.3223600E-013  0.5930192E+02  0.7816164E-02  0.1266605E+00
        -11   -1    0    0    0    0  0.00000000000E+00  0.00000000000E+00  0.45593999997E+02  0.45594000000E+02  0.51100000000E-03 0. -1.
         11   -1    0    0    0    0 -0.00000000000E+00 -0.00000000000E+00 -0.45593999997E+02  0.45594000000E+02  0.51100000000E-03 0.  1.
    9900012    2    1    2    0    0  0.12989064890E+02  0.18014178786E+02 -0.22880024757E+02  0.59301921894E+02  0.49999959634E+02 0.  0.
         12    1    1    2    0    0 -0.12989064890E+02 -0.18014178786E+02  0.22880024757E+02  0.31886078106E+02  0.00000000000E+00 0. -1.
         11    1    3    3    0    0  0.11671228990E+01  0.79897606770E+01  0.21861825193E+01  0.83652761943E+01  0.51100000000E-03 0. -1.
        -11    1    3    3    0    0  0.36851189799E+01 -0.11038589362E+02  0.55510427984E+01  0.12893588849E+02  0.51100000000E-03 0.  1.
        -12    1    3    3    0    0  0.81368230114E+01  0.21063007471E+02 -0.30617250075E+02  0.38043056851E+02  0.00000000000E+00 0.  1.
</event>
<event>
 7    1  0.3223600E-013  0.5930194E+02  0.7816164E-02  0.1266605E+00
        -11   -1    0    0    0    0  0.00000000000E+00  0.00000000000E+00  0.45593999997E+02  0.45594000000E+02  0.51100000000E-03 0.  1.
         11   -1    0    0    0    0 -0.00000000000E+00 -0.00000000000E+00 -0.45593999997E+02  0.45594000000E+02  0.51100000000E-03 0. -1.
    9900012    2    1    2    0    0  0.11852603917E+02 -0.29045593426E+02  0.57087887728E+01  0.59301937429E+02  0.49999987965E+02 0.  0.
         12    1    1    2    0    0 -0.11852603917E+02  0.29045593426E+02 -0.57087887728E+01  0.31886062571E+02  0.00000000000E+00 0. -1.
         11    1    3    3    0    0 -0.31686264784E+01  0.39597870871E+01 -0.47645891616E+01  0.69585499693E+01  0.51100000000E-03 0. -1.
        -11    1    3    3    0    0  0.39270933902E+01 -0.33808451861E+02 -0.38005042059E+01  0.34247296422E+02  0.51100000000E-03 0.  1.
         12    1    3    3    0    0  0.11094137005E+02  0.80307134820E+00  0.14273882140E+02  0.18096091037E+02  0.00000000000E+00 0. -1.
</event>
<event>
 7    1  0.3223600E-013  0.5930193E+02  0.7816164E-02  0.1266605E+00
        -11   -1    0    0    0    0  0.00000000000E+00  0.00000000000E+00  0.45593999997E+02  0.45594000000E+02  0.51100000000E-03 0.  1.
         11   -1    0    0    0    0 -0.00000000000E+00 -0.00000000000E+00 -0.45593999997E+02  0.45594000000E+02  0.51100000000E-03 0. -1.
    9900012    2    1    2    0    0 -0.19882808085E+02 -0.20688678398E+02  0.13905903904E+02  0.59301927263E+02  0.49999969425E+02 0.  0.
         12    1    1    2    0    0  0.19882808085E+02  0.20688678398E+02 -0.13905903904E+02  0.31886072737E+02  0.00000000000E+00 0. -1.
         11    1    3    3    0    0  0.20606615506E+01 -0.54969706532E+01 -0.10972175134E+02  0.12443939883E+02  0.51100000000E-03 0. -1.
        -11    1    3    3    0    0 -0.23694556953E+02 -0.11666817200E+01  0.84420787780E+01  0.25180585176E+02  0.51100000000E-03 0.  1.
        -12    1    3    3    0    0  0.17510873176E+01 -0.14025026025E+02  0.16436000259E+02  0.21677402204E+02  0.00000000000E+00 0.  1.
</event>
<event>
 7    1  0.3223600E-013  0.5930196E+02  0.7816164E-02  0.1266605E+00
        -11   -1    0    0    0    0  0.00000000000E+00  0.00000000000E+00  0.45593999997E+02  0.45594000000E+02  0.51100000000E-03 0.  1.
         11   -1    0    0    0    0 -0.00000000000E+00 -0.00000000000E+00 -0.45593999997E+02  0.45594000000E+02  0.51100000000E-03 0. -1.
    9900012    2    1    2    0    0 -0.80566823706E+01  0.27326471137E+02  0.14320393207E+02  0.59301955761E+02  0.50000021399E+02 0.  0.
         12    1    1    2    0    0  0.80566823706E+01 -0.27326471137E+02 -0.14320393207E+02  0.31886044239E+02  0.00000000000E+00 0. -1.
         11    1    3    3    0    0  0.99439886702E+01  0.19968764895E+01 -0.42213603359E+01  0.10985914151E+02  0.51100000000E-03 0. -1.
        -11    1    3    3    0    0  0.76964571008E+01  0.13021890764E+02  0.17083832089E+01  0.15222472349E+02  0.51100000000E-03 0.  1.
        -12    1    3    3    0    0 -0.25697128142E+02  0.12307703883E+02  0.16833370334E+02  0.33093569261E+02  0.00000000000E+00 0.  1.
</event>
<event>
 7    1  0.3223600E-013  0.5930194E+02  0.7816164E-02  0.1266605E+00
        -11   -1    0    0    0    0  0.00000000000E+00  0.00000000000E+00  0.45593999997E+02  0.45594000000E+02  0.51100000000E-03 0.  1.
         11   -1    0    0    0    0 -0.00000000000E+00 -0.00000000000E+00 -0.45593999997E+02  0.45594000000E+02  0.51100000000E-03 0. -1.
    9900012    2    1    2    0    0 -0.14105213039E+02  0.20738594307E+02  0.19689452878E+02  0.59301939043E+02  0.49999990909E+02 0.  0.
         12    1    1    2    0    0  0.14105213039E+02 -0.20738594307E+02 -0.19689452878E+02  0.31886060957E+02  0.00000000000E+00 0. -1.
         11    1    3    3    0    0  0.22848189250E+00 -0.43806060492E+01  0.13046741800E+01  0.45764711635E+01  0.51100000000E-03 0. -1.
        -11    1    3    3    0    0  0.10254891966E+02  0.19349932175E+02  0.19670295375E+02  0.29436426496E+02  0.51100000000E-03 0.  1.
        -12    1    3    3    0    0 -0.24588586898E+02  0.57692681816E+01 -0.12855166778E+01  0.25289041384E+02  0.00000000000E+00 0.  1.
</event>
<event>
 7    1  0.3223600E-013  0.5930194E+02  0.7816164E-02  0.1266605E+00
        -11   -1    0    0    0    0  0.00000000000E+00  0.00000000000E+00  0.45593999997E+02  0.45594000000E+02  0.51100000000E-03 0.  1.
         11   -1    0    0    0    0 -0.00000000000E+00 -0.00000000000E+00 -0.45593999997E+02  0.45594000000E+02  0.51100000000E-03 0. -1.
    9900012    2    1    2    0    0  0.40287122538E+01 -0.23536419142E+02  0.21131191869E+02  0.59301940064E+02  0.49999992770E+02 0.  0.
         12    1    1    2    0    0 -0.40287122538E+01  0.23536419142E+02 -0.21131191869E+02  0.31886059936E+02  0.00000000000E+00 0. -1.
         11    1    3    3    0    0  0.27303717610E+00 -0.36322058825E+01  0.11262988469E+02  0.11837329867E+02  0.51100000000E-03 0. -1.
        -11    1    3    3    0    0  0.83494370808E+01 -0.45857986421E+01  0.24189165385E+02  0.25997276224E+02  0.51100000000E-03 0.  1.
         12    1    3    3    0    0 -0.45937620031E+01 -0.15318414618E+02 -0.14320961985E+02  0.21467333973E+02  0.00000000000E+00 0. -1.
</event>
<event>
 7    1  0.3223600E-013  0.5930196E+02  0.7816164E-02  0.1266605E+00
        -11   -1    0    0    0    0  0.00000000000E+00  0.00000000000E+00  0.45593999997E+02  0.45594000000E+02  0.51100000000E-03 0.  1.
         11   -1    0    0    0    0 -0.00000000000E+00 -0.00000000000E+00 -0.45593999997E+02  0.45594000000E+02  0.51100000000E-03 0. -1.
    9900012    2    1    2    0    0  0.65304007001E+01  0.10903128634E+02  0.29243719499E+02  0.59301961089E+02  0.50000031116E+02 0.  0.
         12    1    1    2    0    0 -0.65304007001E+01 -0.10903128634E+02 -0.29243719499E+02  0.31886038911E+02  0.00000000000E+00 0. -1.
         11    1    3    3    0    0 -0.19803527407E+01  0.47027411418E+01 -0.11566690680E+02  0.12642227050E+02  0.51100000000E-03 0. -1.
        -11    1    3    3    0    0  0.36070620058E+01  0.54575193060E+01  0.10913591409E+01  0.66322302678E+01  0.51100000000E-03 0.  1.
        -12    1    3    3    0    0  0.49036914350E+01  0.74286818597E+00  0.39719051038E+02  0.40027503772E+02  0.00000000000E+00 0.  1.
</event>
<event>
 7    1  0.3223600E-013  0.5930193E+02  0.7816164E-02  0.1266605E+00
        -11   -1    0    0    0    0  0.00000000000E+00  0.00000000000E+00  0.45593999997E+02  0.45594000000E+02  0.51100000000E-03 0. -1.
         11   -1    0    0    0    0 -0.00000000000E+00 -0.00000000000E+00 -0.45593999997E+02  0.45594000000E+02  0.51100000000E-03 0.  1.
    9900012    2    1    2    0    0  0.27061973305E+01  0.24386379381E+02 -0.20364250178E+02  0.59301926416E+02  0.49999967880E+02 0.  0.
         12    1    1    2    0    0 -0.27061973305E+01 -0.24386379381E+02  0.20364250178E+02  0.31886073584E+02  0.00000000000E+00 0. -1.
         11    1    3    3    0    0 -0.12133643868E+02  0.20138312183E+02  0.51796739757E+01  0.24075006829E+02  0.51100000000E-03 0. -1.
        -11    1    3    3    0    0 -0.19366059736E+01  0.64665438484E+01 -0.11036026799E+02  0.12936789394E+02  0.51100000000E-03 0.  1.
         12    1    3    3    0    0  0.16776447172E+02 -0.22184766504E+01 -0.14507897355E+02  0.22290130193E+02  0.00000000000E+00 0. -1.
</event>
<event>
 7    1  0.3223600E-013  0.5930194E+02  0.7816164E-02  0.1266605E+00
        -11   -1    0    0    0    0  0.00000000000E+00  0.00000000000E+00  0.45593999997E+02  0.45594000000E+02  0.51100000000E-03 0.  1.
         11   -1    0    0    0    0 -0.00000000000E+00 -0.00000000000E+00 -0.45593999997E+02  0.45594000000E+02  0.51100000000E-03 0. -1.
    9900012    2    1    2    0    0 -0.12033836008E+02 -0.27706504126E+02 -0.10210638268E+02  0.59301941702E+02  0.49999995759E+02 0.  0.
         12    1    1    2    0    0  0.12033836008E+02  0.27706504126E+02  0.10210638268E+02  0.31886058298E+02  0.00000000000E+00 0. -1.
         11    1    3    3    0    0 -0.18866020082E+02 -0.17289506347E+02 -0.20394727599E+02  0.32723060028E+02  0.51100000000E-03 0. -1.
        -11    1    3    3    0    0  0.38331169412E+01 -0.12272454700E+02 -0.27710072004E+01  0.13152353821E+02  0.51100000000E-03 0.  1.
         12    1    3    3    0    0  0.29990671331E+01  0.18554569217E+01  0.12955096532E+02  0.13426527854E+02  0.00000000000E+00 0. -1.
</event>
<event>
 7    1  0.3223600E-013  0.5930184E+02  0.7816164E-02  0.1266605E+00
        -11   -1    0    0    0    0  0.00000000000E+00  0.00000000000E+00  0.45593999997E+02  0.45594000000E+02  0.51100000000E-03 0.  1.
         11   -1    0    0    0    0 -0.00000000000E+00 -0.00000000000E+00 -0.45593999997E+02  0.45594000000E+02  0.51100000000E-03 0. -1.
    9900012    2    1    2    0    0 -0.58229529187E+01 -0.78372193891E+01  0.30354540236E+02  0.59301844676E+02  0.49999818805E+02 0.  0.
         12    1    1    2    0    0  0.58229529187E+01  0.78372193891E+01 -0.30354540236E+02  0.31886155324E+02  0.00000000000E+00 0. -1.
         11    1    3    3    0    0 -0.10128318448E+02  0.57483518824E+01 -0.21364387521E+01  0.11840217682E+02  0.51100000000E-03 0. -1.
        -11    1    3    3    0    0 -0.88573535877E+01 -0.57785604312E+01 -0.10168240527E+01  0.10624424909E+02  0.51100000000E-03 0.  1.
         12    1    3    3    0    0  0.13162719117E+02 -0.78070108403E+01  0.33507803041E+02  0.36837202085E+02  0.00000000000E+00 0. -1.
</event>
<event>
 7    1  0.3223600E-013  0.5930194E+02  0.7816164E-02  0.1266605E+00
        -11   -1    0    0    0    0  0.00000000000E+00  0.00000000000E+00  0.45593999997E+02  0.45594000000E+02  0.51100000000E-03 0.  1.
         11   -1    0    0    0    0 -0.00000000000E+00 -0.00000000000E+00 -0.45593999997E+02  0.45594000000E+02  0.51100000000E-03 0. -1.
    9900012    2    1    2    0    0  0.31307809480E+02 -0.44877093490E+01 -0.40499666893E+01  0.59301941921E+02  0.49999996157E+02 0.  0.
         12    1    1    2    0    0 -0.31307809480E+02  0.44877093490E+01  0.40499666893E+01  0.31886058079E+02  0.00000000000E+00 0. -1.
         11    1    3    3    0    0  0.62532318798E+01  0.84663291723E+01 -0.92750798437E+01  0.14028854015E+02  0.51100000000E-03 0. -1.
        -11    1    3    3    0    0  0.21614592230E+02 -0.13233616974E+01 -0.11573320227E+02  0.24553688619E+02  0.51100000000E-03 0.  1.
        -12    1    3    3    0    0  0.34399853706E+01 -0.11630676824E+02  0.16798433382E+02  0.20719399287E+02  0.00000000000E+00 0.  1.
</event>
<event>
 7    1  0.3223600E-013  0.5930190E+02  0.7816164E-02  0.1266605E+00
        -11   -1    0    0    0    0  0.00000000000E+00  0.00000000000E+00  0.45593999997E+02  0.45594000000E+02  0.51100000000E-03 0.  1.
         11   -1    0    0    0    0 -0.00000000000E+00 -0.00000000000E+00 -0.45593999997E+02  0.45594000000E+02  0.51100000000E-03 0. -1.
    9900012    2    1    2    0    0 -0.62254911462E+01  0.52899692171E+01  0.30821789938E+02  0.59301901943E+02  0.49999923247E+02 0.  0.
         12    1    1    2    0    0  0.62254911462E+01 -0.52899692171E+01 -0.30821789938E+02  0.31886098057E+02  0.00000000000E+00 0. -1.
         11    1    3    3    0    0 -0.14893821272E+02 -0.95252275598E+01  0.65881185796E+01  0.18866880474E+02  0.51100000000E-03 0. -1.
        -11    1    3    3    0    0 -0.65247009976E+01  0.97562965367E+01  0.42803534622E+00  0.11744797135E+02  0.51100000000E-03 0.  1.
        -12    1    3    3    0    0  0.15193031123E+02  0.50589002401E+01  0.23805636012E+02  0.28690224334E+02  0.00000000000E+00 0.  1.
</event>
<event>
 7    1  0.3223600E-013  0.5930196E+02  0.7816164E-02  0.1266605E+00
        -11   -1    0    0    0    0  0.00000000000E+00  0.00000000000E+00  0.45593999997E+02  0.45594000000E+02  0.51100000000E-03 0. -1.
         11   -1    0    0    0    0 -0.00000000000E+00 -0.00000000000E+00 -0.45593999997E+02  0.45594000000E+02  0.51100000000E-03 0.  1.
    9900012    2    1    2    0    0 -0.23336348613E+02 -0.21713568630E+02 -0.80948678377E+00  0.59301960765E+02  0.50000030524E+02 0.  0.
         12    1    1    2    0    0  0.23336348613E+02  0.21713568630E+02  0.80948678377E+00  0.31886039235E+02  0.00000000000E+00 0. -1.
         11    1    3    3    0    0 -0.75779609821E+01 -0.24026915916E+02  0.54680785139E+01  0.25780187431E+02  0.51100000000E-03 0. -1.
        -11    1    3    3    0    0 -0.38793789652E+01 -0.11034578215E+02 -0.98597188655E+01  0.15297893773E+02  0.51100000000E-03 0.  1.
         12    1    3    3    0    0 -0.11879008666E+02  0.13347925501E+02  0.35821535679E+01  0.18223879561E+02  0.00000000000E+00 0. -1.
</event>
<event>
 7    1  0.3223600E-013  0.5930196E+02  0.7816164E-02  0.1266605E+00
        -11   -1    0    0    0    0  0.00000000000E+00  0.00000000000E+00  0.45593999997E+02  0.45594000000E+02  0.51100000000E-03 0. -1.
         11   -1    0    0    0    0 -0.00000000000E+00 -0.00000000000E+00 -0.45593999997E+02  0.45594000000E+02  0.51100000000E-03 0.  1.
    9900012    2    1    2    0    0 -0.24146588983E+02 -0.20750958662E+02  0.17492187010E+01  0.59301955859E+02  0.50000021578E+02 0.  0.
         12    1    1    2    0    0  0.24146588983E+02  0.20750958662E+02 -0.17492187010E+01  0.31886044141E+02  0.00000000000E+00 0. -1.
         11    1    3    3    0    0  0.73286309587E+01  0.46896012825E+01 -0.89935000039E+01  0.12513362238E+02  0.51100000000E-03 0. -1.
        -11    1    3    3    0    0 -0.15193670605E+02  0.37467684091E-01  0.51272085309E+01  0.16035501173E+02  0.51100000000E-03 0.  1.
         12    1    3    3    0    0 -0.16281549337E+02 -0.25478027628E+02  0.56155101740E+01  0.30753092448E+02  0.00000000000E+00 0. -1.
</event>
<event>
 7    1  0.3223600E-013  0.5930192E+02  0.7816164E-02  0.1266605E+00
        -11   -1    0    0    0    0  0.00000000000E+00  0.00000000000E+00  0.45593999997E+02  0.45594000000E+02  0.51100000000E-03 0.  1.
         11   -1    0    0    0    0 -0.00000000000E+00 -0.00000000000E+00 -0.45593999997E+02  0.45594000000E+02  0.51100000000E-03 0. -1.
    9900012    2    1    2    0    0 -0.32630668122E+01 -0.11769826000E+02  0.29454131826E+02  0.59301916975E+02  0.49999950662E+02 0.  0.
         12    1    1    2    0    0  0.32630668122E+01  0.11769826000E+02 -0.29454131826E+02  0.31886083025E+02  0.00000000000E+00 0. -1.
         11    1    3    3    0    0  0.29330319170E+01  0.27722363525E+01  0.19193707423E+01  0.44689993206E+01  0.51100000000E-03 0. -1.
        -11    1    3    3    0    0 -0.23047590346E+01  0.21768533196E+01  0.35688490605E+02  0.35829024080E+02  0.51100000000E-03 0.  1.
         12    1    3    3    0    0 -0.38913396945E+01 -0.16718915672E+02 -0.81537295217E+01  0.19003893574E+02  0.00000000000E+00 0. -1.
</event>
<event>
 7    1  0.3223600E-013  0.5930196E+02  0.7816164E-02  0.1266605E+00
        -11   -1    0    0    0    0  0.00000000000E+00  0.00000000000E+00  0.45593999997E+02  0.45594000000E+02  0.51100000000E-03 0.  1.
         11   -1    0    0    0    0 -0.00000000000E+00 -0.00000000000E+00 -0.45593999997E+02  0.45594000000E+02  0.51100000000E-03 0. -1.
    9900012    2    1    2    0    0 -0.12804222115E+02  0.57947257007E+01  0.28621535910E+02  0.59301964377E+02  0.50000037113E+02 0.  0.
         12    1    1    2    0    0  0.12804222115E+02 -0.57947257007E+01 -0.28621535910E+02  0.31886035623E+02  0.00000000000E+00 0. -1.
         11    1    3    3    0    0  0.10314035007E+02 -0.58795123198E+01  0.48956764488E+01  0.12841948116E+02  0.51100000000E-03 0. -1.
        -11    1    3    3    0    0 -0.15256194966E+02  0.40616075284E+01  0.29960042560E+02  0.33865207678E+02  0.51100000000E-03 0.  1.
         12    1    3    3    0    0 -0.78620621558E+01  0.76126304921E+01 -0.62341830994E+01  0.12594808584E+02  0.00000000000E+00 0. -1.
</event>
<event>
 7    1  0.3223600E-013  0.5930168E+02  0.7816164E-02  0.1266606E+00
        -11   -1    0    0    0    0  0.00000000000E+00  0.00000000000E+00  0.45593999997E+02  0.45594000000E+02  0.51100000000E-03 0. -1.
         11   -1    0    0    0    0 -0.00000000000E+00 -0.00000000000E+00 -0.45593999997E+02  0.45594000000E+02  0.51100000000E-03 0.  1.
    9900012    2    1    2    0    0 -0.17228261217E+00  0.31880352945E+02 -0.59252611815E+00  0.59301675778E+02  0.49999510774E+02 0.  0.
         12    1    1    2    0    0  0.17228261217E+00 -0.31880352945E+02  0.59252611815E+00  0.31886324222E+02  0.00000000000E+00 0. -1.
         11    1    3    3    0    0 -0.18090609206E+00 -0.56170191405E+01  0.62255204786E+01  0.83869384479E+01  0.51100000000E-03 0. -1.
        -11    1    3    3    0    0  0.26140575087E+01  0.28198746921E+02  0.11214506857E+02  0.30459280833E+02  0.51100000000E-03 0.  1.
        -12    1    3    3    0    0 -0.26054340288E+01  0.92986251651E+01 -0.18032553454E+02  0.20455456497E+02  0.00000000000E+00 0.  1.
</event>
<event>
 7    1  0.3223600E-013  0.5930200E+02  0.7816164E-02  0.1266605E+00
        -11   -1    0    0    0    0  0.00000000000E+00  0.00000000000E+00  0.45593999997E+02  0.45594000000E+02  0.51100000000E-03 0.  1.
         11   -1    0    0    0    0 -0.00000000000E+00 -0.00000000000E+00 -0.45593999997E+02  0.45594000000E+02  0.51100000000E-03 0. -1.
    9900012    2    1    2    0    0 -0.30705587502E+02  0.24506693047E+01 -0.82388246352E+01  0.59301998130E+02  0.50000098669E+02 0.  0.
         12    1    1    2    0    0  0.30705587502E+02 -0.24506693047E+01  0.82388246352E+01  0.31886001870E+02  0.00000000000E+00 0. -1.
         11    1    3    3    0    0 -0.13094101000E+02 -0.17138450903E+02 -0.70165890163E+01  0.22680707705E+02  0.51100000000E-03 0. -1.
        -11    1    3    3    0    0 -0.16002395113E+02 -0.37720324021E+00  0.26348869344E+01  0.16222255116E+02  0.51100000000E-03 0.  1.
        -12    1    3    3    0    0 -0.16090913898E+01  0.19966323447E+02 -0.38571225533E+01  0.20399035308E+02  0.00000000000E+00 0.  1.
</event>
<event>
 7    1  0.3223600E-013  0.5930193E+02  0.7816164E-02  0.1266605E+00
        -11   -1    0    0    0    0  0.00000000000E+00  0.00000000000E+00  0.45593999997E+02  0.45594000000E+02  0.51100000000E-03 0.  1.
         11   -1    0    0    0    0 -0.00000000000E+00 -0.00000000000E+00 -0.45593999997E+02  0.45594000000E+02  0.51100000000E-03 0. -1.
    9900012    2    1    2    0    0 -0.10440904904E+02 -0.18254116265E+02  0.23968650127E+02  0.59301930240E+02  0.49999974854E+02 0.  0.
         12    1    1    2    0    0  0.10440904904E+02  0.18254116265E+02 -0.23968650127E+02  0.31886069760E+02  0.00000000000E+00 0. -1.
         11    1    3    3    0    0 -0.73607123297E+01 -0.97380503027E+01 -0.95403984571E+01  0.15492866509E+02  0.51100000000E-03 0. -1.
        -11    1    3    3    0    0 -0.12045866737E+01  0.95941777367E+01  0.14995245543E+02  0.17842552078E+02  0.51100000000E-03 0.  1.
        -12    1    3    3    0    0 -0.18756059009E+01 -0.18110243699E+02  0.18513803041E+02  0.25966511652E+02  0.00000000000E+00 0.  1.
</event>
<event>
 7    1  0.3223600E-013  0.5930194E+02  0.7816164E-02  0.1266605E+00
        -11   -1    0    0    0    0  0.00000000000E+00  0.00000000000E+00  0.45593999997E+02  0.45594000000E+02  0.51100000000E-03 0.  1.
         11   -1    0    0    0    0 -0.00000000000E+00 -0.00000000000E+00 -0.45593999997E+02  0.45594000000E+02  0.51100000000E-03 0. -1.
    9900012    2    1    2    0    0 -0.11497762721E+02  0.70574241792E+01  0.28891439230E+02  0.59301936517E+02  0.49999986303E+02 0.  0.
         12    1    1    2    0    0  0.11497762721E+02 -0.70574241792E+01 -0.28891439230E+02  0.31886063483E+02  0.00000000000E+00 0. -1.
         11    1    3    3    0    0  0.85352909914E-01  0.16456519226E+02  0.18075707725E+02  0.24444948766E+02  0.51100000000E-03 0. -1.
        -11    1    3    3    0    0 -0.10377488866E+02 -0.39903337993E+01  0.20716191244E+02  0.23511180721E+02  0.51100000000E-03 0.  1.
         12    1    3    3    0    0 -0.12056267651E+01 -0.54087612472E+01 -0.99004597387E+01  0.11345807030E+02  0.00000000000E+00 0. -1.
</event>
<event>
 7    1  0.3223600E-013  0.5930195E+02  0.7816164E-02  0.1266605E+00
        -11   -1    0    0    0    0  0.00000000000E+00  0.00000000000E+00  0.45593999997E+02  0.45594000000E+02  0.51100000000E-03 0.  1.
         11   -1    0    0    0    0 -0.00000000000E+00 -0.00000000000E+00 -0.45593999997E+02  0.45594000000E+02  0.51100000000E-03 0. -1.
    9900012    2    1    2    0    0 -0.13767029230E+02 -0.20428496698E+02  0.20245144969E+02  0.59301945588E+02  0.50000002846E+02 0.  0.
         12    1    1    2    0    0  0.13767029230E+02  0.20428496698E+02 -0.20245144969E+02  0.31886054412E+02  0.00000000000E+00 0. -1.
         11    1    3    3    0    0 -0.58106478007E+01  0.39007988804E+01  0.26473185506E+02  0.27382647988E+02  0.51100000000E-03 0. -1.
        -11    1    3    3    0    0 -0.32050064990E+01 -0.73343875930E+01  0.63764190861E+01  0.10233475883E+02  0.51100000000E-03 0.  1.
         12    1    3    3    0    0 -0.47513749303E+01 -0.16994907985E+02 -0.12604459623E+02  0.21685821717E+02  0.00000000000E+00 0. -1.
</event>
<event>
 7    1  0.3223600E-013  0.5930194E+02  0.7816164E-02  0.1266605E+00
        -11   -1    0    0    0    0  0.00000000000E+00  0.00000000000E+00  0.45593999997E+02  0.45594000000E+02  0.51100000000E-03 0.  1.
         11   -1    0    0    0    0 -0.00000000000E+00 -0.00000000000E+00 -0.45593999997E+02  0.45594000000E+02  0.51100000000E-03 0. -1.
    9900012    2    1    2    0    0 -0.23707535895E+02 -0.19567561484E+02  0.84725565531E+01  0.59301938230E+02  0.49999989427E+02 0.  0.
         12    1    1    2    0    0  0.23707535895E+02  0.19567561484E+02 -0.84725565531E+01  0.31886061770E+02  0.00000000000E+00 0. -1.
         11    1    3    3    0    0 -0.29864463638E+02 -0.19073724135E+02  0.23925250217E+01  0.35516437279E+02  0.51100000000E-03 0. -1.
        -11    1    3    3    0    0 -0.68442822580E+01  0.32298190706E+01 -0.22580272218E+01  0.78977603187E+01  0.51100000000E-03 0.  1.
        -12    1    3    3    0    0  0.13001210001E+02 -0.37236564191E+01  0.83380587533E+01  0.15887740632E+02  0.00000000000E+00 0.  1.
</event>
<event>
 7    1  0.3223600E-013  0.5930205E+02  0.7816164E-02  0.1266604E+00
        -11   -1    0    0    0    0  0.00000000000E+00  0.00000000000E+00  0.45593999997E+02  0.45594000000E+02  0.51100000000E-03 0. -1.
         11   -1    0    0    0    0 -0.00000000000E+00 -0.00000000000E+00 -0.45593999997E+02  0.45594000000E+02  0.51100000000E-03 0.  1.
    9900012    2    1    2    0    0 -0.23649136104E+02  0.47583103567E+01 -0.20851628199E+02  0.59302053966E+02  0.50000200501E+02 0.  0.
         12    1    1    2    0    0  0.23649136104E+02 -0.47583103567E+01  0.20851628199E+02  0.31885946034E+02  0.00000000000E+00 0. -1.
         11    1    3    3    0    0 -0.15466163468E+02  0.24161210179E+02 -0.76211884445E+01  0.29682466260E+02  0.51100000000E-03 0. -1.
        -11    1    3    3    0    0 -0.12145403972E+02 -0.97324824172E+01 -0.50981043401E+01  0.16377506519E+02  0.51100000000E-03 0.  1.
        -12    1    3    3    0    0  0.39624313356E+01 -0.96704174050E+01 -0.81323354142E+01  0.13242081187E+02  0.00000000000E+00 0.  1.
</event>
<event>
 7    1  0.3223600E-013  0.5930196E+02  0.7816164E-02  0.1266605E+00
        -11   -1    0    0    0    0  0.00000000000E+00  0.00000000000E+00  0.45593999997E+02  0.45594000000E+02  0.51100000000E-03 0. -1.
         11   -1    0    0    0    0 -0.00000000000E+00 -0.00000000000E+00 -0.45593999997E+02  0.45594000000E+02  0.51100000000E-03 0.  1.
    9900012    2    1    2    0    0  0.64243780663E+01 -0.29973568925E+02  0.87767948121E+01  0.59301959249E+02  0.50000027759E+02 0.  0.
         12    1    1    2    0    0 -0.64243780663E+01  0.29973568925E+02 -0.87767948121E+01  0.31886040751E+02  0.00000000000E+00 0. -1.
         11    1    3    3    0    0 -0.19714814449E+00  0.21717790862E+01  0.15728292792E+02  0.15878749516E+02  0.51100000000E-03 0. -1.
        -11    1    3    3    0    0 -0.61774447413E+01 -0.24347977867E+02  0.31989191948E+01  0.25322281375E+02  0.51100000000E-03 0.  1.
        -12    1    3    3    0    0  0.12798970952E+02 -0.77973701441E+01 -0.10150417175E+02  0.18100928358E+02  0.00000000000E+00 0.  1.
</event>
<event>
 7    1  0.3223600E-013  0.5930200E+02  0.7816164E-02  0.1266605E+00
        -11   -1    0    0    0    0  0.00000000000E+00  0.00000000000E+00  0.45593999997E+02  0.45594000000E+02  0.51100000000E-03 0.  1.
         11   -1    0    0    0    0 -0.00000000000E+00 -0.00000000000E+00 -0.45593999997E+02  0.45594000000E+02  0.51100000000E-03 0. -1.
    9900012    2    1    2    0    0 -0.16263724494E+02 -0.27260785145E+01  0.27290604116E+02  0.59301995052E+02  0.50000093057E+02 0.  0.
         12    1    1    2    0    0  0.16263724494E+02  0.27260785145E+01 -0.27290604116E+02  0.31886004948E+02  0.00000000000E+00 0. -1.
         11    1    3    3    0    0 -0.18191489209E+02 -0.12669662061E+02  0.26531713603E+01  0.22326888160E+02  0.51100000000E-03 0. -1.
        -11    1    3    3    0    0  0.78216350926E+01 -0.10618887740E+01 -0.14766038555E+01  0.80303139726E+01  0.51100000000E-03 0.  1.
        -12    1    3    3    0    0 -0.58938703781E+01  0.11005472321E+02  0.26114036611E+02  0.28944792920E+02  0.00000000000E+00 0.  1.
</event>
<event>
 7    1  0.3223600E-013  0.5930194E+02  0.7816164E-02  0.1266605E+00
        -11   -1    0    0    0    0  0.00000000000E+00  0.00000000000E+00  0.45593999997E+02  0.45594000000E+02  0.51100000000E-03 0. -1.
         11   -1    0    0    0    0 -0.00000000000E+00 -0.00000000000E+00 -0.45593999997E+02  0.45594000000E+02  0.51100000000E-03 0.  1.
    9900012    2    1    2    0    0 -0.20894826767E+02  0.91012402120E+01 -0.22300100789E+02  0.59301939500E+02  0.49999991743E+02 0.  0.
         12    1    1    2    0    0  0.20894826767E+02 -0.91012402120E+01  0.22300100789E+02  0.31886060500E+02  0.00000000000E+00 0. -1.
         11    1    3    3    0    0 -0.93635933722E+01 -0.96815838717E+01 -0.26905602653E+01  0.13734957659E+02  0.51100000000E-03 0. -1.
        -11    1    3    3    0    0 -0.19597451015E+02  0.24337990653E+02 -0.13620422034E+02  0.34086856293E+02  0.51100000000E-03 0.  1.
         12    1    3    3    0    0  0.80662176208E+01 -0.55551665690E+01 -0.59891184892E+01  0.11480125548E+02  0.00000000000E+00 0. -1.
</event>
<event>
 7    1  0.3223600E-013  0.5930194E+02  0.7816164E-02  0.1266605E+00
        -11   -1    0    0    0    0  0.00000000000E+00  0.00000000000E+00  0.45593999997E+02  0.45594000000E+02  0.51100000000E-03 0.  1.
         11   -1    0    0    0    0 -0.00000000000E+00 -0.00000000000E+00 -0.45593999997E+02  0.45594000000E+02  0.51100000000E-03 0. -1.
    9900012    2    1    2    0    0 -0.24392130072E+02 -0.17840721571E+02  0.10171213300E+02  0.59301938224E+02  0.49999989415E+02 0.  0.
         12    1    1    2    0    0  0.24392130072E+02  0.17840721571E+02 -0.10171213300E+02  0.31886061776E+02  0.00000000000E+00 0. -1.
         11    1    3    3    0    0  0.24305871488E+01 -0.58520090058E+01 -0.72226180827E+01  0.96083284458E+01  0.51100000000E-03 0. -1.
        -11    1    3    3    0    0 -0.26499788439E+02 -0.17496972544E+02  0.32671010344E+00  0.31756724883E+02  0.51100000000E-03 0.  1.
         12    1    3    3    0    0 -0.32292878193E+00  0.55082599791E+01  0.17067121279E+02  0.17936884895E+02  0.00000000000E+00 0. -1.
</event>
<event>
 7    1  0.3223600E-013  0.5930194E+02  0.7816164E-02  0.1266605E+00
        -11   -1    0    0    0    0  0.00000000000E+00  0.00000000000E+00  0.45593999997E+02  0.45594000000E+02  0.51100000000E-03 0. -1.
         11   -1    0    0    0    0 -0.00000000000E+00 -0.00000000000E+00 -0.45593999997E+02  0.45594000000E+02  0.51100000000E-03 0.  1.
    9900012    2    1    2    0    0  0.89380275756E+01  0.30549084251E+02 -0.18936010023E+01  0.59301943325E+02  0.49999998719E+02 0.  0.
         12    1    1    2    0    0 -0.89380275756E+01 -0.30549084251E+02  0.18936010023E+01  0.31886056675E+02  0.00000000000E+00 0. -1.
         11    1    3    3    0    0  0.90977442663E+01  0.12780305586E+02  0.12637408605E+02  0.20144707943E+02  0.51100000000E-03 0. -1.
        -11    1    3    3    0    0  0.13536951076E+02  0.15819168578E+01 -0.32258850476E+00  0.13632885570E+02  0.51100000000E-03 0.  1.
         12    1    3    3    0    0 -0.13696667766E+02  0.16186861807E+02 -0.14208421103E+02  0.25524349812E+02  0.00000000000E+00 0. -1.
</event>
<event>
 7    1  0.4314911E-013  0.5930200E+02  0.7816164E-02  0.1266605E+00
        -11   -1    0    0    0    0  0.00000000000E+00  0.00000000000E+00  0.45593999997E+02  0.45594000000E+02  0.51100000000E-03 0.  1.
         11   -1    0    0    0    0 -0.00000000000E+00 -0.00000000000E+00 -0.45593999997E+02  0.45594000000E+02  0.51100000000E-03 0. -1.
    9900012    2    1    2    0    0  0.31346458761E+02 -0.53106071728E+01  0.24318063828E+01  0.59302004521E+02  0.50000110324E+02 0.  0.
         12    1    1    2    0    0 -0.31346458761E+02  0.53106071728E+01 -0.24318063828E+01  0.31885995479E+02  0.00000000000E+00 0. -1.
         11    1    3    3    0    0 -0.91947100822E+00  0.55127393124E+01 -0.96188090102E+01  0.11124621733E+02  0.51100000000E-03 0. -1.
        -11    1    3    3    0    0  0.20097830041E+02  0.99318827094E+01  0.37677226194E+01  0.22732373403E+02  0.51100000000E-03 0.  1.
        -12    1    3    3    0    0  0.12168099729E+02 -0.20755229195E+02  0.82828927735E+01  0.25445009385E+02  0.00000000000E+00 0.  1.
</event>
<event>
 7    1  0.3223600E-013  0.5930194E+02  0.7816164E-02  0.1266605E+00
        -11   -1    0    0    0    0  0.00000000000E+00  0.00000000000E+00  0.45593999997E+02  0.45594000000E+02  0.51100000000E-03 0. -1.
         11   -1    0    0    0    0 -0.00000000000E+00 -0.00000000000E+00 -0.45593999997E+02  0.45594000000E+02  0.51100000000E-03 0.  1.
    9900012    2    1    2    0    0 -0.25319012702E+02 -0.73073546690E+01 -0.17951900985E+02  0.59301943714E+02  0.49999999428E+02 0.  0.
         12    1    1    2    0    0  0.25319012702E+02  0.73073546690E+01  0.17951900985E+02  0.31886056286E+02  0.00000000000E+00 0. -1.
         11    1    3    3    0    0  0.46570006304E+01  0.25529918066E+01 -0.16360172068E+02  0.17200600349E+02  0.51100000000E-03 0.  1.
        -11    1    3    3    0    0 -0.48960228791E+01  0.73982423197E+01  0.60181443383E+01  0.10720218794E+02  0.51100000000E-03 0. -1.
         12    1    3    3    0    0 -0.25079990453E+02 -0.17258588795E+02 -0.76098732561E+01  0.31381124571E+02  0.00000000000E+00 0. -1.
</event>
<event>
 7    1  0.3223600E-013  0.5930188E+02  0.7816164E-02  0.1266605E+00
        -11   -1    0    0    0    0  0.00000000000E+00  0.00000000000E+00  0.45593999997E+02  0.45594000000E+02  0.51100000000E-03 0.  1.
         11   -1    0    0    0    0 -0.00000000000E+00 -0.00000000000E+00 -0.45593999997E+02  0.45594000000E+02  0.51100000000E-03 0. -1.
    9900012    2    1    2    0    0 -0.95037025597E+01 -0.26990034755E+02 -0.14069200496E+02  0.59301878551E+02  0.49999880586E+02 0.  0.
         12    1    1    2    0    0  0.95037025597E+01  0.26990034755E+02  0.14069200496E+02  0.31886121449E+02  0.00000000000E+00 0. -1.
         11    1    3    3    0    0 -0.55378405294E+01  0.38190260490E+01 -0.45204343890E+01  0.81047495346E+01  0.51100000000E-03 0. -1.
        -11    1    3    3    0    0  0.87811976055E+01 -0.19542897659E+02 -0.21542001498E+02  0.30382430928E+02  0.51100000000E-03 0.  1.
        -12    1    3    3    0    0 -0.12747059636E+02 -0.11266163145E+02  0.11993235391E+02  0.20814698088E+02  0.00000000000E+00 0.  1.
</event>
<event>
 7    1  0.3223600E-013  0.5930198E+02  0.7816164E-02  0.1266605E+00
        -11   -1    0    0    0    0  0.00000000000E+00  0.00000000000E+00  0.45593999997E+02  0.45594000000E+02  0.51100000000E-03 0. -1.
         11   -1    0    0    0    0 -0.00000000000E+00 -0.00000000000E+00 -0.45593999997E+02  0.45594000000E+02  0.51100000000E-03 0.  1.
    9900012    2    1    2    0    0 -0.30077807878E+01 -0.16764873807E+01 -0.31699546081E+02  0.59301975210E+02  0.50000056869E+02 0.  0.
         12    1    1    2    0    0  0.30077807878E+01  0.16764873807E+01  0.31699546081E+02  0.31886024790E+02  0.00000000000E+00 0. -1.
         11    1    3    3    0    0  0.62411372135E-02 -0.16809254951E+02 -0.14146821296E+01  0.16868681535E+02  0.51100000000E-03 0. -1.
        -11    1    3    3    0    0  0.47717829281E+01  0.19396741372E+01  0.28799392145E+01  0.59013810428E+01  0.51100000000E-03 0.  1.
        -12    1    3    3    0    0 -0.77858048531E+01  0.13193093433E+02 -0.33164803165E+02  0.36531912632E+02  0.00000000000E+00 0.  1.
</event>
<event>
 7    1  0.3223600E-013  0.5930194E+02  0.7816164E-02  0.1266605E+00
        -11   -1    0    0    0    0  0.00000000000E+00  0.00000000000E+00  0.45593999997E+02  0.45594000000E+02  0.51100000000E-03 0.  1.
         11   -1    0    0    0    0 -0.00000000000E+00 -0.00000000000E+00 -0.45593999997E+02  0.45594000000E+02  0.51100000000E-03 0. -1.
    9900012    2    1    2    0    0 -0.74509915164E+01 -0.14874503181E+02  0.27202076027E+02  0.59301936279E+02  0.49999985868E+02 0.  0.
         12    1    1    2    0    0  0.74509915164E+01  0.14874503181E+02 -0.27202076027E+02  0.31886063721E+02  0.00000000000E+00 0. -1.
         11    1    3    3    0    0 -0.16018294157E+02 -0.16384068965E+02 -0.24367619118E+01  0.23042596911E+02  0.51100000000E-03 0. -1.
        -11    1    3    3    0    0 -0.42745450479E+01  0.23874120924E+01  0.11967923802E+01  0.50402166747E+01  0.51100000000E-03 0.  1.
         12    1    3    3    0    0  0.12841847688E+02 -0.87784630868E+00  0.28442045558E+02  0.31219122693E+02  0.00000000000E+00 0. -1.
</event>
<event>
 7    1  0.3223600E-013  0.5930188E+02  0.7816164E-02  0.1266605E+00
        -11   -1    0    0    0    0  0.00000000000E+00  0.00000000000E+00  0.45593999997E+02  0.45594000000E+02  0.51100000000E-03 0. -1.
         11   -1    0    0    0    0 -0.00000000000E+00 -0.00000000000E+00 -0.45593999997E+02  0.45594000000E+02  0.51100000000E-03 0.  1.
    9900012    2    1    2    0    0 -0.26302244349E+02  0.17853309952E+02 -0.24850987093E+01  0.59301883121E+02  0.49999888921E+02 0.  0.
         12    1    1    2    0    0  0.26302244349E+02 -0.17853309952E+02  0.24850987093E+01  0.31886116879E+02  0.00000000000E+00 0. -1.
         11    1    3    3    0    0 -0.87124810948E+01 -0.37228227214E+01  0.85713897343E+01  0.12776363257E+02  0.51100000000E-03 0. -1.
        -11    1    3    3    0    0  0.17984397806E+01 -0.59361017923E+01 -0.11273726437E+02  0.12867346198E+02  0.51100000000E-03 0.  1.
        -12    1    3    3    0    0 -0.19388203035E+02  0.27512234466E+02  0.21723799348E+00  0.33658173666E+02  0.00000000000E+00 0.  1.
</event>
<event>
 7    1  0.3223600E-013  0.5930192E+02  0.7816164E-02  0.1266605E+00
        -11   -1    0    0    0    0  0.00000000000E+00  0.00000000000E+00  0.45593999997E+02  0.45594000000E+02  0.51100000000E-03 0. -1.
         11   -1    0    0    0    0 -0.00000000000E+00 -0.00000000000E+00 -0.45593999997E+02  0.45594000000E+02  0.51100000000E-03 0.  1.
    9900012    2    1    2    0    0  0.30189001169E+02 -0.10078763514E+02  0.19402723649E+01  0.59301922750E+02  0.49999961195E+02 0.  0.
         12    1    1    2    0    0 -0.30189001169E+02  0.10078763514E+02 -0.19402723649E+01  0.31886077250E+02  0.00000000000E+00 0. -1.
         11    1    3    3    0    0 -0.65413577865E+01  0.12573492754E+01 -0.24722899372E+01  0.71051042699E+01  0.51100000000E-03 0. -1.
        -11    1    3    3    0    0 -0.23649545788E+01 -0.11098996366E+02 -0.43108929713E+01  0.12139379266E+02  0.51100000000E-03 0.  1.
         12    1    3    3    0    0  0.39095313534E+02 -0.23711642292E+00  0.87234552734E+01  0.40057439214E+02  0.00000000000E+00 0. -1.
</event>
<event>
 7    1  0.3223600E-013  0.5930200E+02  0.7816164E-02  0.1266605E+00
        -11   -1    0    0    0    0  0.00000000000E+00  0.00000000000E+00  0.45593999997E+02  0.45594000000E+02  0.51100000000E-03 0. -1.
         11   -1    0    0    0    0 -0.00000000000E+00 -0.00000000000E+00 -0.45593999997E+02  0.45594000000E+02  0.51100000000E-03 0.  1.
    9900012    2    1    2    0    0 -0.98491266038E+01  0.82738552118E+01 -0.29176272881E+02  0.59302001911E+02  0.50000105565E+02 0.  0.
         12    1    1    2    0    0  0.98491266038E+01 -0.82738552118E+01  0.29176272881E+02  0.31885998089E+02  0.00000000000E+00 0. -1.
         11    1    3    3    0    0 -0.81700767068E+01 -0.51452140690E+01 -0.15250930414E+02  0.18050325758E+02  0.51100000000E-03 0. -1.
        -11    1    3    3    0    0 -0.16609066551E+02  0.33392799334E+01 -0.15767554583E+02  0.23143631088E+02  0.51100000000E-03 0.  1.
        -12    1    3    3    0    0  0.14930016654E+02  0.10079789347E+02  0.18422121166E+01  0.18108045064E+02  0.00000000000E+00 0.  1.
</event>
<event>
 7    1  0.3223600E-013  0.5930194E+02  0.7816164E-02  0.1266605E+00
        -11   -1    0    0    0    0  0.00000000000E+00  0.00000000000E+00  0.45593999997E+02  0.45594000000E+02  0.51100000000E-03 0. -1.
         11   -1    0    0    0    0 -0.00000000000E+00 -0.00000000000E+00 -0.45593999997E+02  0.45594000000E+02  0.51100000000E-03 0.  1.
    9900012    2    1    2    0    0 -0.79290333311E+00 -0.18911652139E+02 -0.25660112455E+02  0.59301942647E+02  0.49999997482E+02 0.  0.
         12    1    1    2    0    0  0.79290333311E+00  0.18911652139E+02  0.25660112455E+02  0.31886057353E+02  0.00000000000E+00 0. -1.
         11    1    3    3    0    0 -0.12964649998E+02  0.14016335637E+01 -0.23658886960E+02  0.27014619351E+02  0.51100000000E-03 0. -1.
        -11    1    3    3    0    0 -0.54965571584E+01 -0.29294865793E+01  0.31371315303E+01  0.69739247711E+01  0.51100000000E-03 0.  1.
        -12    1    3    3    0    0  0.17668303824E+02 -0.17383799124E+02 -0.51383570256E+01  0.25313398525E+02  0.00000000000E+00 0.  1.
</event>
<event>
 7    1  0.3223600E-013  0.5930201E+02  0.7816164E-02  0.1266605E+00
        -11   -1    0    0    0    0  0.00000000000E+00  0.00000000000E+00  0.45593999997E+02  0.45594000000E+02  0.51100000000E-03 0.  1.
         11   -1    0    0    0    0 -0.00000000000E+00 -0.00000000000E+00 -0.45593999997E+02  0.45594000000E+02  0.51100000000E-03 0. -1.
    9900012    2    1    2    0    0  0.25278578865E+01 -0.20409862152E+02  0.24367274237E+02  0.59302006331E+02  0.50000113626E+02 0.  0.
         12    1    1    2    0    0 -0.25278578865E+01  0.20409862152E+02 -0.24367274237E+02  0.31885993669E+02  0.00000000000E+00 0. -1.
         11    1    3    3    0    0  0.94515829859E+01 -0.13682002381E+02 -0.82865862334E+01  0.18579481203E+02  0.51100000000E-03 0. -1.
        -11    1    3    3    0    0 -0.39654440874E+01 -0.10382459657E+02  0.41972927533E+01  0.11880129716E+02  0.51100000000E-03 0.  1.
        -12    1    3    3    0    0 -0.29582810120E+01  0.36545998869E+01  0.28456567717E+02  0.28842395412E+02  0.00000000000E+00 0.  1.
</event>
<event>
 7    1  0.3223600E-013  0.5930196E+02  0.7816164E-02  0.1266605E+00
        -11   -1    0    0    0    0  0.00000000000E+00  0.00000000000E+00  0.45593999997E+02  0.45594000000E+02  0.51100000000E-03 0.  1.
         11   -1    0    0    0    0 -0.00000000000E+00 -0.00000000000E+00 -0.45593999997E+02  0.45594000000E+02  0.51100000000E-03 0. -1.
    9900012    2    1    2    0    0 -0.30911928047E+01 -0.17739437130E+02  0.26314943804E+02  0.59301962773E+02  0.50000034187E+02 0.  0.
         12    1    1    2    0    0  0.30911928047E+01  0.17739437130E+02 -0.26314943804E+02  0.31886037227E+02  0.00000000000E+00 0. -1.
         11    1    3    3    0    0  0.15113444700E+02 -0.58507201828E+01  0.14048391277E+01  0.16267166643E+02  0.51100000000E-03 0. -1.
        -11    1    3    3    0    0 -0.79202581059E+01 -0.13929752533E+02  0.17365756176E-01  0.16024006862E+02  0.51100000000E-03 0.  1.
        -12    1    3    3    0    0 -0.10284379399E+02  0.20410355855E+01  0.24892738920E+02  0.27010789267E+02  0.00000000000E+00 0.  1.
</event>
<event>
 7    1  0.3223600E-013  0.5930194E+02  0.7816164E-02  0.1266605E+00
        -11   -1    0    0    0    0  0.00000000000E+00  0.00000000000E+00  0.45593999997E+02  0.45594000000E+02  0.51100000000E-03 0. -1.
         11   -1    0    0    0    0 -0.00000000000E+00 -0.00000000000E+00 -0.45593999997E+02  0.45594000000E+02  0.51100000000E-03 0.  1.
    9900012    2    1    2    0    0 -0.30959525995E+02 -0.66682843970E+01 -0.37097581574E+01  0.59301943922E+02  0.49999999806E+02 0.  0.
         12    1    1    2    0    0  0.30959525995E+02  0.66682843970E+01  0.37097581574E+01  0.31886056078E+02  0.00000000000E+00 0. -1.
         11    1    3    3    0    0 -0.15892341997E+02 -0.96948128778E+01 -0.31582827666E+01  0.18882020051E+02  0.51100000000E-03 0. -1.
        -11    1    3    3    0    0 -0.17798658645E+02 -0.10341338129E+02  0.10270827686E+02  0.23004900031E+02  0.51100000000E-03 0.  1.
         12    1    3    3    0    0  0.27314746468E+01  0.13367866610E+02 -0.10822303076E+02  0.17415023839E+02  0.00000000000E+00 0. -1.
</event>
<event>
 7    1  0.3223600E-013  0.5930196E+02  0.7816164E-02  0.1266605E+00
        -11   -1    0    0    0    0  0.00000000000E+00  0.00000000000E+00  0.45593999997E+02  0.45594000000E+02  0.51100000000E-03 0. -1.
         11   -1    0    0    0    0 -0.00000000000E+00 -0.00000000000E+00 -0.45593999997E+02  0.45594000000E+02  0.51100000000E-03 0.  1.
    9900012    2    1    2    0    0  0.12999961930E+02 -0.73299552950E+00 -0.29106414635E+02  0.59301958139E+02  0.50000025736E+02 0.  0.
         12    1    1    2    0    0 -0.12999961930E+02  0.73299552950E+00  0.29106414635E+02  0.31886041861E+02  0.00000000000E+00 0. -1.
         11    1    3    3    0    0 -0.16740584921E+02  0.65996621776E+01 -0.18481673773E+01  0.18089180392E+02  0.51100000000E-03 0. -1.
        -11    1    3    3    0    0  0.74778163703E+01 -0.23951154414E-01 -0.64355390620E+01  0.98658235645E+01  0.51100000000E-03 0.  1.
        -12    1    3    3    0    0  0.22262730480E+02 -0.73087065527E+01 -0.20822708196E+02  0.31346954183E+02  0.00000000000E+00 0.  1.
</event>
<event>
 7    1  0.3223600E-013  0.5930208E+02  0.7816164E-02  0.1266604E+00
        -11   -1    0    0    0    0  0.00000000000E+00  0.00000000000E+00  0.45593999997E+02  0.45594000000E+02  0.51100000000E-03 0.  1.
         11   -1    0    0    0    0 -0.00000000000E+00 -0.00000000000E+00 -0.45593999997E+02  0.45594000000E+02  0.51100000000E-03 0. -1.
    9900012    2    1    2    0    0  0.19832678339E+02  0.24873042027E+02 -0.21698646726E+01  0.59302083634E+02  0.50000254608E+02 0.  0.
         12    1    1    2    0    0 -0.19832678339E+02 -0.24873042027E+02  0.21698646726E+01  0.31885916366E+02  0.00000000000E+00 0. -1.
         11    1    3    3    0    0  0.10105521226E+01 -0.49564760083E+00 -0.14241906561E+02  0.14286314601E+02  0.51100000000E-03 0. -1.
        -11    1    3    3    0    0  0.77903372149E+01  0.13009589515E+02 -0.94415263361E+01  0.17862843925E+02  0.51100000000E-03 0.  1.
        -12    1    3    3    0    0  0.11031789002E+02  0.12359100114E+02  0.21513568224E+02  0.27152925108E+02  0.00000000000E+00 0.  1.
</event>
<event>
 7    1  0.3223600E-013  0.5930195E+02  0.7816164E-02  0.1266605E+00
        -11   -1    0    0    0    0  0.00000000000E+00  0.00000000000E+00  0.45593999997E+02  0.45594000000E+02  0.51100000000E-03 0.  1.
         11   -1    0    0    0    0 -0.00000000000E+00 -0.00000000000E+00 -0.45593999997E+02  0.45594000000E+02  0.51100000000E-03 0. -1.
    9900012    2    1    2    0    0 -0.10551558623E+02 -0.17739327312E+02  0.24304347190E+02  0.59301946384E+02  0.50000004298E+02 0.  0.
         12    1    1    2    0    0  0.10551558623E+02  0.17739327312E+02 -0.24304347190E+02  0.31886053616E+02  0.00000000000E+00 0. -1.
         11    1    3    3    0    0  0.13000424133E+02  0.16160565762E+00  0.91700624255E+00  0.13033727201E+02  0.51100000000E-03 0. -1.
        -11    1    3    3    0    0  0.77148199971E+00 -0.14372429713E+02  0.39281891591E+01  0.14919537213E+02  0.51100000000E-03 0.  1.
        -12    1    3    3    0    0 -0.24323464756E+02 -0.35285032572E+01  0.19459151788E+02  0.31348681970E+02  0.00000000000E+00 0.  1.
</event>
<event>
 7    1  0.3223600E-013  0.5930194E+02  0.7816164E-02  0.1266605E+00
        -11   -1    0    0    0    0  0.00000000000E+00  0.00000000000E+00  0.45593999997E+02  0.45594000000E+02  0.51100000000E-03 0. -1.
         11   -1    0    0    0    0 -0.00000000000E+00 -0.00000000000E+00 -0.45593999997E+02  0.45594000000E+02  0.51100000000E-03 0.  1.
    9900012    2    1    2    0    0  0.13919311674E+02 -0.22497243515E+01 -0.28599167667E+02  0.59301938964E+02  0.49999990765E+02 0.  0.
         12    1    1    2    0    0 -0.13919311674E+02  0.22497243515E+01  0.28599167667E+02  0.31886061036E+02  0.00000000000E+00 0. -1.
         11    1    3    3    0    0  0.51673278851E+01 -0.30685744561E+01 -0.17166888974E+02  0.18188444243E+02  0.51100000000E-03 0. -1.
        -11    1    3    3    0    0  0.20078226596E+02  0.39561285302E+01 -0.18341048615E+02  0.27480542221E+02  0.51100000000E-03 0.  1.
         12    1    3    3    0    0 -0.11326242808E+02 -0.31372784256E+01  0.69087699217E+01  0.13632952501E+02  0.00000000000E+00 0. -1.
</event>
<event>
 7    1  0.3223600E-013  0.5930197E+02  0.7816164E-02  0.1266605E+00
        -11   -1    0    0    0    0  0.00000000000E+00  0.00000000000E+00  0.45593999997E+02  0.45594000000E+02  0.51100000000E-03 0. -1.
         11   -1    0    0    0    0 -0.00000000000E+00 -0.00000000000E+00 -0.45593999997E+02  0.45594000000E+02  0.51100000000E-03 0.  1.
    9900012    2    1    2    0    0 -0.69007065948E+00 -0.15699717256E+02 -0.27744577985E+02  0.59301969720E+02  0.50000046856E+02 0.  0.
         12    1    1    2    0    0  0.69007065948E+00  0.15699717256E+02  0.27744577985E+02  0.31886030280E+02  0.00000000000E+00 0. -1.
         11    1    3    3    0    0 -0.84031761947E+01 -0.20865889373E+02 -0.51062941086E+01  0.23066706512E+02  0.51100000000E-03 0. -1.
        -11    1    3    3    0    0  0.83252089808E+01 -0.10050196281E+02 -0.98804461972E+01  0.16368835242E+02  0.51100000000E-03 0.  1.
         12    1    3    3    0    0 -0.61210344561E+00  0.15216368399E+02 -0.12757837680E+02  0.19866427966E+02  0.00000000000E+00 0. -1.
</event>
<event>
 7    1  0.3223600E-013  0.5930195E+02  0.7816164E-02  0.1266605E+00
        -11   -1    0    0    0    0  0.00000000000E+00  0.00000000000E+00  0.45593999997E+02  0.45594000000E+02  0.51100000000E-03 0.  1.
         11   -1    0    0    0    0 -0.00000000000E+00 -0.00000000000E+00 -0.45593999997E+02  0.45594000000E+02  0.51100000000E-03 0. -1.
    9900012    2    1    2    0    0  0.17777378917E+02 -0.18256307535E+02  0.19167471921E+02  0.59301953744E+02  0.50000017721E+02 0.  0.
         12    1    1    2    0    0 -0.17777378917E+02  0.18256307535E+02 -0.19167471921E+02  0.31886046256E+02  0.00000000000E+00 0. -1.
         11    1    3    3    0    0  0.90563222002E+01 -0.11396326243E+01 -0.85751602242E+01  0.12523941370E+02  0.51100000000E-03 0. -1.
        -11    1    3    3    0    0  0.51647619774E+01  0.94173244189E+01  0.98873737968E+01  0.14598661800E+02  0.51100000000E-03 0.  1.
        -12    1    3    3    0    0  0.35562947397E+01 -0.26533999329E+02  0.17855258348E+02  0.32179350574E+02  0.00000000000E+00 0.  1.
</event>
<event>
 7    1  0.3223600E-013  0.5930196E+02  0.7816164E-02  0.1266605E+00
        -11   -1    0    0    0    0  0.00000000000E+00  0.00000000000E+00  0.45593999997E+02  0.45594000000E+02  0.51100000000E-03 0. -1.
         11   -1    0    0    0    0 -0.00000000000E+00 -0.00000000000E+00 -0.45593999997E+02  0.45594000000E+02  0.51100000000E-03 0.  1.
    9900012    2    1    2    0    0  0.27676051053E+02  0.11658716455E+02  0.10715883623E+02  0.59301958648E+02  0.50000026664E+02 0.  0.
         12    1    1    2    0    0 -0.27676051053E+02 -0.11658716455E+02 -0.10715883623E+02  0.31886041352E+02  0.00000000000E+00 0. -1.
         11    1    3    3    0    0  0.30357822510E+02  0.75140570915E+01 -0.11872439097E+02  0.33451655443E+02  0.51100000000E-03 0. -1.
        -11    1    3    3    0    0  0.73880510896E+00  0.14949466638E+01 -0.94894516703E+00  0.19186442369E+01  0.51100000000E-03 0.  1.
         12    1    3    3    0    0 -0.34205765656E+01  0.26497127001E+01  0.23537267886E+02  0.23931658969E+02  0.00000000000E+00 0. -1.
</event>
<event>
 7    1  0.3223600E-013  0.5930195E+02  0.7816164E-02  0.1266605E+00
        -11   -1    0    0    0    0  0.00000000000E+00  0.00000000000E+00  0.45593999997E+02  0.45594000000E+02  0.51100000000E-03 0.  1.
         11   -1    0    0    0    0 -0.00000000000E+00 -0.00000000000E+00 -0.45593999997E+02  0.45594000000E+02  0.51100000000E-03 0. -1.
    9900012    2    1    2    0    0  0.11888559120E+02 -0.26108092626E+02  0.13919408315E+02  0.59301948718E+02  0.50000008554E+02 0.  0.
         12    1    1    2    0    0 -0.11888559120E+02  0.26108092626E+02 -0.13919408315E+02  0.31886051282E+02  0.00000000000E+00 0. -1.
         11    1    3    3    0    0 -0.14967900649E+02 -0.10369224302E+02 -0.10817131932E+01  0.18240859798E+02  0.51100000000E-03 0. -1.
        -11    1    3    3    0    0  0.59667034324E+00 -0.70249242675E+01  0.11057115233E+02  0.13113556879E+02  0.51100000000E-03 0.  1.
        -12    1    3    3    0    0  0.26259789426E+02 -0.87139440566E+01  0.39440062752E+01  0.27947532042E+02  0.00000000000E+00 0.  1.
</event>
<event>
 7    1  0.3223600E-013  0.5930193E+02  0.7816164E-02  0.1266605E+00
        -11   -1    0    0    0    0  0.00000000000E+00  0.00000000000E+00  0.45593999997E+02  0.45594000000E+02  0.51100000000E-03 0.  1.
         11   -1    0    0    0    0 -0.00000000000E+00 -0.00000000000E+00 -0.45593999997E+02  0.45594000000E+02  0.51100000000E-03 0. -1.
    9900012    2    1    2    0    0  0.28010633264E+02 -0.11946473573E+02  0.94555543763E+01  0.59301932271E+02  0.49999978559E+02 0.  0.
         12    1    1    2    0    0 -0.28010633264E+02  0.11946473573E+02 -0.94555543763E+01  0.31886067729E+02  0.00000000000E+00 0. -1.
         11    1    3    3    0    0  0.27335914708E+02 -0.77854349240E+01 -0.15077565015E+02  0.32174496063E+02  0.51100000000E-03 0. -1.
        -11    1    3    3    0    0 -0.71344654626E+00 -0.23393040277E+01 -0.41781725281E-01  0.24460366478E+01  0.51100000000E-03 0.  1.
        -12    1    3    3    0    0  0.13881651021E+01 -0.18217346209E+01  0.24574901116E+02  0.24681399560E+02  0.00000000000E+00 0.  1.
</event>
<event>
 7    1  0.3223600E-013  0.5930197E+02  0.7816164E-02  0.1266605E+00
        -11   -1    0    0    0    0  0.00000000000E+00  0.00000000000E+00  0.45593999997E+02  0.45594000000E+02  0.51100000000E-03 0.  1.
         11   -1    0    0    0    0 -0.00000000000E+00 -0.00000000000E+00 -0.45593999997E+02  0.45594000000E+02  0.51100000000E-03 0. -1.
    9900012    2    1    2    0    0  0.18486120386E+02  0.32388444421E+01  0.25777745547E+02  0.59301969740E+02  0.50000046894E+02 0.  0.
         12    1    1    2    0    0 -0.18486120386E+02 -0.32388444421E+01 -0.25777745547E+02  0.31886030260E+02  0.00000000000E+00 0. -1.
         11    1    3    3    0    0  0.17132255618E+02  0.17673098971E+02 -0.58386324915E+00  0.24620997266E+02  0.51100000000E-03 0. -1.
        -11    1    3    3    0    0  0.28309083706E+01 -0.14851661972E+01 -0.17863933259E+01  0.36620980615E+01  0.51100000000E-03 0.  1.
        -12    1    3    3    0    0 -0.14770436029E+01 -0.12949088331E+02  0.28148002122E+02  0.31018874413E+02  0.00000000000E+00 0.  1.
</event>
<event>
 7    1  0.3223600E-013  0.5930197E+02  0.7816164E-02  0.1266605E+00
        -11   -1    0    0    0    0  0.00000000000E+00  0.00000000000E+00  0.45593999997E+02  0.45594000000E+02  0.51100000000E-03 0. -1.
         11   -1    0    0    0    0 -0.00000000000E+00 -0.00000000000E+00 -0.45593999997E+02  0.45594000000E+02  0.51100000000E-03 0.  1.
    9900012    2    1    2    0    0  0.24409571557E+02 -0.19487206740E+02  0.64140925955E+01  0.59301968671E+02  0.50000044943E+02 0.  0.
         12    1    1    2    0    0 -0.24409571557E+02  0.19487206740E+02 -0.64140925955E+01  0.31886031329E+02  0.00000000000E+00 0. -1.
         11    1    3    3    0    0  0.21940502200E+02 -0.18803455616E+02  0.99298925930E+01  0.30554187062E+02  0.51100000000E-03 0. -1.
        -11    1    3    3    0    0  0.15130480226E+02  0.18520126328E+01 -0.42168798298E+01  0.15815924204E+02  0.51100000000E-03 0.  1.
        -12    1    3    3    0    0 -0.12661410869E+02 -0.25357637570E+01  0.70107983223E+00  0.12931857405E+02  0.00000000000E+00 0.  1.
</event>
<event>
 7    1  0.3223600E-013  0.5930190E+02  0.7816164E-02  0.1266605E+00
        -11   -1    0    0    0    0  0.00000000000E+00  0.00000000000E+00  0.45593999997E+02  0.45594000000E+02  0.51100000000E-03 0. -1.
         11   -1    0    0    0    0 -0.00000000000E+00 -0.00000000000E+00 -0.45593999997E+02  0.45594000000E+02  0.51100000000E-03 0.  1.
    9900012    2    1    2    0    0 -0.17996766336E+02  0.26291509726E+02  0.12634218370E+01  0.59301900882E+02  0.49999921313E+02 0.  0.
         12    1    1    2    0    0  0.17996766336E+02 -0.26291509726E+02 -0.12634218370E+01  0.31886099118E+02  0.00000000000E+00 0. -1.
         11    1    3    3    0    0 -0.15479170542E+01 -0.14224094086E+01 -0.10167792269E+02  0.10382836588E+02  0.51100000000E-03 0. -1.
        -11    1    3    3    0    0 -0.22488884936E+02  0.59071513601E+01 -0.66449109732E+00  0.23261253868E+02  0.51100000000E-03 0.  1.
         12    1    3    3    0    0  0.60400356542E+01  0.21806767775E+02  0.12095705203E+02  0.25657810426E+02  0.00000000000E+00 0. -1.
</event>
<event>
 7    1  0.3223600E-013  0.5930191E+02  0.7816164E-02  0.1266605E+00
        -11   -1    0    0    0    0  0.00000000000E+00  0.00000000000E+00  0.45593999997E+02  0.45594000000E+02  0.51100000000E-03 0. -1.
         11   -1    0    0    0    0 -0.00000000000E+00 -0.00000000000E+00 -0.45593999997E+02  0.45594000000E+02  0.51100000000E-03 0.  1.
    9900012    2    1    2    0    0  0.29698279268E+02  0.30802279696E+01 -0.11191393509E+02  0.59301907663E+02  0.49999933680E+02 0.  0.
         12    1    1    2    0    0 -0.29698279268E+02 -0.30802279696E+01  0.11191393509E+02  0.31886092337E+02  0.00000000000E+00 0. -1.
         11    1    3    3    0    0  0.34105880776E+01  0.97806142592E+01 -0.63495339349E+01  0.12149448867E+02  0.51100000000E-03 0.  1.
        -11    1    3    3    0    0 -0.84859736977E+01  0.29877752353E+01  0.42158497060E+01  0.99353882390E+01  0.51100000000E-03 0. -1.
         12    1    3    3    0    0  0.34773664888E+02 -0.96881615248E+01 -0.90577092801E+01  0.37217070557E+02  0.00000000000E+00 0. -1.
</event>
<event>
 7    1  0.3223600E-013  0.5930195E+02  0.7816164E-02  0.1266605E+00
        -11   -1    0    0    0    0  0.00000000000E+00  0.00000000000E+00  0.45593999997E+02  0.45594000000E+02  0.51100000000E-03 0.  1.
         11   -1    0    0    0    0 -0.00000000000E+00 -0.00000000000E+00 -0.45593999997E+02  0.45594000000E+02  0.51100000000E-03 0. -1.
    9900012    2    1    2    0    0  0.65983679425E+00  0.30428619777E+02  0.95070434251E+01  0.59301950373E+02  0.50000011572E+02 0.  0.
         12    1    1    2    0    0 -0.65983679425E+00 -0.30428619777E+02 -0.95070434251E+01  0.31886049627E+02  0.00000000000E+00 0. -1.
         11    1    3    3    0    0  0.33357865989E+00  0.12995287223E+02 -0.10472243550E+02  0.16693012010E+02  0.51100000000E-03 0. -1.
        -11    1    3    3    0    0  0.73225808593E+01 -0.81923907655E+01  0.45783498690E+01  0.11903644177E+02  0.51100000000E-03 0.  1.
         12    1    3    3    0    0 -0.69963227250E+01  0.25625723320E+02  0.15400937106E+02  0.30705294187E+02  0.00000000000E+00 0. -1.
</event>
<event>
 7    1  0.3223600E-013  0.5930195E+02  0.7816164E-02  0.1266605E+00
        -11   -1    0    0    0    0  0.00000000000E+00  0.00000000000E+00  0.45593999997E+02  0.45594000000E+02  0.51100000000E-03 0.  1.
         11   -1    0    0    0    0 -0.00000000000E+00 -0.00000000000E+00 -0.45593999997E+02  0.45594000000E+02  0.51100000000E-03 0. -1.
    9900012    2    1    2    0    0 -0.19958621328E+02  0.42884084200E+01  0.24494559380E+02  0.59301945817E+02  0.50000003264E+02 0.  0.
         12    1    1    2    0    0  0.19958621328E+02 -0.42884084200E+01 -0.24494559380E+02  0.31886054183E+02  0.00000000000E+00 0. -1.
         11    1    3    3    0    0 -0.42396019125E+01  0.81730335111E+00 -0.23732535609E+01  0.49269201201E+01  0.51100000000E-03 0. -1.
        -11    1    3    3    0    0 -0.18598489479E+02  0.13014986323E+02 -0.29907870763E+01  0.22896254879E+02  0.51100000000E-03 0.  1.
        -12    1    3    3    0    0  0.28794700635E+01 -0.95438812536E+01  0.29858600017E+02  0.31478770818E+02  0.00000000000E+00 0.  1.
</event>
<event>
 7    1  0.3223600E-013  0.5930195E+02  0.7816164E-02  0.1266605E+00
        -11   -1    0    0    0    0  0.00000000000E+00  0.00000000000E+00  0.45593999997E+02  0.45594000000E+02  0.51100000000E-03 0. -1.
         11   -1    0    0    0    0 -0.00000000000E+00 -0.00000000000E+00 -0.45593999997E+02  0.45594000000E+02  0.51100000000E-03 0.  1.
    9900012    2    1    2    0    0  0.79478704973E+01  0.13940574415E+02 -0.27553795880E+02  0.59301954026E+02  0.50000018234E+02 0.  0.
         12    1    1    2    0    0 -0.79478704973E+01 -0.13940574415E+02  0.27553795880E+02  0.31886045974E+02  0.00000000000E+00 0. -1.
         11    1    3    3    0    0 -0.40087295513E+01 -0.13709118458E+02 -0.78075195246E+01  0.16277813210E+02  0.51100000000E-03 0. -1.
        -11    1    3    3    0    0  0.78881528248E+01  0.30772819794E+01 -0.15634547858E+02  0.17780092979E+02  0.51100000000E-03 0.  1.
        -12    1    3    3    0    0  0.40684472238E+01  0.24572410894E+02 -0.41117284980E+01  0.25244047837E+02  0.00000000000E+00 0.  1.
</event>
<event>
 7    1  0.3223600E-013  0.5930194E+02  0.7816164E-02  0.1266605E+00
        -11   -1    0    0    0    0  0.00000000000E+00  0.00000000000E+00  0.45593999997E+02  0.45594000000E+02  0.51100000000E-03 0. -1.
         11   -1    0    0    0    0 -0.00000000000E+00 -0.00000000000E+00 -0.45593999997E+02  0.45594000000E+02  0.51100000000E-03 0.  1.
    9900012    2    1    2    0    0 -0.23698642060E+02  0.12637325274E+02 -0.17187000807E+02  0.59301943137E+02  0.49999998375E+02 0.  0.
         12    1    1    2    0    0  0.23698642060E+02 -0.12637325274E+02  0.17187000807E+02  0.31886056863E+02  0.00000000000E+00 0. -1.
         11    1    3    3    0    0  0.38687540609E+01 -0.94835453998E+01  0.44393282446E+01  0.11162998112E+02  0.51100000000E-03 0. -1.
        -11    1    3    3    0    0 -0.84229234505E+01  0.17577760544E+02 -0.82950351240E+00  0.19509263993E+02  0.51100000000E-03 0.  1.
        -12    1    3    3    0    0 -0.19144472670E+02  0.45431101293E+01 -0.20796825539E+02  0.28629681031E+02  0.00000000000E+00 0.  1.
</event>
<event>
 7    1  0.3223600E-013  0.5930195E+02  0.7816164E-02  0.1266605E+00
        -11   -1    0    0    0    0  0.00000000000E+00  0.00000000000E+00  0.45593999997E+02  0.45594000000E+02  0.51100000000E-03 0.  1.
         11   -1    0    0    0    0 -0.00000000000E+00 -0.00000000000E+00 -0.45593999997E+02  0.45594000000E+02  0.51100000000E-03 0. -1.
    9900012    2    1    2    0    0  0.29076762615E+02 -0.38227909203E+01 -0.12515920347E+02  0.59301951065E+02  0.50000012834E+02 0.  0.
         12    1    1    2    0    0 -0.29076762615E+02  0.38227909203E+01  0.12515920347E+02  0.31886048935E+02  0.00000000000E+00 0. -1.
         11    1    3    3    0    0 -0.60544461606E+00 -0.60437471703E+01 -0.95312401087E+00  0.61483240548E+01  0.51100000000E-03 0. -1.
        -11    1    3    3    0    0 -0.60011778331E+01 -0.11002157998E+01  0.97174984007E+01  0.11474074499E+02  0.51100000000E-03 0.  1.
         12    1    3    3    0    0  0.35683385064E+02  0.33211720498E+01 -0.21280294737E+02  0.41679552511E+02  0.00000000000E+00 0. -1.
</event>
<event>
 7    1  0.3223600E-013  0.5930192E+02  0.7816164E-02  0.1266605E+00
        -11   -1    0    0    0    0  0.00000000000E+00  0.00000000000E+00  0.45593999997E+02  0.45594000000E+02  0.51100000000E-03 0.  1.
         11   -1    0    0    0    0 -0.00000000000E+00 -0.00000000000E+00 -0.45593999997E+02  0.45594000000E+02  0.51100000000E-03 0. -1.
    9900012    2    1    2    0    0  0.71876080784E+01 -0.25115949756E+02  0.18282498569E+02  0.59301915324E+02  0.49999947651E+02 0.  0.
         12    1    1    2    0    0 -0.71876080784E+01  0.25115949756E+02 -0.18282498569E+02  0.31886084676E+02  0.00000000000E+00 0. -1.
         11    1    3    3    0    0 -0.10030387507E+01 -0.84390412114E+01  0.27571144359E+02  0.28851195900E+02  0.51100000000E-03 0. -1.
        -11    1    3    3    0    0 -0.47530741932E+01 -0.13670155352E+02 -0.42817803529E+00  0.14479233347E+02  0.51100000000E-03 0.  1.
         12    1    3    3    0    0  0.12943721022E+02 -0.30067531931E+01 -0.88604677553E+01  0.15971486077E+02  0.00000000000E+00 0. -1.
</event>
<event>
 7    1  0.3223600E-013  0.5930190E+02  0.7816164E-02  0.1266605E+00
        -11   -1    0    0    0    0  0.00000000000E+00  0.00000000000E+00  0.45593999997E+02  0.45594000000E+02  0.51100000000E-03 0.  1.
         11   -1    0    0    0    0 -0.00000000000E+00 -0.00000000000E+00 -0.45593999997E+02  0.45594000000E+02  0.51100000000E-03 0. -1.
    9900012    2    1    2    0    0 -0.10115314847E+02 -0.17197936764E+02 -0.24872368424E+02  0.59301900609E+02  0.49999920814E+02 0.  0.
         12    1    1    2    0    0  0.10115314847E+02  0.17197936764E+02  0.24872368424E+02  0.31886099391E+02  0.00000000000E+00 0. -1.
         11    1    3    3    0    0 -0.16127066910E+01 -0.49114847946E+00  0.23119184318E+01  0.28612963489E+01  0.51100000000E-03 0. -1.
        -11    1    3    3    0    0  0.14971628012E+02 -0.19388339222E+02 -0.73020062150E+01  0.25561233111E+02  0.51100000000E-03 0.  1.
         12    1    3    3    0    0 -0.23474236168E+02  0.26815509374E+01 -0.19882280640E+02  0.30879371149E+02  0.00000000000E+00 0. -1.
</event>
<event>
 7    1  0.3223600E-013  0.5930191E+02  0.7816164E-02  0.1266605E+00
        -11   -1    0    0    0    0  0.00000000000E+00  0.00000000000E+00  0.45593999997E+02  0.45594000000E+02  0.51100000000E-03 0.  1.
         11   -1    0    0    0    0 -0.00000000000E+00 -0.00000000000E+00 -0.45593999997E+02  0.45594000000E+02  0.51100000000E-03 0. -1.
    9900012    2    1    2    0    0 -0.13756677261E+02 -0.26129206625E+02  0.12030836363E+02  0.59301911628E+02  0.49999940910E+02 0.  0.
         12    1    1    2    0    0  0.13756677261E+02  0.26129206625E+02 -0.12030836363E+02  0.31886088372E+02  0.00000000000E+00 0. -1.
         11    1    3    3    0    0  0.10078817320E+02 -0.30510349667E+01  0.51740231618E+01  0.11732940334E+02  0.51100000000E-03 0. -1.
        -11    1    3    3    0    0 -0.13693650705E+01  0.81583846767E+01  0.33772964798E+01  0.89353529871E+01  0.51100000000E-03 0.  1.
        -12    1    3    3    0    0 -0.22466129511E+02 -0.31236556335E+02  0.34795167212E+01  0.38633618306E+02  0.00000000000E+00 0.  1.
</event>
<event>
 7    1  0.3223600E-013  0.5930196E+02  0.7816164E-02  0.1266605E+00
        -11   -1    0    0    0    0  0.00000000000E+00  0.00000000000E+00  0.45593999997E+02  0.45594000000E+02  0.51100000000E-03 0. -1.
         11   -1    0    0    0    0 -0.00000000000E+00 -0.00000000000E+00 -0.45593999997E+02  0.45594000000E+02  0.51100000000E-03 0.  1.
    9900012    2    1    2    0    0 -0.90227383660E+01 -0.11698807507E+02 -0.28256820622E+02  0.59301955774E+02  0.50000021423E+02 0.  0.
         12    1    1    2    0    0  0.90227383660E+01  0.11698807507E+02  0.28256820622E+02  0.31886044226E+02  0.00000000000E+00 0. -1.
         11    1    3    3    0    0 -0.16730760204E+02 -0.10366973094E+02 -0.14549129633E+02  0.24475899197E+02  0.51100000000E-03 0. -1.
        -11    1    3    3    0    0 -0.82282878439E+01  0.81278382809E+01  0.34070080387E+00  0.11570762864E+02  0.51100000000E-03 0.  1.
        -12    1    3    3    0    0  0.15936309682E+02 -0.94596726936E+01 -0.14048391792E+02  0.23255293713E+02  0.00000000000E+00 0.  1.
</event>
<event>
 7    1  0.3223600E-013  0.5930195E+02  0.7816164E-02  0.1266605E+00
        -11   -1    0    0    0    0  0.00000000000E+00  0.00000000000E+00  0.45593999997E+02  0.45594000000E+02  0.51100000000E-03 0. -1.
         11   -1    0    0    0    0 -0.00000000000E+00 -0.00000000000E+00 -0.45593999997E+02  0.45594000000E+02  0.51100000000E-03 0.  1.
    9900012    2    1    2    0    0  0.19482145437E+02  0.19237485072E+02 -0.16342740680E+02  0.59301952963E+02  0.50000016296E+02 0.  0.
         12    1    1    2    0    0 -0.19482145437E+02 -0.19237485072E+02  0.16342740680E+02  0.31886047037E+02  0.00000000000E+00 0. -1.
         11    1    3    3    0    0 -0.17425890098E+01  0.14346568121E+02 -0.76356897171E+01  0.16345164148E+02  0.51100000000E-03 0. -1.
        -11    1    3    3    0    0  0.35328652968E+01  0.72161265658E+01  0.12737105650E+02  0.15059464812E+02  0.51100000000E-03 0.  1.
        -12    1    3    3    0    0  0.17691869150E+02 -0.23252096147E+01 -0.21444156612E+02  0.27897324004E+02  0.00000000000E+00 0.  1.
</event>
<event>
 7    1  0.3223600E-013  0.5930193E+02  0.7816164E-02  0.1266605E+00
        -11   -1    0    0    0    0  0.00000000000E+00  0.00000000000E+00  0.45593999997E+02  0.45594000000E+02  0.51100000000E-03 0.  1.
         11   -1    0    0    0    0 -0.00000000000E+00 -0.00000000000E+00 -0.45593999997E+02  0.45594000000E+02  0.51100000000E-03 0. -1.
    9900012    2    1    2    0    0  0.18154625023E+02  0.85296173205E+00  0.26199302574E+02  0.59301930803E+02  0.49999975882E+02 0.  0.
         12    1    1    2    0    0 -0.18154625023E+02 -0.85296173205E+00 -0.26199302574E+02  0.31886069197E+02  0.00000000000E+00 0. -1.
         11    1    3    3    0    0  0.21846676908E+02  0.51550089025E+01  0.15029785029E+02  0.27013808450E+02  0.51100000000E-03 0. -1.
        -11    1    3    3    0    0  0.44072163916E+01  0.64734919133E+01  0.16125008838E+02  0.17926114028E+02  0.51100000000E-03 0.  1.
         12    1    3    3    0    0 -0.80992682771E+01 -0.10775539084E+02 -0.49554912924E+01  0.14362008325E+02  0.00000000000E+00 0. -1.
</event>
<event>
 7    1  0.3223600E-013  0.5930196E+02  0.7816164E-02  0.1266605E+00
        -11   -1    0    0    0    0  0.00000000000E+00  0.00000000000E+00  0.45593999997E+02  0.45594000000E+02  0.51100000000E-03 0.  1.
         11   -1    0    0    0    0 -0.00000000000E+00 -0.00000000000E+00 -0.45593999997E+02  0.45594000000E+02  0.51100000000E-03 0. -1.
    9900012    2    1    2    0    0 -0.28447932552E+02  0.59939154756E+01  0.13096085379E+02  0.59301963221E+02  0.50000035004E+02 0.  0.
         12    1    1    2    0    0  0.28447932552E+02 -0.59939154756E+01 -0.13096085379E+02  0.31886036779E+02  0.00000000000E+00 0. -1.
         11    1    3    3    0    0  0.27144577735E+01  0.31204368565E+01  0.31007946781E+01  0.51691716045E+01  0.51100000000E-03 0. -1.
        -11    1    3    3    0    0 -0.54682177532E+01 -0.18318464678E+02  0.81314327342E+01  0.20774690181E+02  0.51100000000E-03 0.  1.
        -12    1    3    3    0    0 -0.25694172572E+02  0.21191943297E+02  0.18638579664E+01  0.33358101436E+02  0.00000000000E+00 0.  1.
</event>
<event>
 7    1  0.3223600E-013  0.5930192E+02  0.7816164E-02  0.1266605E+00
        -11   -1    0    0    0    0  0.00000000000E+00  0.00000000000E+00  0.45593999997E+02  0.45594000000E+02  0.51100000000E-03 0. -1.
         11   -1    0    0    0    0 -0.00000000000E+00 -0.00000000000E+00 -0.45593999997E+02  0.45594000000E+02  0.51100000000E-03 0.  1.
    9900012    2    1    2    0    0 -0.11169403294E+02 -0.76064750173E+01 -0.28880925197E+02  0.59301923534E+02  0.49999962625E+02 0.  0.
         12    1    1    2    0    0  0.11169403294E+02  0.76064750173E+01  0.28880925197E+02  0.31886076466E+02  0.00000000000E+00 0. -1.
         11    1    3    3    0    0  0.33337318952E+01  0.12592975120E+02 -0.89839310210E+01  0.15824279054E+02  0.51100000000E-03 0. -1.
        -11    1    3    3    0    0 -0.13990319405E+02 -0.43859860684E+01 -0.23075807623E+02  0.27339692912E+02  0.51100000000E-03 0.  1.
         12    1    3    3    0    0 -0.51281578494E+00 -0.15813464069E+02  0.31788134468E+01  0.16137951568E+02  0.00000000000E+00 0. -1.
</event>
<event>
 7    1  0.3223600E-013  0.5930195E+02  0.7816164E-02  0.1266605E+00
        -11   -1    0    0    0    0  0.00000000000E+00  0.00000000000E+00  0.45593999997E+02  0.45594000000E+02  0.51100000000E-03 0.  1.
         11   -1    0    0    0    0 -0.00000000000E+00 -0.00000000000E+00 -0.45593999997E+02  0.45594000000E+02  0.51100000000E-03 0. -1.
    9900012    2    1    2    0    0 -0.22449296602E+02  0.17076904150E+02  0.14870392420E+02  0.59301950637E+02  0.50000012053E+02 0.  0.
         12    1    1    2    0    0  0.22449296602E+02 -0.17076904150E+02 -0.14870392420E+02  0.31886049363E+02  0.00000000000E+00 0. -1.
         11    1    3    3    0    0 -0.14952994208E+02  0.88228562084E+01 -0.11683384454E+02  0.20926927630E+02  0.51100000000E-03 0. -1.
        -11    1    3    3    0    0  0.19814446639E+01  0.92214180110E+00 -0.45474078161E+01  0.50453331470E+01  0.51100000000E-03 0.  1.
        -12    1    3    3    0    0 -0.94777470575E+01  0.73319061405E+01  0.31101184691E+02  0.33329689859E+02  0.00000000000E+00 0.  1.
</event>
<event>
 7    1  0.3223600E-013  0.5930194E+02  0.7816164E-02  0.1266605E+00
        -11   -1    0    0    0    0  0.00000000000E+00  0.00000000000E+00  0.45593999997E+02  0.45594000000E+02  0.51100000000E-03 0.  1.
         11   -1    0    0    0    0 -0.00000000000E+00 -0.00000000000E+00 -0.45593999997E+02  0.45594000000E+02  0.51100000000E-03 0. -1.
    9900012    2    1    2    0    0 -0.19660692271E+01 -0.31077964172E+02  0.68568097620E+01  0.59301935248E+02  0.49999983988E+02 0.  0.
         12    1    1    2    0    0  0.19660692271E+01  0.31077964172E+02 -0.68568097620E+01  0.31886064752E+02  0.00000000000E+00 0. -1.
         11    1    3    3    0    0 -0.54948482394E+01 -0.29293416759E+01  0.95403515624E+01  0.11392660270E+02  0.51100000000E-03 0. -1.
        -11    1    3    3    0    0  0.16304836989E+02 -0.31108206665E+01  0.72273900384E+01  0.18104145423E+02  0.51100000000E-03 0.  1.
         12    1    3    3    0    0 -0.12776057977E+02 -0.25037801829E+02 -0.99109318389E+01  0.29805129555E+02  0.00000000000E+00 0. -1.
</event>
<event>
 7    1  0.3223600E-013  0.5930194E+02  0.7816164E-02  0.1266605E+00
        -11   -1    0    0    0    0  0.00000000000E+00  0.00000000000E+00  0.45593999997E+02  0.45594000000E+02  0.51100000000E-03 0.  1.
         11   -1    0    0    0    0 -0.00000000000E+00 -0.00000000000E+00 -0.45593999997E+02  0.45594000000E+02  0.51100000000E-03 0. -1.
    9900012    2    1    2    0    0 -0.16541316835E+02 -0.25756036867E+02  0.89293063567E+01  0.59301935493E+02  0.49999984434E+02 0.  0.
         12    1    1    2    0    0  0.16541316835E+02  0.25756036867E+02 -0.89293063567E+01  0.31886064507E+02  0.00000000000E+00 0. -1.
         11    1    3    3    0    0 -0.19783942575E+02 -0.29252950471E+01  0.56452721824E+01  0.20780539772E+02  0.51100000000E-03 0. -1.
        -11    1    3    3    0    0 -0.54264600008E+01 -0.21087472213E+02 -0.88524565965E+01  0.23505189651E+02  0.51100000000E-03 0.  1.
         12    1    3    3    0    0  0.86690857407E+01 -0.17432696073E+01  0.12136490771E+02  0.15016206070E+02  0.00000000000E+00 0. -1.
</event>
<event>
 7    1  0.3223600E-013  0.5930196E+02  0.7816164E-02  0.1266605E+00
        -11   -1    0    0    0    0  0.00000000000E+00  0.00000000000E+00  0.45593999997E+02  0.45594000000E+02  0.51100000000E-03 0. -1.
         11   -1    0    0    0    0 -0.00000000000E+00 -0.00000000000E+00 -0.45593999997E+02  0.45594000000E+02  0.51100000000E-03 0.  1.
    9900012    2    1    2    0    0  0.16718956326E+02  0.21555681985E+02 -0.16509055943E+02  0.59301955175E+02  0.50000020329E+02 0.  0.
         12    1    1    2    0    0 -0.16718956326E+02 -0.21555681985E+02  0.16509055943E+02  0.31886044825E+02  0.00000000000E+00 0. -1.
         11    1    3    3    0    0  0.67609473181E+01  0.15943617622E+02  0.14559822964E+02  0.22625158486E+02  0.51100000000E-03 0. -1.
        -11    1    3    3    0    0  0.41573219095E+01  0.55432743029E+01 -0.22579302192E+01  0.72876240705E+01  0.51100000000E-03 0.  1.
        -12    1    3    3    0    0  0.58006870979E+01  0.68790060458E-01 -0.28810948688E+02  0.29389172618E+02  0.00000000000E+00 0.  1.
</event>
<event>
 7    1  0.3223600E-013  0.5930195E+02  0.7816164E-02  0.1266605E+00
        -11   -1    0    0    0    0  0.00000000000E+00  0.00000000000E+00  0.45593999997E+02  0.45594000000E+02  0.51100000000E-03 0.  1.
         11   -1    0    0    0    0 -0.00000000000E+00 -0.00000000000E+00 -0.45593999997E+02  0.45594000000E+02  0.51100000000E-03 0. -1.
    9900012    2    1    2    0    0 -0.59259110325E+01  0.28911597594E+02  0.12071598262E+02  0.59301946911E+02  0.50000005258E+02 0.  0.
         12    1    1    2    0    0  0.59259110325E+01 -0.28911597594E+02 -0.12071598262E+02  0.31886053089E+02  0.00000000000E+00 0. -1.
         11    1    3    3    0    0  0.10463149566E+02  0.79713917532E+01 -0.10617428978E+02  0.16904152854E+02  0.51100000000E-03 0. -1.
        -11    1    3    3    0    0  0.11982839168E+01  0.54142928684E+01  0.17517981034E+02  0.18374713913E+02  0.51100000000E-03 0.  1.
        -12    1    3    3    0    0 -0.17587344516E+02  0.15525912973E+02  0.51710462071E+01  0.24023080144E+02  0.00000000000E+00 0.  1.
</event>
<event>
 7    1  0.3223600E-013  0.5930195E+02  0.7816164E-02  0.1266605E+00
        -11   -1    0    0    0    0  0.00000000000E+00  0.00000000000E+00  0.45593999997E+02  0.45594000000E+02  0.51100000000E-03 0.  1.
         11   -1    0    0    0    0 -0.00000000000E+00 -0.00000000000E+00 -0.45593999997E+02  0.45594000000E+02  0.51100000000E-03 0. -1.
    9900012    2    1    2    0    0 -0.25807177759E+02  0.17713057119E+02  0.60792681290E+01  0.59301947918E+02  0.50000007094E+02 0.  0.
         12    1    1    2    0    0  0.25807177759E+02 -0.17713057119E+02 -0.60792681290E+01  0.31886052082E+02  0.00000000000E+00 0. -1.
         11    1    3    3    0    0 -0.47212491333E+01 -0.75932003240E+01  0.15622012627E+02  0.17999837869E+02  0.51100000000E-03 0. -1.
        -11    1    3    3    0    0  0.34200563367E+01  0.88567937222E+01 -0.67629134524E+01  0.11656610957E+02  0.51100000000E-03 0.  1.
        -12    1    3    3    0    0 -0.24505984963E+02  0.16449463721E+02 -0.27798310459E+01  0.29645499091E+02  0.00000000000E+00 0.  1.
</event>
<event>
 7    1  0.3223600E-013  0.5930195E+02  0.7816164E-02  0.1266605E+00
        -11   -1    0    0    0    0  0.00000000000E+00  0.00000000000E+00  0.45593999997E+02  0.45594000000E+02  0.51100000000E-03 0.  1.
         11   -1    0    0    0    0 -0.00000000000E+00 -0.00000000000E+00 -0.45593999997E+02  0.45594000000E+02  0.51100000000E-03 0. -1.
    9900012    2    1    2    0    0  0.23040792315E+02 -0.43737790122E+01  0.21603519262E+02  0.59301951360E+02  0.50000013372E+02 0.  0.
         12    1    1    2    0    0 -0.23040792315E+02  0.43737790122E+01 -0.21603519262E+02  0.31886048640E+02  0.00000000000E+00 0. -1.
         11    1    3    3    0    0  0.66079469374E+00  0.69095630573E+01 -0.90473895825E+00  0.69998045768E+01  0.51100000000E-03 0. -1.
        -11    1    3    3    0    0  0.32141944841E+02  0.70812381687E-01  0.13790502386E+02  0.34975528429E+02  0.51100000000E-03 0.  1.
        -12    1    3    3    0    0 -0.97619472194E+01 -0.11354154451E+02  0.87177558338E+01  0.17326618354E+02  0.00000000000E+00 0.  1.
</event>
<event>
 7    1  0.3223600E-013  0.5930198E+02  0.7816164E-02  0.1266605E+00
        -11   -1    0    0    0    0  0.00000000000E+00  0.00000000000E+00  0.45593999997E+02  0.45594000000E+02  0.51100000000E-03 0.  1.
         11   -1    0    0    0    0 -0.00000000000E+00 -0.00000000000E+00 -0.45593999997E+02  0.45594000000E+02  0.51100000000E-03 0. -1.
    9900012    2    1    2    0    0 -0.49684614328E+01 -0.28165122696E+02  0.14098184031E+02  0.59301975813E+02  0.50000057968E+02 0.  0.
         12    1    1    2    0    0  0.49684614328E+01  0.28165122696E+02 -0.14098184031E+02  0.31886024187E+02  0.00000000000E+00 0. -1.
         11    1    3    3    0    0 -0.39493520855E+01 -0.83936864083E+01 -0.13299114961E+02  0.16214740591E+02  0.51100000000E-03 0. -1.
        -11    1    3    3    0    0  0.15097737487E+01 -0.11296515953E+02 -0.27041827815E+01  0.11713380990E+02  0.51100000000E-03 0.  1.
        -12    1    3    3    0    0 -0.25288830961E+01 -0.84749203352E+01  0.30101481773E+02  0.31373854232E+02  0.00000000000E+00 0.  1.
</event>
<event>
 7    1  0.3223600E-013  0.5930201E+02  0.7816164E-02  0.1266605E+00
        -11   -1    0    0    0    0  0.00000000000E+00  0.00000000000E+00  0.45593999997E+02  0.45594000000E+02  0.51100000000E-03 0.  1.
         11   -1    0    0    0    0 -0.00000000000E+00 -0.00000000000E+00 -0.45593999997E+02  0.45594000000E+02  0.51100000000E-03 0. -1.
    9900012    2    1    2    0    0  0.14536074395E+02 -0.84432827912E+01  0.27094832701E+02  0.59302008684E+02  0.50000117918E+02 0.  0.
         12    1    1    2    0    0 -0.14536074395E+02  0.84432827912E+01 -0.27094832701E+02  0.31885991316E+02  0.00000000000E+00 0. -1.
         11    1    3    3    0    0  0.15698732289E+01 -0.12782617349E+01  0.71721933031E+01  0.74524366523E+01  0.51100000000E-03 0. -1.
        -11    1    3    3    0    0  0.26679166217E+01  0.19293322783E+02  0.79923888205E+01  0.21052989395E+02  0.51100000000E-03 0.  1.
         12    1    3    3    0    0  0.10298284544E+02 -0.26458343840E+02  0.11930250577E+02  0.30796582637E+02  0.00000000000E+00 0. -1.
</event>
<event>
 7    1  0.3223600E-013  0.5930194E+02  0.7816164E-02  0.1266605E+00
        -11   -1    0    0    0    0  0.00000000000E+00  0.00000000000E+00  0.45593999997E+02  0.45594000000E+02  0.51100000000E-03 0. -1.
         11   -1    0    0    0    0 -0.00000000000E+00 -0.00000000000E+00 -0.45593999997E+02  0.45594000000E+02  0.51100000000E-03 0.  1.
    9900012    2    1    2    0    0  0.62266407432E+01 -0.26841625777E+02 -0.16046095331E+02  0.59301935573E+02  0.49999984580E+02 0.  0.
         12    1    1    2    0    0 -0.62266407432E+01  0.26841625777E+02  0.16046095331E+02  0.31886064427E+02  0.00000000000E+00 0. -1.
         11    1    3    3    0    0 -0.69866642695E+01  0.83754961811E+01  0.21169671815E+01  0.11110533930E+02  0.51100000000E-03 0. -1.
        -11    1    3    3    0    0  0.23459519569E+01 -0.36531439097E-01  0.44148389098E+01  0.49995627800E+01  0.51100000000E-03 0.  1.
        -12    1    3    3    0    0  0.10867353056E+02 -0.35180590519E+02 -0.22577901422E+02  0.43191838863E+02  0.00000000000E+00 0.  1.
</event>
<event>
 7    1  0.3223600E-013  0.5930190E+02  0.7816164E-02  0.1266605E+00
        -11   -1    0    0    0    0  0.00000000000E+00  0.00000000000E+00  0.45593999997E+02  0.45594000000E+02  0.51100000000E-03 0.  1.
         11   -1    0    0    0    0 -0.00000000000E+00 -0.00000000000E+00 -0.45593999997E+02  0.45594000000E+02  0.51100000000E-03 0. -1.
    9900012    2    1    2    0    0  0.89122540615E+01 -0.21969295940E+02  0.21322413846E+02  0.59301896933E+02  0.49999914111E+02 0.  0.
         12    1    1    2    0    0 -0.89122540615E+01  0.21969295940E+02 -0.21322413846E+02  0.31886103067E+02  0.00000000000E+00 0. -1.
         11    1    3    3    0    0  0.96196513910E+01  0.80421928854E+01  0.76338147949E+01  0.14679567019E+02  0.51100000000E-03 0. -1.
        -11    1    3    3    0    0  0.15334539516E+01 -0.80234968909E+01  0.20027541631E+02  0.21629387588E+02  0.51100000000E-03 0.  1.
        -12    1    3    3    0    0 -0.22408512811E+01 -0.21987991934E+02 -0.63389425797E+01  0.22992942326E+02  0.00000000000E+00 0.  1.
</event>
<event>
 7    1  0.3223600E-013  0.5930196E+02  0.7816164E-02  0.1266605E+00
        -11   -1    0    0    0    0  0.00000000000E+00  0.00000000000E+00  0.45593999997E+02  0.45594000000E+02  0.51100000000E-03 0. -1.
         11   -1    0    0    0    0 -0.00000000000E+00 -0.00000000000E+00 -0.45593999997E+02  0.45594000000E+02  0.51100000000E-03 0.  1.
    9900012    2    1    2    0    0  0.26863786477E+02 -0.19465180177E+01 -0.17066559130E+02  0.59301962353E+02  0.50000033422E+02 0.  0.
         12    1    1    2    0    0 -0.26863786477E+02  0.19465180177E+01  0.17066559130E+02  0.31886037647E+02  0.00000000000E+00 0. -1.
         11    1    3    3    0    0  0.50568678070E+01  0.25603634963E+01  0.32511984471E+01  0.65343450210E+01  0.51100000000E-03 0. -1.
        -11    1    3    3    0    0  0.33663234769E+02 -0.94111571575E+01 -0.10153498202E+02  0.36398856852E+02  0.51100000000E-03 0.  1.
         12    1    3    3    0    0 -0.11856316099E+02  0.49042756436E+01 -0.10164259374E+02  0.16368760480E+02  0.00000000000E+00 0. -1.
</event>
<event>
 7    1  0.3223600E-013  0.5930196E+02  0.7816164E-02  0.1266605E+00
        -11   -1    0    0    0    0  0.00000000000E+00  0.00000000000E+00  0.45593999997E+02  0.45594000000E+02  0.51100000000E-03 0. -1.
         11   -1    0    0    0    0 -0.00000000000E+00 -0.00000000000E+00 -0.45593999997E+02  0.45594000000E+02  0.51100000000E-03 0.  1.
    9900012    2    1    2    0    0  0.93002663372E+00 -0.31806887493E+02  0.20436244725E+01  0.59301961637E+02  0.50000032115E+02 0.  0.
         12    1    1    2    0    0 -0.93002663372E+00  0.31806887493E+02 -0.20436244725E+01  0.31886038363E+02  0.00000000000E+00 0. -1.
         11    1    3    3    0    0  0.12227992743E+02 -0.15917458660E+02  0.17828968616E+02  0.26847000184E+02  0.51100000000E-03 0. -1.
        -11    1    3    3    0    0  0.36172780921E+00 -0.31653538106E+01  0.46941707887E+01  0.56732311260E+01  0.51100000000E-03 0.  1.
        -12    1    3    3    0    0 -0.11659693919E+02 -0.12724075022E+02 -0.20479514932E+02  0.26781730327E+02  0.00000000000E+00 0.  1.
</event>
<event>
 7    1  0.3223600E-013  0.5930194E+02  0.7816164E-02  0.1266605E+00
        -11   -1    0    0    0    0  0.00000000000E+00  0.00000000000E+00  0.45593999997E+02  0.45594000000E+02  0.51100000000E-03 0.  1.
         11   -1    0    0    0    0 -0.00000000000E+00 -0.00000000000E+00 -0.45593999997E+02  0.45594000000E+02  0.51100000000E-03 0. -1.
    9900012    2    1    2    0    0 -0.30313449000E+02 -0.96919585813E+01 -0.19701184816E+01  0.59301943201E+02  0.49999998491E+02 0.  0.
         12    1    1    2    0    0  0.30313449000E+02  0.96919585813E+01  0.19701184816E+01  0.31886056799E+02  0.00000000000E+00 0. -1.
         11    1    3    3    0    0  0.11258158826E+01 -0.90104821864E+01 -0.37976491410E+01  0.98426820478E+01  0.51100000000E-03 0. -1.
        -11    1    3    3    0    0  0.52140737888E+01 -0.60331740758E+01  0.86821921458E+01  0.11788393259E+02  0.51100000000E-03 0.  1.
        -12    1    3    3    0    0 -0.36653338671E+02  0.53516976810E+01 -0.68546614863E+01  0.37670867894E+02  0.00000000000E+00 0.  1.
</event>
<event>
 7    1  0.3223600E-013  0.5930195E+02  0.7816164E-02  0.1266605E+00
        -11   -1    0    0    0    0  0.00000000000E+00  0.00000000000E+00  0.45593999997E+02  0.45594000000E+02  0.51100000000E-03 0. -1.
         11   -1    0    0    0    0 -0.00000000000E+00 -0.00000000000E+00 -0.45593999997E+02  0.45594000000E+02  0.51100000000E-03 0.  1.
    9900012    2    1    2    0    0  0.14166250814E+02 -0.11032553775E+02 -0.26349958572E+02  0.59301949418E+02  0.50000009831E+02 0.  0.
         12    1    1    2    0    0 -0.14166250814E+02  0.11032553775E+02  0.26349958572E+02  0.31886050582E+02  0.00000000000E+00 0. -1.
         11    1    3    3    0    0 -0.10147252395E+02  0.66505762291E+01 -0.93023922985E+01  0.15288276492E+02  0.51100000000E-03 0.  1.
        -11    1    3    3    0    0  0.69896097692E+01  0.65175471661E+01  0.30599924861E+00  0.95617310980E+01  0.51100000000E-03 0. -1.
         12    1    3    3    0    0  0.17323893440E+02 -0.24200677170E+02 -0.17353565523E+02  0.34451941829E+02  0.00000000000E+00 0. -1.
</event>
<event>
 7    1  0.3223600E-013  0.5930193E+02  0.7816164E-02  0.1266605E+00
        -11   -1    0    0    0    0  0.00000000000E+00  0.00000000000E+00  0.45593999997E+02  0.45594000000E+02  0.51100000000E-03 0.  1.
         11   -1    0    0    0    0 -0.00000000000E+00 -0.00000000000E+00 -0.45593999997E+02  0.45594000000E+02  0.51100000000E-03 0. -1.
    9900012    2    1    2    0    0  0.11722749146E+02  0.18927399056E+02  0.22826571825E+02  0.59301926804E+02  0.49999968588E+02 0.  0.
         12    1    1    2    0    0 -0.11722749146E+02 -0.18927399056E+02 -0.22826571825E+02  0.31886073196E+02  0.00000000000E+00 0. -1.
         11    1    3    3    0    0 -0.66195263791E+01  0.12681606761E+01  0.59991127772E+01  0.90230657406E+01  0.51100000000E-03 0. -1.
        -11    1    3    3    0    0 -0.85330377925E+01  0.18490085157E+02  0.90808229790E+01  0.22297025122E+02  0.51100000000E-03 0.  1.
        -12    1    3    3    0    0  0.26875313317E+02 -0.83084677676E+00  0.77466360691E+01  0.27981835941E+02  0.00000000000E+00 0.  1.
</event>
<event>
 7    1  0.3223600E-013  0.5930193E+02  0.7816164E-02  0.1266605E+00
        -11   -1    0    0    0    0  0.00000000000E+00  0.00000000000E+00  0.45593999997E+02  0.45594000000E+02  0.51100000000E-03 0.  1.
         11   -1    0    0    0    0 -0.00000000000E+00 -0.00000000000E+00 -0.45593999997E+02  0.45594000000E+02  0.51100000000E-03 0. -1.
    9900012    2    1    2    0    0 -0.19665239371E+02 -0.22266286974E+02 -0.11584999132E+02  0.59301931255E+02  0.49999976705E+02 0.  0.
         12    1    1    2    0    0  0.19665239371E+02  0.22266286974E+02  0.11584999132E+02  0.31886068745E+02  0.00000000000E+00 0. -1.
         11    1    3    3    0    0 -0.14775942192E+02 -0.25689782533E+02 -0.19403372198E+02  0.35422933915E+02  0.51100000000E-03 0. -1.
        -11    1    3    3    0    0 -0.84746049157E+01 -0.61930576690E+01 -0.73056267611E+00  0.10521721050E+02  0.51100000000E-03 0.  1.
        -12    1    3    3    0    0  0.35853077361E+01  0.96165532285E+01  0.85489357418E+01  0.13357276290E+02  0.00000000000E+00 0.  1.
</event>
<event>
 7    1  0.3223600E-013  0.5930191E+02  0.7816164E-02  0.1266605E+00
        -11   -1    0    0    0    0  0.00000000000E+00  0.00000000000E+00  0.45593999997E+02  0.45594000000E+02  0.51100000000E-03 0. -1.
         11   -1    0    0    0    0 -0.00000000000E+00 -0.00000000000E+00 -0.45593999997E+02  0.45594000000E+02  0.51100000000E-03 0.  1.
    9900012    2    1    2    0    0  0.28234423087E+02 -0.14569472230E+02  0.26963982484E+01  0.59301910060E+02  0.49999938051E+02 0.  0.
         12    1    1    2    0    0 -0.28234423087E+02  0.14569472230E+02 -0.26963982484E+01  0.31886089940E+02  0.00000000000E+00 0. -1.
         11    1    3    3    0    0  0.11313817224E+02 -0.66945600615E+01 -0.82156971885E+01  0.15502170014E+02  0.51100000000E-03 0. -1.
        -11    1    3    3    0    0  0.24952457222E+02 -0.33728583905E+01 -0.47577559212E+01  0.25624939743E+02  0.51100000000E-03 0.  1.
         12    1    3    3    0    0 -0.80318513593E+01 -0.45020537785E+01  0.15669851358E+02  0.18174800303E+02  0.00000000000E+00 0. -1.
</event>
<event>
 7    1  0.3223600E-013  0.5930195E+02  0.7816164E-02  0.1266605E+00
        -11   -1    0    0    0    0  0.00000000000E+00  0.00000000000E+00  0.45593999997E+02  0.45594000000E+02  0.51100000000E-03 0.  1.
         11   -1    0    0    0    0 -0.00000000000E+00 -0.00000000000E+00 -0.45593999997E+02  0.45594000000E+02  0.51100000000E-03 0. -1.
    9900012    2    1    2    0    0  0.17834729166E+02  0.25127782266E+02  0.81998260922E+01  0.59301950480E+02  0.50000011768E+02 0.  0.
         12    1    1    2    0    0 -0.17834729166E+02 -0.25127782266E+02 -0.81998260922E+01  0.31886049520E+02  0.00000000000E+00 0. -1.
         11    1    3    3    0    0 -0.10927198300E+02  0.29570310100E+01  0.49115863121E+01  0.12339828825E+02  0.51100000000E-03 0. -1.
        -11    1    3    3    0    0 -0.36729055045E+01  0.49092341137E+01  0.78251557898E+01  0.99410199589E+01  0.51100000000E-03 0.  1.
        -12    1    3    3    0    0  0.32434832971E+02  0.17261517142E+02 -0.45369160097E+01  0.37021101696E+02  0.00000000000E+00 0.  1.
</event>
<event>
 7    1  0.3223600E-013  0.5930193E+02  0.7816164E-02  0.1266605E+00
        -11   -1    0    0    0    0  0.00000000000E+00  0.00000000000E+00  0.45593999997E+02  0.45594000000E+02  0.51100000000E-03 0.  1.
         11   -1    0    0    0    0 -0.00000000000E+00 -0.00000000000E+00 -0.45593999997E+02  0.45594000000E+02  0.51100000000E-03 0. -1.
    9900012    2    1    2    0    0 -0.21637104312E+01 -0.23182760990E+02 -0.21785306689E+02  0.59301927218E+02  0.49999969343E+02 0.  0.
         12    1    1    2    0    0  0.21637104312E+01  0.23182760990E+02  0.21785306689E+02  0.31886072782E+02  0.00000000000E+00 0. -1.
         11    1    3    3    0    0 -0.86440259300E+01  0.78232869088E+01 -0.10728983357E+02  0.15844055241E+02  0.51100000000E-03 0. -1.
        -11    1    3    3    0    0 -0.39832841127E+01 -0.52701341885E+01  0.75415627431E+01  0.10025768577E+02  0.51100000000E-03 0.  1.
        -12    1    3    3    0    0  0.10463599612E+02 -0.25735913710E+02 -0.18597886074E+02  0.33432103400E+02  0.00000000000E+00 0.  1.
</event>
<event>
 7    1  0.3223600E-013  0.5930196E+02  0.7816164E-02  0.1266605E+00
        -11   -1    0    0    0    0  0.00000000000E+00  0.00000000000E+00  0.45593999997E+02  0.45594000000E+02  0.51100000000E-03 0.  1.
         11   -1    0    0    0    0 -0.00000000000E+00 -0.00000000000E+00 -0.45593999997E+02  0.45594000000E+02  0.51100000000E-03 0. -1.
    9900012    2    1    2    0    0 -0.28242369178E+02 -0.14156720262E+02  0.43215249248E+01  0.59301957238E+02  0.50000024093E+02 0.  0.
         12    1    1    2    0    0  0.28242369178E+02  0.14156720262E+02 -0.43215249248E+01  0.31886042762E+02  0.00000000000E+00 0. -1.
         11    1    3    3    0    0  0.22151389815E+01 -0.34346946278E+01 -0.98679013587E+01  0.10680797975E+02  0.51100000000E-03 0. -1.
        -11    1    3    3    0    0  0.23333446810E+01 -0.12085807565E+02  0.93272842867E+01  0.15443751951E+02  0.51100000000E-03 0.  1.
        -12    1    3    3    0    0 -0.32790852840E+02  0.13637819316E+01  0.48621419968E+01  0.33177407312E+02  0.00000000000E+00 0.  1.
</event>
<event>
 7    1  0.3223600E-013  0.5930215E+02  0.7816164E-02  0.1266604E+00
        -11   -1    0    0    0    0  0.00000000000E+00  0.00000000000E+00  0.45593999997E+02  0.45594000000E+02  0.51100000000E-03 0. -1.
         11   -1    0    0    0    0 -0.00000000000E+00 -0.00000000000E+00 -0.45593999997E+02  0.45594000000E+02  0.51100000000E-03 0.  1.
    9900012    2    1    2    0    0  0.31217935506E+02 -0.62154844233E+01  0.18751011592E+01  0.59302145013E+02  0.50000366548E+02 0.  0.
         12    1    1    2    0    0 -0.31217935506E+02  0.62154844233E+01 -0.18751011592E+01  0.31885854987E+02  0.00000000000E+00 0. -1.
         11    1    3    3    0    0  0.12280568550E+02 -0.13237778793E+02 -0.10880280203E+02  0.21081547591E+02  0.51100000000E-03 0.  1.
        -11    1    3    3    0    0  0.89048030651E+01  0.16297714160E+01 -0.95602678202E+01  0.13166259664E+02  0.51100000000E-03 0. -1.
         12    1    3    3    0    0  0.10032563891E+02  0.53925229532E+01  0.22315649183E+02  0.25054337758E+02  0.00000000000E+00 0. -1.
</event>
<event>
 7    1  0.3223600E-013  0.5930193E+02  0.7816164E-02  0.1266605E+00
        -11   -1    0    0    0    0  0.00000000000E+00  0.00000000000E+00  0.45593999997E+02  0.45594000000E+02  0.51100000000E-03 0.  1.
         11   -1    0    0    0    0 -0.00000000000E+00 -0.00000000000E+00 -0.45593999997E+02  0.45594000000E+02  0.51100000000E-03 0. -1.
    9900012    2    1    2    0    0  0.18946863992E+02  0.22454526602E+02  0.12390799148E+02  0.59301932140E+02  0.49999978320E+02 0.  0.
         12    1    1    2    0    0 -0.18946863992E+02 -0.22454526602E+02 -0.12390799148E+02  0.31886067860E+02  0.00000000000E+00 0. -1.
         11    1    3    3    0    0 -0.10931943428E+01  0.11823214556E+02  0.10851128772E+02  0.16085100938E+02  0.51100000000E-03 0. -1.
        -11    1    3    3    0    0  0.62256235892E+01  0.18017797602E+01  0.18515140347E+02  0.19616707718E+02  0.51100000000E-03 0.  1.
         12    1    3    3    0    0  0.13814434746E+02  0.88295322857E+01 -0.16975469971E+02  0.23600123484E+02  0.00000000000E+00 0. -1.
</event>
<event>
 7    1  0.3223600E-013  0.5930193E+02  0.7816164E-02  0.1266605E+00
        -11   -1    0    0    0    0  0.00000000000E+00  0.00000000000E+00  0.45593999997E+02  0.45594000000E+02  0.51100000000E-03 0.  1.
         11   -1    0    0    0    0 -0.00000000000E+00 -0.00000000000E+00 -0.45593999997E+02  0.45594000000E+02  0.51100000000E-03 0. -1.
    9900012    2    1    2    0    0 -0.14059992889E+02 -0.24955235482E+02 -0.14009787904E+02  0.59301931959E+02  0.49999977989E+02 0.  0.
         12    1    1    2    0    0  0.14059992889E+02  0.24955235482E+02  0.14009787904E+02  0.31886068041E+02  0.00000000000E+00 0. -1.
         11    1    3    3    0    0  0.59415657841E+01 -0.84322899972E+01 -0.45698248018E+01  0.11282243462E+02  0.51100000000E-03 0. -1.
        -11    1    3    3    0    0  0.12803066157E+01 -0.21733143490E+02  0.42531820292E+01  0.22182386450E+02  0.51100000000E-03 0.  1.
        -12    1    3    3    0    0 -0.21281865289E+02  0.52101980055E+01 -0.13693145132E+02  0.25837302046E+02  0.00000000000E+00 0.  1.
</event>
<event>
 7    1  0.3223600E-013  0.5930191E+02  0.7816164E-02  0.1266605E+00
        -11   -1    0    0    0    0  0.00000000000E+00  0.00000000000E+00  0.45593999997E+02  0.45594000000E+02  0.51100000000E-03 0.  1.
         11   -1    0    0    0    0 -0.00000000000E+00 -0.00000000000E+00 -0.45593999997E+02  0.45594000000E+02  0.51100000000E-03 0. -1.
    9900012    2    1    2    0    0 -0.38711419461E+01 -0.26545041646E+02  0.17236525181E+02  0.59301909361E+02  0.49999936775E+02 0.  0.
         12    1    1    2    0    0  0.38711419461E+01  0.26545041646E+02 -0.17236525181E+02  0.31886090639E+02  0.00000000000E+00 0. -1.
         11    1    3    3    0    0 -0.27654728579E+01  0.58329896848E+00  0.11965923902E+02  0.12295178442E+02  0.51100000000E-03 0.  1.
        -11    1    3    3    0    0 -0.19374618262E+02 -0.14766403857E+02  0.53836244941E+01  0.24948064627E+02  0.51100000000E-03 0. -1.
         12    1    3    3    0    0  0.18268949174E+02 -0.12361936758E+02 -0.11302321586E+00  0.22058666292E+02  0.00000000000E+00 0. -1.
</event>
<event>
 7    1  0.3223600E-013  0.5930185E+02  0.7816164E-02  0.1266605E+00
        -11   -1    0    0    0    0  0.00000000000E+00  0.00000000000E+00  0.45593999997E+02  0.45594000000E+02  0.51100000000E-03 0. -1.
         11   -1    0    0    0    0 -0.00000000000E+00 -0.00000000000E+00 -0.45593999997E+02  0.45594000000E+02  0.51100000000E-03 0.  1.
    9900012    2    1    2    0    0 -0.19917002863E+02  0.23302997402E+02  0.87755417274E+01  0.59301845896E+02  0.49999821031E+02 0.  0.
         12    1    1    2    0    0  0.19917002863E+02 -0.23302997402E+02 -0.87755417274E+01  0.31886154104E+02  0.00000000000E+00 0. -1.
         11    1    3    3    0    0 -0.91797895645E+01  0.30654944911E+01  0.82954191104E+01  0.12746755328E+02  0.51100000000E-03 0. -1.
        -11    1    3    3    0    0 -0.54263760848E+01 -0.10242548895E+02 -0.84598835199E+01  0.14350086924E+02  0.51100000000E-03 0.  1.
        -12    1    3    3    0    0 -0.53108372134E+01  0.30480051806E+02  0.89400061368E+01  0.32205003644E+02  0.00000000000E+00 0.  1.
</event>
<event>
 7    1  0.3223600E-013  0.5930193E+02  0.7816164E-02  0.1266605E+00
        -11   -1    0    0    0    0  0.00000000000E+00  0.00000000000E+00  0.45593999997E+02  0.45594000000E+02  0.51100000000E-03 0.  1.
         11   -1    0    0    0    0 -0.00000000000E+00 -0.00000000000E+00 -0.45593999997E+02  0.45594000000E+02  0.51100000000E-03 0. -1.
    9900012    2    1    2    0    0  0.76259416593E+01 -0.15600155773E+02  0.26743257183E+02  0.59301927004E+02  0.49999968953E+02 0.  0.
         12    1    1    2    0    0 -0.76259416593E+01  0.15600155773E+02 -0.26743257183E+02  0.31886072996E+02  0.00000000000E+00 0. -1.
         11    1    3    3    0    0 -0.28804866903E+01 -0.40388296722E+01 -0.73652964857E+01  0.88801430887E+01  0.51100000000E-03 0. -1.
        -11    1    3    3    0    0  0.21968669347E+01  0.11572332935E+02  0.64891916168E+01  0.13448223748E+02  0.51100000000E-03 0.  1.
        -12    1    3    3    0    0  0.83095614149E+01 -0.23133659036E+02  0.27619362052E+02  0.36973560167E+02  0.00000000000E+00 0.  1.
</event>
<event>
 7    1  0.3223600E-013  0.5930201E+02  0.7816164E-02  0.1266605E+00
        -11   -1    0    0    0    0  0.00000000000E+00  0.00000000000E+00  0.45593999997E+02  0.45594000000E+02  0.51100000000E-03 0.  1.
         11   -1    0    0    0    0 -0.00000000000E+00 -0.00000000000E+00 -0.45593999997E+02  0.45594000000E+02  0.51100000000E-03 0. -1.
    9900012    2    1    2    0    0  0.14835443929E+02 -0.27439062545E+02  0.66123945462E+01  0.59302010733E+02  0.50000121654E+02 0.  0.
         12    1    1    2    0    0 -0.14835443929E+02  0.27439062545E+02 -0.66123945462E+01  0.31885989267E+02  0.00000000000E+00 0. -1.
         11    1    3    3    0    0  0.48041767128E+00  0.30265400884E+01 -0.32772561126E+01  0.44867754495E+01  0.51100000000E-03 0. -1.
        -11    1    3    3    0    0 -0.12579746399E+02  0.19055032444E+00 -0.87460230844E+00  0.12611552574E+02  0.51100000000E-03 0.  1.
        -12    1    3    3    0    0  0.26934772656E+02 -0.30656152958E+02  0.10764252967E+02  0.42203682709E+02  0.00000000000E+00 0.  1.
</event>
<event>
 7    1  0.3223600E-013  0.5930195E+02  0.7816164E-02  0.1266605E+00
        -11   -1    0    0    0    0  0.00000000000E+00  0.00000000000E+00  0.45593999997E+02  0.45594000000E+02  0.51100000000E-03 0.  1.
         11   -1    0    0    0    0 -0.00000000000E+00 -0.00000000000E+00 -0.45593999997E+02  0.45594000000E+02  0.51100000000E-03 0. -1.
    9900012    2    1    2    0    0  0.17169278975E+02  0.11193931547E+02  0.24426052544E+02  0.59301948396E+02  0.50000007967E+02 0.  0.
         12    1    1    2    0    0 -0.17169278975E+02 -0.11193931547E+02 -0.24426052544E+02  0.31886051604E+02  0.00000000000E+00 0. -1.
         11    1    3    3    0    0  0.15633782771E+00  0.23197705951E+02  0.85260730535E+00  0.23213895459E+02  0.51100000000E-03 0. -1.
        -11    1    3    3    0    0 -0.34437107400E+01 -0.14347322668E+01  0.10442575288E+01  0.38740256047E+01  0.51100000000E-03 0.  1.
        -12    1    3    3    0    0  0.20456651887E+02 -0.10569042137E+02  0.22529187710E+02  0.32214027333E+02  0.00000000000E+00 0.  1.
</event>
<event>
 7    1  0.3223600E-013  0.5930194E+02  0.7816164E-02  0.1266605E+00
        -11   -1    0    0    0    0  0.00000000000E+00  0.00000000000E+00  0.45593999997E+02  0.45594000000E+02  0.51100000000E-03 0. -1.
         11   -1    0    0    0    0 -0.00000000000E+00 -0.00000000000E+00 -0.45593999997E+02  0.45594000000E+02  0.51100000000E-03 0.  1.
    9900012    2    1    2    0    0  0.24909354768E+02 -0.13772140440E+02 -0.14372644605E+02  0.59301941601E+02  0.49999995575E+02 0.  0.
         12    1    1    2    0    0 -0.24909354768E+02  0.13772140440E+02  0.14372644605E+02  0.31886058399E+02  0.00000000000E+00 0. -1.
         11    1    3    3    0    0  0.72921048646E+01  0.81478513425E+01 -0.11581769899E+02  0.15927952445E+02  0.51100000000E-03 0. -1.
        -11    1    3    3    0    0 -0.60152586048E+01 -0.80532876425E+01 -0.10872050648E+02  0.14806764113E+02  0.51100000000E-03 0.  1.
        -12    1    3    3    0    0  0.23632508508E+02 -0.13866704140E+02  0.80811759412E+01  0.28567225043E+02  0.00000000000E+00 0.  1.
</event>
<event>
 7    1  0.3223600E-013  0.5930195E+02  0.7816164E-02  0.1266605E+00
        -11   -1    0    0    0    0  0.00000000000E+00  0.00000000000E+00  0.45593999997E+02  0.45594000000E+02  0.51100000000E-03 0.  1.
         11   -1    0    0    0    0 -0.00000000000E+00 -0.00000000000E+00 -0.45593999997E+02  0.45594000000E+02  0.51100000000E-03 0. -1.
    9900012    2    1    2    0    0 -0.20927405667E+02 -0.37101401936E+01  0.23769702673E+02  0.59301949549E+02  0.50000010069E+02 0.  0.
         12    1    1    2    0    0  0.20927405667E+02  0.37101401936E+01 -0.23769702673E+02  0.31886050451E+02  0.00000000000E+00 0. -1.
         11    1    3    3    0    0 -0.98561122227E+01  0.19122677218E+02  0.46922769872E+01  0.22019018954E+02  0.51100000000E-03 0. -1.
        -11    1    3    3    0    0 -0.39615276019E+01  0.15692379677E+00 -0.27251926134E+01  0.48109251771E+01  0.51100000000E-03 0.  1.
        -12    1    3    3    0    0 -0.71097658428E+01 -0.22989741208E+02  0.21802618299E+02  0.32472005418E+02  0.00000000000E+00 0.  1.
</event>
<event>
 7    1  0.3223600E-013  0.5930195E+02  0.7816164E-02  0.1266605E+00
        -11   -1    0    0    0    0  0.00000000000E+00  0.00000000000E+00  0.45593999997E+02  0.45594000000E+02  0.51100000000E-03 0. -1.
         11   -1    0    0    0    0 -0.00000000000E+00 -0.00000000000E+00 -0.45593999997E+02  0.45594000000E+02  0.51100000000E-03 0.  1.
    9900012    2    1    2    0    0  0.15447158646E+02  0.49906695851E+01 -0.27444466772E+02  0.59301948981E+02  0.50000009034E+02 0.  0.
         12    1    1    2    0    0 -0.15447158646E+02 -0.49906695851E+01  0.27444466772E+02  0.31886051019E+02  0.00000000000E+00 0. -1.
         11    1    3    3    0    0  0.18689361977E+02  0.68350033173E+00  0.93523124621E+00  0.18725225808E+02  0.51100000000E-03 0. -1.
        -11    1    3    3    0    0  0.10203359323E+02  0.70433711030E+01 -0.47993049385E+01  0.13294771383E+02  0.51100000000E-03 0.  1.
        -12    1    3    3    0    0 -0.13445562654E+02 -0.27362018496E+01 -0.23580393080E+02  0.27281951790E+02  0.00000000000E+00 0.  1.
</event>
<event>
 7    1  0.3223600E-013  0.5930194E+02  0.7816164E-02  0.1266605E+00
        -11   -1    0    0    0    0  0.00000000000E+00  0.00000000000E+00  0.45593999997E+02  0.45594000000E+02  0.51100000000E-03 0.  1.
         11   -1    0    0    0    0 -0.00000000000E+00 -0.00000000000E+00 -0.45593999997E+02  0.45594000000E+02  0.51100000000E-03 0. -1.
    9900012    2    1    2    0    0  0.10167660196E+02  0.14475366661E+02  0.26529287866E+02  0.59301942412E+02  0.49999997053E+02 0.  0.
         12    1    1    2    0    0 -0.10167660196E+02 -0.14475366661E+02 -0.26529287866E+02  0.31886057588E+02  0.00000000000E+00 0. -1.
         11    1    3    3    0    0  0.12432169117E+02 -0.33942094209E+01  0.87931042958E+00  0.12917146498E+02  0.51100000000E-03 0. -1.
        -11    1    3    3    0    0 -0.46321297482E+00  0.56191066770E+01  0.31983604197E+02  0.32476758825E+02  0.51100000000E-03 0.  1.
         12    1    3    3    0    0 -0.18012959461E+01  0.12250469405E+02 -0.63336267602E+01  0.13908037089E+02  0.00000000000E+00 0. -1.
</event>
<event>
 7    1  0.3223600E-013  0.5930200E+02  0.7816164E-02  0.1266605E+00
        -11   -1    0    0    0    0  0.00000000000E+00  0.00000000000E+00  0.45593999997E+02  0.45594000000E+02  0.51100000000E-03 0. -1.
         11   -1    0    0    0    0 -0.00000000000E+00 -0.00000000000E+00 -0.45593999997E+02  0.45594000000E+02  0.51100000000E-03 0.  1.
    9900012    2    1    2    0    0  0.51657419381E+01  0.29927063521E+02 -0.97161203024E+01  0.59301999710E+02  0.50000101552E+02 0.  0.
         12    1    1    2    0    0 -0.51657419381E+01 -0.29927063521E+02  0.97161203024E+01  0.31886000290E+02  0.00000000000E+00 0. -1.
         11    1    3    3    0    0  0.76375467967E+01 -0.81075074899E+01 -0.11663111645E+02  0.16127367184E+02  0.51100000000E-03 0. -1.
        -11    1    3    3    0    0 -0.12170599127E+01  0.42677310622E+01 -0.69379442068E+01  0.82358869181E+01  0.51100000000E-03 0.  1.
         12    1    3    3    0    0 -0.12547449460E+01  0.33766839948E+02  0.88849355497E+01  0.34938745608E+02  0.00000000000E+00 0. -1.
</event>
<event>
 7    1  0.3223600E-013  0.5930191E+02  0.7816164E-02  0.1266605E+00
        -11   -1    0    0    0    0  0.00000000000E+00  0.00000000000E+00  0.45593999997E+02  0.45594000000E+02  0.51100000000E-03 0. -1.
         11   -1    0    0    0    0 -0.00000000000E+00 -0.00000000000E+00 -0.45593999997E+02  0.45594000000E+02  0.51100000000E-03 0.  1.
    9900012    2    1    2    0    0  0.27601753081E+02 -0.93482084062E+01 -0.12941295681E+02  0.59301907304E+02  0.49999933024E+02 0.  0.
         12    1    1    2    0    0 -0.27601753081E+02  0.93482084062E+01  0.12941295681E+02  0.31886092696E+02  0.00000000000E+00 0. -1.
         11    1    3    3    0    0  0.72911219805E+01  0.52146806092E+01  0.23249224969E+01  0.92605949305E+01  0.51100000000E-03 0. -1.
        -11    1    3    3    0    0  0.25893017031E+02 -0.46371911501E+01 -0.24063563032E+02  0.35651184255E+02  0.51100000000E-03 0.  1.
        -12    1    3    3    0    0 -0.55823859303E+01 -0.99256978652E+01  0.87973448537E+01  0.14390128118E+02  0.00000000000E+00 0.  1.
</event>
<event>
 7    1  0.3223600E-013  0.5930191E+02  0.7816164E-02  0.1266605E+00
        -11   -1    0    0    0    0  0.00000000000E+00  0.00000000000E+00  0.45593999997E+02  0.45594000000E+02  0.51100000000E-03 0.  1.
         11   -1    0    0    0    0 -0.00000000000E+00 -0.00000000000E+00 -0.45593999997E+02  0.45594000000E+02  0.51100000000E-03 0. -1.
    9900012    2    1    2    0    0  0.25943223840E+02 -0.18079848527E+01  0.18450013366E+02  0.59301911095E+02  0.49999939939E+02 0.  0.
         12    1    1    2    0    0 -0.25943223840E+02  0.18079848527E+01 -0.18450013366E+02  0.31886088905E+02  0.00000000000E+00 0. -1.
         11    1    3    3    0    0 -0.28329745311E+01 -0.10813807531E+02  0.67609660331E+01  0.13064258110E+02  0.51100000000E-03 0. -1.
        -11    1    3    3    0    0  0.45965043527E+01 -0.11010222589E+02 -0.18116897997E+01  0.12067935777E+02  0.51100000000E-03 0.  1.
         12    1    3    3    0    0  0.24179694018E+02  0.20016045267E+02  0.13500737133E+02  0.34169717208E+02  0.00000000000E+00 0. -1.
</event>
<event>
 7    1  0.3223600E-013  0.5930182E+02  0.7816164E-02  0.1266605E+00
        -11   -1    0    0    0    0  0.00000000000E+00  0.00000000000E+00  0.45593999997E+02  0.45594000000E+02  0.51100000000E-03 0. -1.
         11   -1    0    0    0    0 -0.00000000000E+00 -0.00000000000E+00 -0.45593999997E+02  0.45594000000E+02  0.51100000000E-03 0.  1.
    9900012    2    1    2    0    0 -0.10415229786E+02 -0.21857822886E+01 -0.30057845623E+02  0.59301815857E+02  0.49999766246E+02 0.  0.
         12    1    1    2    0    0  0.10415229786E+02  0.21857822886E+01  0.30057845623E+02  0.31886184143E+02  0.00000000000E+00 0. -1.
         11    1    3    3    0    0  0.47548622373E+01  0.19997093633E+02 -0.12099790547E+02  0.23851570183E+02  0.51100000000E-03 0. -1.
        -11    1    3    3    0    0 -0.13490611967E+00 -0.12886196355E+02 -0.74304491159E+01  0.14875611937E+02  0.51100000000E-03 0.  1.
        -12    1    3    3    0    0 -0.15035185904E+02 -0.92966795665E+01 -0.10527605961E+02  0.20574633737E+02  0.00000000000E+00 0.  1.
</event>
<event>
 7    1  0.3223600E-013  0.5930196E+02  0.7816164E-02  0.1266605E+00
        -11   -1    0    0    0    0  0.00000000000E+00  0.00000000000E+00  0.45593999997E+02  0.45594000000E+02  0.51100000000E-03 0. -1.
         11   -1    0    0    0    0 -0.00000000000E+00 -0.00000000000E+00 -0.45593999997E+02  0.45594000000E+02  0.51100000000E-03 0.  1.
    9900012    2    1    2    0    0  0.56977775405E+01  0.12762100578E+02 -0.28659796963E+02  0.59301955372E+02  0.50000020690E+02 0.  0.
         12    1    1    2    0    0 -0.56977775405E+01 -0.12762100578E+02  0.28659796963E+02  0.31886044628E+02  0.00000000000E+00 0. -1.
         11    1    3    3    0    0 -0.48481624543E+01  0.88892831669E+01 -0.23798111905E+02  0.25862601665E+02  0.51100000000E-03 0. -1.
        -11    1    3    3    0    0 -0.92858661682E+01 -0.37955231185E+01 -0.67527614955E+01  0.12092687638E+02  0.51100000000E-03 0.  1.
         12    1    3    3    0    0  0.19831806163E+02  0.76683405293E+01  0.18910764378E+01  0.21346666069E+02  0.00000000000E+00 0. -1.
</event>
<event>
 7    1  0.3223600E-013  0.5930195E+02  0.7816164E-02  0.1266605E+00
        -11   -1    0    0    0    0  0.00000000000E+00  0.00000000000E+00  0.45593999997E+02  0.45594000000E+02  0.51100000000E-03 0. -1.
         11   -1    0    0    0    0 -0.00000000000E+00 -0.00000000000E+00 -0.45593999997E+02  0.45594000000E+02  0.51100000000E-03 0.  1.
    9900012    2    1    2    0    0  0.96234417208E+01  0.55265014911E+01 -0.29892601089E+02  0.59301945851E+02  0.50000003326E+02 0.  0.
         12    1    1    2    0    0 -0.96234417208E+01 -0.55265014911E+01  0.29892601089E+02  0.31886054149E+02  0.00000000000E+00 0. -1.
         11    1    3    3    0    0  0.13278704955E+02  0.12385234416E+02  0.22295836116E+01  0.18294509563E+02  0.51100000000E-03 0. -1.
        -11    1    3    3    0    0  0.47895029462E+01 -0.95996406613E+01 -0.38891508329E+01  0.11411307277E+02  0.51100000000E-03 0.  1.
        -12    1    3    3    0    0 -0.84447661802E+01  0.27409077362E+01 -0.28233033868E+02  0.29596129011E+02  0.00000000000E+00 0.  1.
</event>
<event>
 7    1  0.3223600E-013  0.5930196E+02  0.7816164E-02  0.1266605E+00
        -11   -1    0    0    0    0  0.00000000000E+00  0.00000000000E+00  0.45593999997E+02  0.45594000000E+02  0.51100000000E-03 0. -1.
         11   -1    0    0    0    0 -0.00000000000E+00 -0.00000000000E+00 -0.45593999997E+02  0.45594000000E+02  0.51100000000E-03 0.  1.
    9900012    2    1    2    0    0 -0.12755684877E+02  0.29152802408E+02  0.20313605427E+01  0.59301955865E+02  0.50000021589E+02 0.  0.
         12    1    1    2    0    0  0.12755684877E+02 -0.29152802408E+02 -0.20313605427E+01  0.31886044135E+02  0.00000000000E+00 0. -1.
         11    1    3    3    0    0 -0.11982937570E+02  0.52368721345E+01 -0.65058449078E+01  0.14606219250E+02  0.51100000000E-03 0. -1.
        -11    1    3    3    0    0 -0.56147136865E+01  0.13127264992E+02 -0.13523422797E+02  0.19665529750E+02  0.51100000000E-03 0.  1.
         12    1    3    3    0    0  0.48419663801E+01  0.10788665282E+02  0.22060628248E+02  0.25030206864E+02  0.00000000000E+00 0. -1.
</event>
<event>
 7    1  0.3223600E-013  0.5930197E+02  0.7816164E-02  0.1266605E+00
        -11   -1    0    0    0    0  0.00000000000E+00  0.00000000000E+00  0.45593999997E+02  0.45594000000E+02  0.51100000000E-03 0.  1.
         11   -1    0    0    0    0 -0.00000000000E+00 -0.00000000000E+00 -0.45593999997E+02  0.45594000000E+02  0.51100000000E-03 0. -1.
    9900012    2    1    2    0    0  0.75937973805E+01  0.23745508614E+02  0.19879733718E+02  0.59301972485E+02  0.50000051899E+02 0.  0.
         12    1    1    2    0    0 -0.75937973805E+01 -0.23745508614E+02 -0.19879733718E+02  0.31886027515E+02  0.00000000000E+00 0. -1.
         11    1    3    3    0    0  0.13453315979E+02  0.26683830257E+02 -0.22904600394E+01  0.29971064637E+02  0.51100000000E-03 0. -1.
        -11    1    3    3    0    0 -0.50756899304E+01 -0.29072720501E+01 -0.11803001723E+01  0.59672412220E+01  0.51100000000E-03 0.  1.
        -12    1    3    3    0    0 -0.78382866826E+00 -0.31049592414E-01  0.23350493930E+02  0.23363666626E+02  0.00000000000E+00 0.  1.
</event>
<event>
 7    1  0.3223600E-013  0.5930193E+02  0.7816164E-02  0.1266605E+00
        -11   -1    0    0    0    0  0.00000000000E+00  0.00000000000E+00  0.45593999997E+02  0.45594000000E+02  0.51100000000E-03 0.  1.
         11   -1    0    0    0    0 -0.00000000000E+00 -0.00000000000E+00 -0.45593999997E+02  0.45594000000E+02  0.51100000000E-03 0. -1.
    9900012    2    1    2    0    0 -0.16701236290E+02 -0.15586493235E+02  0.22245252576E+02  0.59301932084E+02  0.49999978217E+02 0.  0.
         12    1    1    2    0    0  0.16701236290E+02  0.15586493235E+02 -0.22245252576E+02  0.31886067916E+02  0.00000000000E+00 0. -1.
         11    1    3    3    0    0  0.48432167206E+01  0.95412893925E+01  0.50492978043E+01  0.11831667678E+02  0.51100000000E-03 0. -1.
        -11    1    3    3    0    0  0.52703075951E+01 -0.18278061618E+01 -0.32769050887E+01  0.64695536734E+01  0.51100000000E-03 0.  1.
        -12    1    3    3    0    0 -0.26814760605E+02 -0.23299976466E+02  0.20472859861E+02  0.41000710732E+02  0.00000000000E+00 0.  1.
</event>
<event>
 7    1  0.3223600E-013  0.5930196E+02  0.7816164E-02  0.1266605E+00
        -11   -1    0    0    0    0  0.00000000000E+00  0.00000000000E+00  0.45593999997E+02  0.45594000000E+02  0.51100000000E-03 0.  1.
         11   -1    0    0    0    0 -0.00000000000E+00 -0.00000000000E+00 -0.45593999997E+02  0.45594000000E+02  0.51100000000E-03 0. -1.
    9900012    2    1    2    0    0  0.22859723682E+01  0.24364939804E+02  0.20441227916E+02  0.59301956658E+02  0.50000023034E+02 0.  0.
         12    1    1    2    0    0 -0.22859723682E+01 -0.24364939804E+02 -0.20441227916E+02  0.31886043342E+02  0.00000000000E+00 0. -1.
         11    1    3    3    0    0  0.37086732027E+01 -0.96956502027E+01 -0.25995657358E+00  0.10384000552E+02  0.51100000000E-03 0. -1.
        -11    1    3    3    0    0  0.13378193191E+02  0.15379054710E+02  0.11217099889E+02  0.23266170871E+02  0.51100000000E-03 0.  1.
        -12    1    3    3    0    0 -0.14800894026E+02  0.18681535297E+02  0.94840846005E+01  0.25651785235E+02  0.00000000000E+00 0.  1.
</event>
<event>
 7    1  0.3223600E-013  0.5930192E+02  0.7816164E-02  0.1266605E+00
        -11   -1    0    0    0    0  0.00000000000E+00  0.00000000000E+00  0.45593999997E+02  0.45594000000E+02  0.51100000000E-03 0. -1.
         11   -1    0    0    0    0 -0.00000000000E+00 -0.00000000000E+00 -0.45593999997E+02  0.45594000000E+02  0.51100000000E-03 0.  1.
    9900012    2    1    2    0    0 -0.27774780903E+01  0.92754636989E+01 -0.30380474748E+02  0.59301923771E+02  0.49999963057E+02 0.  0.
         12    1    1    2    0    0  0.27774780903E+01 -0.92754636989E+01  0.30380474748E+02  0.31886076229E+02  0.00000000000E+00 0. -1.
         11    1    3    3    0    0  0.14339259313E+02 -0.59552400751E+01 -0.16525407372E+01  0.15614420679E+02  0.51100000000E-03 0. -1.
        -11    1    3    3    0    0 -0.87736736480E+01  0.16064513655E+02 -0.56853975323E+01  0.19166890557E+02  0.51100000000E-03 0.  1.
        -12    1    3    3    0    0 -0.83430637556E+01 -0.83380988117E+00 -0.23042536478E+02  0.24520612535E+02  0.00000000000E+00 0.  1.
</event>
<event>
 7    1  0.3223600E-013  0.5930198E+02  0.7816164E-02  0.1266605E+00
        -11   -1    0    0    0    0  0.00000000000E+00  0.00000000000E+00  0.45593999997E+02  0.45594000000E+02  0.51100000000E-03 0.  1.
         11   -1    0    0    0    0 -0.00000000000E+00 -0.00000000000E+00 -0.45593999997E+02  0.45594000000E+02  0.51100000000E-03 0. -1.
    9900012    2    1    2    0    0  0.22300108566E+02 -0.11695619667E+02  0.19561088897E+02  0.59301975470E+02  0.50000057344E+02 0.  0.
         12    1    1    2    0    0 -0.22300108566E+02  0.11695619667E+02 -0.19561088897E+02  0.31886024530E+02  0.00000000000E+00 0. -1.
         11    1    3    3    0    0  0.20137284250E+02 -0.31924914556E+01 -0.13323142778E+02  0.24355868951E+02  0.51100000000E-03 0. -1.
        -11    1    3    3    0    0  0.32973158694E+00  0.15587855931E+00 -0.37868498091E+00  0.52576004086E+00  0.51100000000E-03 0.  1.
        -12    1    3    3    0    0  0.18330927296E+01 -0.86590067703E+01  0.33262916656E+02  0.34420346478E+02  0.00000000000E+00 0.  1.
</event>
<event>
 7    1  0.3223600E-013  0.5930196E+02  0.7816164E-02  0.1266605E+00
        -11   -1    0    0    0    0  0.00000000000E+00  0.00000000000E+00  0.45593999997E+02  0.45594000000E+02  0.51100000000E-03 0.  1.
         11   -1    0    0    0    0 -0.00000000000E+00 -0.00000000000E+00 -0.45593999997E+02  0.45594000000E+02  0.51100000000E-03 0. -1.
    9900012    2    1    2    0    0  0.16892131370E+02  0.21746899824E+01  0.26956379917E+02  0.59301956078E+02  0.50000021977E+02 0.  0.
         12    1    1    2    0    0 -0.16892131370E+02 -0.21746899824E+01 -0.26956379917E+02  0.31886043922E+02  0.00000000000E+00 0. -1.
         11    1    3    3    0    0  0.91721337002E+01 -0.76334106109E+01  0.60760834074E+01  0.13390884362E+02  0.51100000000E-03 0. -1.
        -11    1    3    3    0    0  0.15907438202E+02  0.91154647536E+01  0.29032180810E+02  0.34336654040E+02  0.51100000000E-03 0.  1.
         12    1    3    3    0    0 -0.81874405322E+01  0.69263583973E+00 -0.81518843003E+01  0.11574417675E+02  0.00000000000E+00 0. -1.
</event>
<event>
 7    1  0.3223600E-013  0.5930196E+02  0.7816164E-02  0.1266605E+00
        -11   -1    0    0    0    0  0.00000000000E+00  0.00000000000E+00  0.45593999997E+02  0.45594000000E+02  0.51100000000E-03 0.  1.
         11   -1    0    0    0    0 -0.00000000000E+00 -0.00000000000E+00 -0.45593999997E+02  0.45594000000E+02  0.51100000000E-03 0. -1.
    9900012    2    1    2    0    0 -0.41186865777E+01 -0.12681559442E+02  0.28964362858E+02  0.59301955329E+02  0.50000020611E+02 0.  0.
         12    1    1    2    0    0  0.41186865777E+01  0.12681559442E+02 -0.28964362858E+02  0.31886044671E+02  0.00000000000E+00 0. -1.
         11    1    3    3    0    0 -0.13739476565E+01  0.11866243577E+02  0.89468339740E+01  0.14924520334E+02  0.51100000000E-03 0. -1.
        -11    1    3    3    0    0 -0.85453959771E+01 -0.73910016807E+01 -0.59101725617E+01  0.12750719126E+02  0.51100000000E-03 0.  1.
        -12    1    3    3    0    0  0.58006570560E+01 -0.17156801338E+02  0.25927701445E+02  0.31626715869E+02  0.00000000000E+00 0.  1.
</event>
<event>
 7    1  0.3223600E-013  0.5930193E+02  0.7816164E-02  0.1266605E+00
        -11   -1    0    0    0    0  0.00000000000E+00  0.00000000000E+00  0.45593999997E+02  0.45594000000E+02  0.51100000000E-03 0.  1.
         11   -1    0    0    0    0 -0.00000000000E+00 -0.00000000000E+00 -0.45593999997E+02  0.45594000000E+02  0.51100000000E-03 0. -1.
    9900012    2    1    2    0    0  0.30035500077E+01 -0.17567590039E+02  0.26440121123E+02  0.59301928786E+02  0.49999972203E+02 0.  0.
         12    1    1    2    0    0 -0.30035500077E+01  0.17567590039E+02 -0.26440121123E+02  0.31886071214E+02  0.00000000000E+00 0. -1.
         11    1    3    3    0    0 -0.79918262760E+01 -0.40689608644E+01 -0.32302041923E+01  0.95320485273E+01  0.51100000000E-03 0. -1.
        -11    1    3    3    0    0  0.84283733955E+01 -0.72270553590E+01 -0.65703621726E+01  0.12901064553E+02  0.51100000000E-03 0.  1.
        -12    1    3    3    0    0  0.25670028882E+01 -0.62715738158E+01  0.36240687488E+02  0.36868815706E+02  0.00000000000E+00 0.  1.
</event>
<event>
 7    1  0.3223600E-013  0.5930192E+02  0.7816164E-02  0.1266605E+00
        -11   -1    0    0    0    0  0.00000000000E+00  0.00000000000E+00  0.45593999997E+02  0.45594000000E+02  0.51100000000E-03 0. -1.
         11   -1    0    0    0    0 -0.00000000000E+00 -0.00000000000E+00 -0.45593999997E+02  0.45594000000E+02  0.51100000000E-03 0.  1.
    9900012    2    1    2    0    0  0.30902070520E+01 -0.24231329063E+02 -0.20494270982E+02  0.59301924185E+02  0.49999963812E+02 0.  0.
         12    1    1    2    0    0 -0.30902070520E+01  0.24231329063E+02  0.20494270982E+02  0.31886075815E+02  0.00000000000E+00 0. -1.
         11    1    3    3    0    0  0.23760584724E+01 -0.48487680681E-01  0.51543071558E+01  0.56758160150E+01  0.51100000000E-03 0. -1.
        -11    1    3    3    0    0 -0.11483109340E+02 -0.16650832672E+02  0.40688547021E+01  0.20631713638E+02  0.51100000000E-03 0.  1.
        -12    1    3    3    0    0  0.12197257919E+02 -0.75320087097E+01 -0.29717432840E+02  0.32994394533E+02  0.00000000000E+00 0.  1.
</event>
<event>
 7    1  0.3223600E-013  0.5930195E+02  0.7816164E-02  0.1266605E+00
        -11   -1    0    0    0    0  0.00000000000E+00  0.00000000000E+00  0.45593999997E+02  0.45594000000E+02  0.51100000000E-03 0. -1.
         11   -1    0    0    0    0 -0.00000000000E+00 -0.00000000000E+00 -0.45593999997E+02  0.45594000000E+02  0.51100000000E-03 0.  1.
    9900012    2    1    2    0    0  0.26971538299E+02  0.14354240284E+01 -0.16946860751E+02  0.59301946471E+02  0.50000004456E+02 0.  0.
         12    1    1    2    0    0 -0.26971538299E+02 -0.14354240284E+01  0.16946860751E+02  0.31886053529E+02  0.00000000000E+00 0. -1.
         11    1    3    3    0    0  0.67434570454E+01 -0.16478478842E+01  0.27711994127E+01  0.74745676811E+01  0.51100000000E-03 0. -1.
        -11    1    3    3    0    0  0.24798168304E+02  0.18480863710E+02 -0.17715052070E+02  0.35641472259E+02  0.51100000000E-03 0.  1.
         12    1    3    3    0    0 -0.45700870505E+01 -0.15397591798E+02 -0.20030080938E+01  0.16185906531E+02  0.00000000000E+00 0. -1.
</event>
<event>
 7    1  0.3223600E-013  0.5930190E+02  0.7816164E-02  0.1266605E+00
        -11   -1    0    0    0    0  0.00000000000E+00  0.00000000000E+00  0.45593999997E+02  0.45594000000E+02  0.51100000000E-03 0.  1.
         11   -1    0    0    0    0 -0.00000000000E+00 -0.00000000000E+00 -0.45593999997E+02  0.45594000000E+02  0.51100000000E-03 0. -1.
    9900012    2    1    2    0    0  0.67987455746E+01 -0.17502263978E+02  0.25771519481E+02  0.59301899547E+02  0.49999918877E+02 0.  0.
         12    1    1    2    0    0 -0.67987455746E+01  0.17502263978E+02 -0.25771519481E+02  0.31886100453E+02  0.00000000000E+00 0. -1.
         11    1    3    3    0    0 -0.90620988147E+01  0.39412272071E+01  0.41777056329E+01  0.10728845765E+02  0.51100000000E-03 0. -1.
        -11    1    3    3    0    0 -0.54233435896E+01 -0.90091235279E+01  0.21487604823E+02  0.23922669661E+02  0.51100000000E-03 0.  1.
         12    1    3    3    0    0  0.21284187979E+02 -0.12434367657E+02  0.10620902537E+00  0.24650384121E+02  0.00000000000E+00 0. -1.
</event>
<event>
 7    1  0.3223600E-013  0.5930195E+02  0.7816164E-02  0.1266605E+00
        -11   -1    0    0    0    0  0.00000000000E+00  0.00000000000E+00  0.45593999997E+02  0.45594000000E+02  0.51100000000E-03 0.  1.
         11   -1    0    0    0    0 -0.00000000000E+00 -0.00000000000E+00 -0.45593999997E+02  0.45594000000E+02  0.51100000000E-03 0. -1.
    9900012    2    1    2    0    0 -0.11435176121E+02  0.29710685476E+02  0.17978211030E+01  0.59301949051E+02  0.50000009162E+02 0.  0.
         12    1    1    2    0    0  0.11435176121E+02 -0.29710685476E+02 -0.17978211030E+01  0.31886050949E+02  0.00000000000E+00 0. -1.
         11    1    3    3    0    0 -0.10251033464E+02  0.13905575506E+02  0.75605353019E+01  0.18857635364E+02  0.51100000000E-03 0. -1.
        -11    1    3    3    0    0 -0.10013946949E+01  0.25217427268E+02  0.54341801959E+01  0.25815726680E+02  0.51100000000E-03 0.  1.
         12    1    3    3    0    0 -0.18274796211E+00 -0.94123172976E+01 -0.11196894395E+02  0.14628587007E+02  0.00000000000E+00 0. -1.
</event>
<event>
 7    1  0.3223600E-013  0.5930193E+02  0.7816164E-02  0.1266605E+00
        -11   -1    0    0    0    0  0.00000000000E+00  0.00000000000E+00  0.45593999997E+02  0.45594000000E+02  0.51100000000E-03 0.  1.
         11   -1    0    0    0    0 -0.00000000000E+00 -0.00000000000E+00 -0.45593999997E+02  0.45594000000E+02  0.51100000000E-03 0. -1.
    9900012    2    1    2    0    0 -0.24749482090E+02  0.19604332974E+02  0.44558780618E+01  0.59301928050E+02  0.49999970861E+02 0.  0.
         12    1    1    2    0    0  0.24749482090E+02 -0.19604332974E+02 -0.44558780618E+01  0.31886071950E+02  0.00000000000E+00 0. -1.
         11    1    3    3    0    0 -0.13718859773E+02 -0.63167294822E+01 -0.45525179816E+01  0.15774460532E+02  0.51100000000E-03 0. -1.
        -11    1    3    3    0    0 -0.18297495554E+02  0.15142234796E+02 -0.51541485355E+01  0.24303309765E+02  0.51100000000E-03 0.  1.
        -12    1    3    3    0    0  0.72668732367E+01  0.10778827660E+02  0.14162544579E+02  0.19224157753E+02  0.00000000000E+00 0.  1.
</event>
<event>
 7    1  0.3223600E-013  0.5930196E+02  0.7816164E-02  0.1266605E+00
        -11   -1    0    0    0    0  0.00000000000E+00  0.00000000000E+00  0.45593999997E+02  0.45594000000E+02  0.51100000000E-03 0. -1.
         11   -1    0    0    0    0 -0.00000000000E+00 -0.00000000000E+00 -0.45593999997E+02  0.45594000000E+02  0.51100000000E-03 0.  1.
    9900012    2    1    2    0    0 -0.14806319925E+02  0.42110190004E+01 -0.27924175223E+02  0.59301963047E+02  0.50000034686E+02 0.  0.
         12    1    1    2    0    0  0.14806319925E+02 -0.42110190004E+01  0.27924175223E+02  0.31886036953E+02  0.00000000000E+00 0. -1.
         11    1    3    3    0    0 -0.18839203920E+02  0.70711772250E+01 -0.42096717556E+01  0.20558173270E+02  0.51100000000E-03 0. -1.
        -11    1    3    3    0    0 -0.18342951604E+01  0.12204125810E+02 -0.34376408236E+01  0.12811038218E+02  0.51100000000E-03 0.  1.
        -12    1    3    3    0    0  0.58671791552E+01 -0.15064284035E+02 -0.20276862643E+02  0.25932751558E+02  0.00000000000E+00 0.  1.
</event>
<event>
 7    1  0.3223600E-013  0.5930188E+02  0.7816164E-02  0.1266605E+00
        -11   -1    0    0    0    0  0.00000000000E+00  0.00000000000E+00  0.45593999997E+02  0.45594000000E+02  0.51100000000E-03 0.  1.
         11   -1    0    0    0    0 -0.00000000000E+00 -0.00000000000E+00 -0.45593999997E+02  0.45594000000E+02  0.51100000000E-03 0. -1.
    9900012    2    1    2    0    0  0.21685484428E+02 -0.23374885298E+02  0.28088874370E+00  0.59301883961E+02  0.49999890452E+02 0.  0.
         12    1    1    2    0    0 -0.21685484428E+02  0.23374885298E+02 -0.28088874370E+00  0.31886116039E+02  0.00000000000E+00 0. -1.
         11    1    3    3    0    0  0.18332011687E+02 -0.58028087655E+01 -0.15664319942E+02  0.24801333867E+02  0.51100000000E-03 0. -1.
        -11    1    3    3    0    0 -0.39329221690E+01  0.48802234274E+01  0.66308544638E+01  0.91242911324E+01  0.51100000000E-03 0.  1.
        -12    1    3    3    0    0  0.72863949094E+01 -0.22452299960E+02  0.93143542222E+01  0.25376258961E+02  0.00000000000E+00 0.  1.
</event>
<event>
 7    1  0.3223600E-013  0.5930205E+02  0.7816164E-02  0.1266604E+00
        -11   -1    0    0    0    0  0.00000000000E+00  0.00000000000E+00  0.45593999997E+02  0.45594000000E+02  0.51100000000E-03 0.  1.
         11   -1    0    0    0    0 -0.00000000000E+00 -0.00000000000E+00 -0.45593999997E+02  0.45594000000E+02  0.51100000000E-03 0. -1.
    9900012    2    1    2    0    0  0.17198742610E+02  0.26730503236E+02 -0.25292548238E+01  0.59302051988E+02  0.50000196894E+02 0.  0.
         12    1    1    2    0    0 -0.17198742610E+02 -0.26730503236E+02  0.25292548238E+01  0.31885948012E+02  0.00000000000E+00 0. -1.
         11    1    3    3    0    0  0.34313623319E+01  0.66366106837E+01  0.96918733747E+01  0.12237289675E+02  0.51100000000E-03 0. -1.
        -11    1    3    3    0    0  0.18850779622E+02  0.26872800259E+02 -0.78878704821E+00  0.32834760108E+02  0.51100000000E-03 0.  1.
         12    1    3    3    0    0 -0.50833993436E+01 -0.67789077059E+01 -0.11432341150E+02  0.14230002205E+02  0.00000000000E+00 0. -1.
</event>
<event>
 7    1  0.3223600E-013  0.5930195E+02  0.7816164E-02  0.1266605E+00
        -11   -1    0    0    0    0  0.00000000000E+00  0.00000000000E+00  0.45593999997E+02  0.45594000000E+02  0.51100000000E-03 0. -1.
         11   -1    0    0    0    0 -0.00000000000E+00 -0.00000000000E+00 -0.45593999997E+02  0.45594000000E+02  0.51100000000E-03 0.  1.
    9900012    2    1    2    0    0  0.73451096835E+01 -0.23013984779E+02 -0.20811679758E+02  0.59301950605E+02  0.50000011996E+02 0.  0.
         12    1    1    2    0    0 -0.73451096835E+01  0.23013984779E+02  0.20811679758E+02  0.31886049395E+02  0.00000000000E+00 0. -1.
         11    1    3    3    0    0  0.22538741749E+02  0.85376571924E+00 -0.10316930730E+02  0.24802476802E+02  0.51100000000E-03 0. -1.
        -11    1    3    3    0    0 -0.10075027957E+01 -0.46775911821E+00 -0.67961567331E+01  0.68863348072E+01  0.51100000000E-03 0.  1.
         12    1    3    3    0    0 -0.14186129270E+02 -0.23399991380E+02 -0.36985922943E+01  0.27613138996E+02  0.00000000000E+00 0. -1.
</event>
<event>
 7    1  0.3223600E-013  0.5930194E+02  0.7816164E-02  0.1266605E+00
        -11   -1    0    0    0    0  0.00000000000E+00  0.00000000000E+00  0.45593999997E+02  0.45594000000E+02  0.51100000000E-03 0.  1.
         11   -1    0    0    0    0 -0.00000000000E+00 -0.00000000000E+00 -0.45593999997E+02  0.45594000000E+02  0.51100000000E-03 0. -1.
    9900012    2    1    2    0    0 -0.23276902812E+02 -0.21767852954E+02  0.10330032221E+01  0.59301941567E+02  0.49999995512E+02 0.  0.
         12    1    1    2    0    0  0.23276902812E+02  0.21767852954E+02 -0.10330032221E+01  0.31886058433E+02  0.00000000000E+00 0. -1.
         11    1    3    3    0    0 -0.79566480776E+01 -0.15414916781E+02  0.69354445144E+01  0.18682299079E+02  0.51100000000E-03 0.  1.
        -11    1    3    3    0    0 -0.35580281966E+01 -0.14721258122E+02 -0.16735871872E+02  0.22571318369E+02  0.51100000000E-03 0. -1.
         12    1    3    3    0    0 -0.11762226538E+02  0.83683219495E+01  0.10833430580E+02  0.18048324119E+02  0.00000000000E+00 0. -1.
</event>
<event>
 7    1  0.3223600E-013  0.5930185E+02  0.7816164E-02  0.1266605E+00
        -11   -1    0    0    0    0  0.00000000000E+00  0.00000000000E+00  0.45593999997E+02  0.45594000000E+02  0.51100000000E-03 0. -1.
         11   -1    0    0    0    0 -0.00000000000E+00 -0.00000000000E+00 -0.45593999997E+02  0.45594000000E+02  0.51100000000E-03 0.  1.
    9900012    2    1    2    0    0 -0.27646377388E+02  0.12847740990E+01 -0.15835198591E+02  0.59301853454E+02  0.49999834815E+02 0.  0.
         12    1    1    2    0    0  0.27646377388E+02 -0.12847740990E+01  0.15835198591E+02  0.31886146546E+02  0.00000000000E+00 0. -1.
         11    1    3    3    0    0  0.13365823384E+01 -0.15207104192E+00  0.13900671057E+01  0.19343900249E+01  0.51100000000E-03 0. -1.
        -11    1    3    3    0    0  0.95154530673E+01  0.91228951952E+01  0.25239063724E+01  0.13421667834E+02  0.51100000000E-03 0.  1.
        -12    1    3    3    0    0 -0.38498412793E+02 -0.76860500543E+01 -0.19749172069E+02  0.43945795595E+02  0.00000000000E+00 0.  1.
</event>
<event>
 7    1  0.3223600E-013  0.5930194E+02  0.7816164E-02  0.1266605E+00
        -11   -1    0    0    0    0  0.00000000000E+00  0.00000000000E+00  0.45593999997E+02  0.45594000000E+02  0.51100000000E-03 0.  1.
         11   -1    0    0    0    0 -0.00000000000E+00 -0.00000000000E+00 -0.45593999997E+02  0.45594000000E+02  0.51100000000E-03 0. -1.
    9900012    2    1    2    0    0  0.18326632811E+01  0.13568089180E+02  0.28797029115E+02  0.59301943728E+02  0.49999999454E+02 0.  0.
         12    1    1    2    0    0 -0.18326632811E+01 -0.13568089180E+02 -0.28797029115E+02  0.31886056272E+02  0.00000000000E+00 0. -1.
         11    1    3    3    0    0  0.13332465691E+02  0.80743911629E+00  0.17898212322E+01  0.13476277662E+02  0.51100000000E-03 0. -1.
        -11    1    3    3    0    0 -0.10858853112E+02 -0.95239289289E+01  0.78932030369E+01  0.16459725623E+02  0.51100000000E-03 0.  1.
        -12    1    3    3    0    0 -0.64094929761E+00  0.22284578992E+02  0.19114004846E+02  0.29365940443E+02  0.00000000000E+00 0.  1.
</event>
<event>
 7    1  0.3223600E-013  0.5930196E+02  0.7816164E-02  0.1266605E+00
        -11   -1    0    0    0    0  0.00000000000E+00  0.00000000000E+00  0.45593999997E+02  0.45594000000E+02  0.51100000000E-03 0.  1.
         11   -1    0    0    0    0 -0.00000000000E+00 -0.00000000000E+00 -0.45593999997E+02  0.45594000000E+02  0.51100000000E-03 0. -1.
    9900012    2    1    2    0    0  0.31141081396E+02  0.68428477748E+01 -0.35812022693E+00  0.59301956560E+02  0.50000022855E+02 0.  0.
         12    1    1    2    0    0 -0.31141081396E+02 -0.68428477748E+01  0.35812022693E+00  0.31886043440E+02  0.00000000000E+00 0. -1.
         11    1    3    3    0    0  0.55489166196E+01  0.11437607961E+02  0.10574177925E+01  0.12756468327E+02  0.51100000000E-03 0. -1.
        -11    1    3    3    0    0  0.21226937848E+02 -0.14641301712E+01  0.17080627072E+02  0.27285057980E+02  0.51100000000E-03 0.  1.
         12    1    3    3    0    0  0.43652269282E+01 -0.31306300152E+01 -0.18496165091E+02  0.19260430252E+02  0.00000000000E+00 0. -1.
</event>
<event>
 7    1  0.3223600E-013  0.5930193E+02  0.7816164E-02  0.1266605E+00
        -11   -1    0    0    0    0  0.00000000000E+00  0.00000000000E+00  0.45593999997E+02  0.45594000000E+02  0.51100000000E-03 0. -1.
         11   -1    0    0    0    0 -0.00000000000E+00 -0.00000000000E+00 -0.45593999997E+02  0.45594000000E+02  0.51100000000E-03 0.  1.
    9900012    2    1    2    0    0 -0.26703109938E+02 -0.26341593652E+01 -0.17225747307E+02  0.59301933354E+02  0.49999980533E+02 0.  0.
         12    1    1    2    0    0  0.26703109938E+02  0.26341593652E+01  0.17225747307E+02  0.31886066646E+02  0.00000000000E+00 0. -1.
         11    1    3    3    0    0  0.19530685822E+01  0.31178310371E+00 -0.32246242941E+00  0.20039131393E+01  0.51100000000E-03 0. -1.
        -11    1    3    3    0    0 -0.12888266499E+02 -0.20614528188E+02  0.52475296915E+01  0.24871725993E+02  0.51100000000E-03 0.  1.
        -12    1    3    3    0    0 -0.15767912022E+02  0.17668585719E+02 -0.22150814569E+02  0.32426294221E+02  0.00000000000E+00 0.  1.
</event>
<event>
 7    1  0.3223600E-013  0.5930196E+02  0.7816164E-02  0.1266605E+00
        -11   -1    0    0    0    0  0.00000000000E+00  0.00000000000E+00  0.45593999997E+02  0.45594000000E+02  0.51100000000E-03 0.  1.
         11   -1    0    0    0    0 -0.00000000000E+00 -0.00000000000E+00 -0.45593999997E+02  0.45594000000E+02  0.51100000000E-03 0. -1.
    9900012    2    1    2    0    0  0.96603802310E+01 -0.17314967494E+02  0.24971749414E+02  0.59301963647E+02  0.50000035781E+02 0.  0.
         12    1    1    2    0    0 -0.96603802310E+01  0.17314967494E+02 -0.24971749414E+02  0.31886036353E+02  0.00000000000E+00 0. -1.
         11    1    3    3    0    0 -0.88482220300E+00  0.49340099315E+01 -0.62437591702E+01  0.80069902693E+01  0.51100000000E-03 0. -1.
        -11    1    3    3    0    0  0.12419365166E+02 -0.23759168034E+02  0.80316841154E+01  0.27986544031E+02  0.51100000000E-03 0.  1.
         12    1    3    3    0    0 -0.18741627325E+01  0.15101906090E+01  0.23183824468E+02  0.23308429347E+02  0.00000000000E+00 0. -1.
</event>
<event>
 7    1  0.3223600E-013  0.5930193E+02  0.7816164E-02  0.1266605E+00
        -11   -1    0    0    0    0  0.00000000000E+00  0.00000000000E+00  0.45593999997E+02  0.45594000000E+02  0.51100000000E-03 0.  1.
         11   -1    0    0    0    0 -0.00000000000E+00 -0.00000000000E+00 -0.45593999997E+02  0.45594000000E+02  0.51100000000E-03 0. -1.
    9900012    2    1    2    0    0 -0.31858593907E+02 -0.18559786617E+00 -0.13102689479E+01  0.59301933184E+02  0.49999980224E+02 0.  0.
         12    1    1    2    0    0  0.31858593907E+02  0.18559786617E+00  0.13102689479E+01  0.31886066816E+02  0.00000000000E+00 0. -1.
         11    1    3    3    0    0 -0.25151567803E+02 -0.15921827541E+02  0.59797169406E+01  0.30362196399E+02  0.51100000000E-03 0. -1.
        -11    1    3    3    0    0  0.36506854300E+01 -0.41265627981E+01 -0.24074377637E+01  0.60126351530E+01  0.51100000000E-03 0.  1.
         12    1    3    3    0    0 -0.10357711533E+02  0.19862792473E+02 -0.48825481248E+01  0.22927101632E+02  0.00000000000E+00 0. -1.
</event>
<event>
 7    1  0.3223600E-013  0.5930195E+02  0.7816164E-02  0.1266605E+00
        -11   -1    0    0    0    0  0.00000000000E+00  0.00000000000E+00  0.45593999997E+02  0.45594000000E+02  0.51100000000E-03 0. -1.
         11   -1    0    0    0    0 -0.00000000000E+00 -0.00000000000E+00 -0.45593999997E+02  0.45594000000E+02  0.51100000000E-03 0.  1.
    9900012    2    1    2    0    0 -0.14562551035E+02 -0.20574634765E+02 -0.19527844724E+02  0.59301949634E+02  0.50000010225E+02 0.  0.
         12    1    1    2    0    0  0.14562551035E+02  0.20574634765E+02  0.19527844724E+02  0.31886050366E+02  0.00000000000E+00 0. -1.
         11    1    3    3    0    0 -0.40549924695E+01 -0.28463971939E+02 -0.12392107401E+02  0.31308225574E+02  0.51100000000E-03 0. -1.
        -11    1    3    3    0    0 -0.19643198524E+01 -0.57985278642E+01 -0.98836788713E+01  0.11626202569E+02  0.51100000000E-03 0.  1.
        -12    1    3    3    0    0 -0.85432387135E+01  0.13687865039E+02  0.27479415485E+01  0.16367521492E+02  0.00000000000E+00 0.  1.
</event>
<event>
 7    1  0.3223600E-013  0.5930197E+02  0.7816164E-02  0.1266605E+00
        -11   -1    0    0    0    0  0.00000000000E+00  0.00000000000E+00  0.45593999997E+02  0.45594000000E+02  0.51100000000E-03 0.  1.
         11   -1    0    0    0    0 -0.00000000000E+00 -0.00000000000E+00 -0.45593999997E+02  0.45594000000E+02  0.51100000000E-03 0. -1.
    9900012    2    1    2    0    0  0.26185990251E+01 -0.20230328007E+02  0.24507047637E+02  0.59301974597E+02  0.50000055751E+02 0.  0.
         12    1    1    2    0    0 -0.26185990251E+01  0.20230328007E+02 -0.24507047637E+02  0.31886025403E+02  0.00000000000E+00 0. -1.
         11    1    3    3    0    0 -0.70357175346E+01  0.30015713397E+01  0.21453287246E+02  0.22776178030E+02  0.51100000000E-03 0. -1.
        -11    1    3    3    0    0 -0.61777108117E+01 -0.18317179291E+02  0.46180082645E+01  0.19874837575E+02  0.51100000000E-03 0.  1.
         12    1    3    3    0    0  0.15832027371E+02 -0.49147200559E+01 -0.15642478737E+01  0.16650958991E+02  0.00000000000E+00 0. -1.
</event>
<event>
 7    1  0.3223600E-013  0.5930199E+02  0.7816164E-02  0.1266605E+00
        -11   -1    0    0    0    0  0.00000000000E+00  0.00000000000E+00  0.45593999997E+02  0.45594000000E+02  0.51100000000E-03 0. -1.
         11   -1    0    0    0    0 -0.00000000000E+00 -0.00000000000E+00 -0.45593999997E+02  0.45594000000E+02  0.51100000000E-03 0.  1.
    9900012    2    1    2    0    0 -0.26885852031E+02  0.11909196424E+02  0.12330437844E+02  0.59301989018E+02  0.50000082051E+02 0.  0.
         12    1    1    2    0    0  0.26885852031E+02 -0.11909196424E+02 -0.12330437844E+02  0.31886010982E+02  0.00000000000E+00 0. -1.
         11    1    3    3    0    0 -0.26157446564E+02  0.19582622214E+01  0.81961556749E+01  0.27481334935E+02  0.51100000000E-03 0. -1.
        -11    1    3    3    0    0 -0.65362200771E+01  0.85860971208E+01 -0.11087307491E+02  0.15471639355E+02  0.51100000000E-03 0.  1.
        -12    1    3    3    0    0  0.58078146101E+01  0.13648370816E+01  0.15221589660E+02  0.16349014728E+02  0.00000000000E+00 0.  1.
</event>
<event>
 7    1  0.3223600E-013  0.5930189E+02  0.7816164E-02  0.1266605E+00
        -11   -1    0    0    0    0  0.00000000000E+00  0.00000000000E+00  0.45593999997E+02  0.45594000000E+02  0.51100000000E-03 0.  1.
         11   -1    0    0    0    0 -0.00000000000E+00 -0.00000000000E+00 -0.45593999997E+02  0.45594000000E+02  0.51100000000E-03 0. -1.
    9900012    2    1    2    0    0 -0.19569168463E+02  0.35241329640E+01  0.24926939922E+02  0.59301887014E+02  0.49999896021E+02 0.  0.
         12    1    1    2    0    0  0.19569168463E+02 -0.35241329640E+01 -0.24926939922E+02  0.31886112986E+02  0.00000000000E+00 0. -1.
         11    1    3    3    0    0 -0.56897703716E+01  0.33870006083E+00 -0.45982925955E+01  0.73234213089E+01  0.51100000000E-03 0. -1.
        -11    1    3    3    0    0  0.26288209694E+01 -0.13109071055E+02 -0.12640052051E+01  0.13429674346E+02  0.51100000000E-03 0.  1.
        -12    1    3    3    0    0 -0.16508219060E+02  0.16294503958E+02  0.30789237722E+02  0.38548791360E+02  0.00000000000E+00 0.  1.
</event>
<event>
 7    1  0.3223600E-013  0.5930195E+02  0.7816164E-02  0.1266605E+00
        -11   -1    0    0    0    0  0.00000000000E+00  0.00000000000E+00  0.45593999997E+02  0.45594000000E+02  0.51100000000E-03 0.  1.
         11   -1    0    0    0    0 -0.00000000000E+00 -0.00000000000E+00 -0.45593999997E+02  0.45594000000E+02  0.51100000000E-03 0. -1.
    9900012    2    1    2    0    0  0.34101617853E+01 -0.28838932499E+02  0.13168413977E+02  0.59301947285E+02  0.50000005940E+02 0.  0.
         12    1    1    2    0    0 -0.34101617853E+01  0.28838932499E+02 -0.13168413977E+02  0.31886052715E+02  0.00000000000E+00 0. -1.
         11    1    3    3    0    0  0.56883728226E+01 -0.10461140658E+02  0.95757565086E+01  0.15280319440E+02  0.51100000000E-03 0. -1.
        -11    1    3    3    0    0 -0.17446049244E+02 -0.16951676470E+01  0.10509480317E+02  0.20437402094E+02  0.51100000000E-03 0.  1.
         12    1    3    3    0    0  0.15167838207E+02 -0.16682624195E+02 -0.69168228491E+01  0.23584225750E+02  0.00000000000E+00 0. -1.
</event>
<event>
 7    1  0.3223600E-013  0.5930194E+02  0.7816164E-02  0.1266605E+00
        -11   -1    0    0    0    0  0.00000000000E+00  0.00000000000E+00  0.45593999997E+02  0.45594000000E+02  0.51100000000E-03 0. -1.
         11   -1    0    0    0    0 -0.00000000000E+00 -0.00000000000E+00 -0.45593999997E+02  0.45594000000E+02  0.51100000000E-03 0.  1.
    9900012    2    1    2    0    0  0.27762794149E+02  0.11418654662E+02 -0.10749985149E+02  0.59301943581E+02  0.49999999186E+02 0.  0.
         12    1    1    2    0    0 -0.27762794149E+02 -0.11418654662E+02  0.10749985149E+02  0.31886056419E+02  0.00000000000E+00 0. -1.
         11    1    3    3    0    0 -0.18780091654E+01  0.11307714288E+02 -0.87773597180E+01  0.14437221503E+02  0.51100000000E-03 0. -1.
        -11    1    3    3    0    0 -0.98723214500E+00  0.45378010768E+01  0.10514234757E+02  0.11494146280E+02  0.51100000000E-03 0.  1.
        -12    1    3    3    0    0  0.30628035459E+02 -0.44268607033E+01 -0.12486860187E+02  0.33370575799E+02  0.00000000000E+00 0.  1.
</event>
<event>
 7    1  0.3223600E-013  0.5930192E+02  0.7816164E-02  0.1266605E+00
        -11   -1    0    0    0    0  0.00000000000E+00  0.00000000000E+00  0.45593999997E+02  0.45594000000E+02  0.51100000000E-03 0. -1.
         11   -1    0    0    0    0 -0.00000000000E+00 -0.00000000000E+00 -0.45593999997E+02  0.45594000000E+02  0.51100000000E-03 0.  1.
    9900012    2    1    2    0    0  0.20083831348E+02  0.72373905444E+01 -0.23685056367E+02  0.59301921555E+02  0.49999959016E+02 0.  0.
         12    1    1    2    0    0 -0.20083831348E+02 -0.72373905444E+01  0.23685056367E+02  0.31886078445E+02  0.00000000000E+00 0. -1.
         11    1    3    3    0    0  0.15054285732E+02 -0.16334229458E+02 -0.69578028722E+01  0.23277662940E+02  0.51100000000E-03 0. -1.
        -11    1    3    3    0    0  0.41466685352E+00  0.10425821566E+02  0.38945122245E+01  0.11137186793E+02  0.51100000000E-03 0.  1.
        -12    1    3    3    0    0  0.46148787618E+01  0.13145798436E+02 -0.20621765719E+02  0.24887071822E+02  0.00000000000E+00 0.  1.
</event>
<event>
 7    1  0.3223600E-013  0.5930199E+02  0.7816164E-02  0.1266605E+00
        -11   -1    0    0    0    0  0.00000000000E+00  0.00000000000E+00  0.45593999997E+02  0.45594000000E+02  0.51100000000E-03 0.  1.
         11   -1    0    0    0    0 -0.00000000000E+00 -0.00000000000E+00 -0.45593999997E+02  0.45594000000E+02  0.51100000000E-03 0. -1.
    9900012    2    1    2    0    0  0.22452857915E+02  0.18876713340E+02  0.12500248252E+02  0.59301994583E+02  0.50000092201E+02 0.  0.
         12    1    1    2    0    0 -0.22452857915E+02 -0.18876713340E+02 -0.12500248252E+02  0.31886005417E+02  0.00000000000E+00 0. -1.
         11    1    3    3    0    0 -0.79165704498E+01  0.31537311204E+01 -0.47332443316E+01  0.97479079720E+01  0.51100000000E-03 0. -1.
        -11    1    3    3    0    0 -0.22331976505E+01  0.90215314910E+01  0.13030852867E+02  0.16005571808E+02  0.51100000000E-03 0.  1.
        -12    1    3    3    0    0  0.32602626015E+02  0.67014507291E+01  0.42026397159E+01  0.33548514803E+02  0.00000000000E+00 0.  1.
</event>
<event>
 7    1  0.3223600E-013  0.5930194E+02  0.7816164E-02  0.1266605E+00
        -11   -1    0    0    0    0  0.00000000000E+00  0.00000000000E+00  0.45593999997E+02  0.45594000000E+02  0.51100000000E-03 0.  1.
         11   -1    0    0    0    0 -0.00000000000E+00 -0.00000000000E+00 -0.45593999997E+02  0.45594000000E+02  0.51100000000E-03 0. -1.
    9900012    2    1    2    0    0 -0.26313408576E+02  0.12760900834E+02  0.12707655120E+02  0.59301944120E+02  0.50000000167E+02 0.  0.
         12    1    1    2    0    0  0.26313408576E+02 -0.12760900834E+02 -0.12707655120E+02  0.31886055880E+02  0.00000000000E+00 0. -1.
         11    1    3    3    0    0 -0.19495466258E+02  0.27541388918E+01 -0.17771015661E+01  0.19769081311E+02  0.51100000000E-03 0. -1.
        -11    1    3    3    0    0 -0.27702151588E+01  0.14490699852E+02 -0.76289888790E+01  0.16608911638E+02  0.51100000000E-03 0.  1.
         12    1    3    3    0    0 -0.40477271585E+01 -0.44839379096E+01  0.22113745565E+02  0.22923951170E+02  0.00000000000E+00 0. -1.
</event>
<event>
 7    1  0.3223600E-013  0.5930195E+02  0.7816164E-02  0.1266605E+00
        -11   -1    0    0    0    0  0.00000000000E+00  0.00000000000E+00  0.45593999997E+02  0.45594000000E+02  0.51100000000E-03 0.  1.
         11   -1    0    0    0    0 -0.00000000000E+00 -0.00000000000E+00 -0.45593999997E+02  0.45594000000E+02  0.51100000000E-03 0. -1.
    9900012    2    1    2    0    0 -0.17473749984E+02  0.73709202586E+01  0.25633135927E+02  0.59301951932E+02  0.50000014415E+02 0.  0.
         12    1    1    2    0    0  0.17473749984E+02 -0.73709202586E+01 -0.25633135927E+02  0.31886048068E+02  0.00000000000E+00 0. -1.
         11    1    3    3    0    0 -0.39395626692E+01  0.24326646317E+02  0.44493263142E+01  0.25042012298E+02  0.51100000000E-03 0. -1.
        -11    1    3    3    0    0 -0.10622192905E+02 -0.30424773803E+01  0.15306876431E+02  0.18878244543E+02  0.51100000000E-03 0.  1.
        -12    1    3    3    0    0 -0.29119944102E+01 -0.13913248678E+02  0.58769331821E+01  0.15381695090E+02  0.00000000000E+00 0.  1.
</event>
<event>
 7    1  0.3223600E-013  0.5930195E+02  0.7816164E-02  0.1266605E+00
        -11   -1    0    0    0    0  0.00000000000E+00  0.00000000000E+00  0.45593999997E+02  0.45594000000E+02  0.51100000000E-03 0. -1.
         11   -1    0    0    0    0 -0.00000000000E+00 -0.00000000000E+00 -0.45593999997E+02  0.45594000000E+02  0.51100000000E-03 0.  1.
    9900012    2    1    2    0    0 -0.15603069815E+02  0.17647953304E+02 -0.21489857988E+02  0.59301952270E+02  0.50000015033E+02 0.  0.
         12    1    1    2    0    0  0.15603069815E+02 -0.17647953304E+02  0.21489857988E+02  0.31886047730E+02  0.00000000000E+00 0. -1.
         11    1    3    3    0    0 -0.37346886098E+01 -0.14980889755E+02  0.11803789580E+01  0.15484451932E+02  0.51100000000E-03 0. -1.
        -11    1    3    3    0    0  0.11553719014E+01  0.93325558353E+01 -0.10355911119E+01  0.94606517673E+01  0.51100000000E-03 0.  1.
        -12    1    3    3    0    0 -0.13023753106E+02  0.23296287224E+02 -0.21634645834E+02  0.34356848572E+02  0.00000000000E+00 0.  1.
</event>
<event>
 7    1  0.3223600E-013  0.5930194E+02  0.7816164E-02  0.1266605E+00
        -11   -1    0    0    0    0  0.00000000000E+00  0.00000000000E+00  0.45593999997E+02  0.45594000000E+02  0.51100000000E-03 0.  1.
         11   -1    0    0    0    0 -0.00000000000E+00 -0.00000000000E+00 -0.45593999997E+02  0.45594000000E+02  0.51100000000E-03 0. -1.
    9900012    2    1    2    0    0  0.28005332990E+01 -0.31634834384E+02 -0.28486764305E+01  0.59301942065E+02  0.49999996420E+02 0.  0.
         12    1    1    2    0    0 -0.28005332990E+01  0.31634834384E+02  0.28486764305E+01  0.31886057935E+02  0.00000000000E+00 0. -1.
         11    1    3    3    0    0  0.65055891008E+01 -0.89843432838E+01 -0.86571020707E+01  0.14070768647E+02  0.51100000000E-03 0. -1.
        -11    1    3    3    0    0  0.12481406630E+01 -0.25928720231E+02 -0.10403138831E+02  0.27965723408E+02  0.51100000000E-03 0.  1.
         12    1    3    3    0    0 -0.49531964647E+01  0.32782291312E+01  0.16211564471E+02  0.17265450010E+02  0.00000000000E+00 0. -1.
</event>
<event>
 7    1  0.3223600E-013  0.5930195E+02  0.7816164E-02  0.1266605E+00
        -11   -1    0    0    0    0  0.00000000000E+00  0.00000000000E+00  0.45593999997E+02  0.45594000000E+02  0.51100000000E-03 0. -1.
         11   -1    0    0    0    0 -0.00000000000E+00 -0.00000000000E+00 -0.45593999997E+02  0.45594000000E+02  0.51100000000E-03 0.  1.
    9900012    2    1    2    0    0 -0.27097135891E+02  0.15476117429E+02  0.65540395593E+01  0.59301946329E+02  0.50000004197E+02 0.  0.
         12    1    1    2    0    0  0.27097135891E+02 -0.15476117429E+02 -0.65540395593E+01  0.31886053671E+02  0.00000000000E+00 0. -1.
         11    1    3    3    0    0 -0.18748500179E+01  0.10637367035E+02  0.12184771755E+02  0.16283037278E+02  0.51100000000E-03 0. -1.
        -11    1    3    3    0    0  0.25048742989E+01 -0.86440401104E+01  0.51353713181E+01  0.10361750022E+02  0.51100000000E-03 0.  1.
        -12    1    3    3    0    0 -0.27727160172E+02  0.13482790504E+02 -0.10766103514E+02  0.32657159029E+02  0.00000000000E+00 0.  1.
</event>
<event>
 7    1  0.3223600E-013  0.5930176E+02  0.7816164E-02  0.1266605E+00
        -11   -1    0    0    0    0  0.00000000000E+00  0.00000000000E+00  0.45593999997E+02  0.45594000000E+02  0.51100000000E-03 0. -1.
         11   -1    0    0    0    0 -0.00000000000E+00 -0.00000000000E+00 -0.45593999997E+02  0.45594000000E+02  0.51100000000E-03 0.  1.
    9900012    2    1    2    0    0 -0.28995810924E+02 -0.13244068419E+02  0.75490564543E+00  0.59301760304E+02  0.49999664930E+02 0.  0.
         12    1    1    2    0    0  0.28995810924E+02  0.13244068419E+02 -0.75490564543E+00  0.31886239696E+02  0.00000000000E+00 0. -1.
         11    1    3    3    0    0 -0.73174063180E+01 -0.14959038261E+02  0.13400126920E+02  0.21374766961E+02  0.51100000000E-03 0. -1.
        -11    1    3    3    0    0 -0.31180332909E+01 -0.11526652147E+02 -0.18019727847E+00  0.11942290929E+02  0.51100000000E-03 0.  1.
         12    1    3    3    0    0 -0.18560371315E+02  0.13241621989E+02 -0.12465023997E+02  0.25984702413E+02  0.00000000000E+00 0. -1.
</event>
<event>
 7    1  0.3223600E-013  0.5930190E+02  0.7816164E-02  0.1266605E+00
        -11   -1    0    0    0    0  0.00000000000E+00  0.00000000000E+00  0.45593999997E+02  0.45594000000E+02  0.51100000000E-03 0.  1.
         11   -1    0    0    0    0 -0.00000000000E+00 -0.00000000000E+00 -0.45593999997E+02  0.45594000000E+02  0.51100000000E-03 0. -1.
    9900012    2    1    2    0    0 -0.17154608120E+02  0.22507765875E+02  0.14691611820E+02  0.59301897035E+02  0.49999914297E+02 0.  0.
         12    1    1    2    0    0  0.17154608120E+02 -0.22507765875E+02 -0.14691611820E+02  0.31886102965E+02  0.00000000000E+00 0. -1.
         11    1    3    3    0    0 -0.12005118401E+02  0.14636912572E+02  0.71412375630E+01  0.20232630863E+02  0.51100000000E-03 0. -1.
        -11    1    3    3    0    0 -0.16837107687E+02  0.33218747189E+01  0.16385707357E+02  0.23727925589E+02  0.51100000000E-03 0.  1.
         12    1    3    3    0    0  0.11687617967E+02  0.45489785838E+01 -0.88353330996E+01  0.15341340583E+02  0.00000000000E+00 0. -1.
</event>
<event>
 7    1  0.3223600E-013  0.5930193E+02  0.7816164E-02  0.1266605E+00
        -11   -1    0    0    0    0  0.00000000000E+00  0.00000000000E+00  0.45593999997E+02  0.45594000000E+02  0.51100000000E-03 0.  1.
         11   -1    0    0    0    0 -0.00000000000E+00 -0.00000000000E+00 -0.45593999997E+02  0.45594000000E+02  0.51100000000E-03 0. -1.
    9900012    2    1    2    0    0 -0.10062890324E+02 -0.82696197258E+01  0.29104514732E+02  0.59301934864E+02  0.49999983288E+02 0.  0.
         12    1    1    2    0    0  0.10062890324E+02  0.82696197258E+01 -0.29104514732E+02  0.31886065136E+02  0.00000000000E+00 0. -1.
         11    1    3    3    0    0 -0.85711805522E+00  0.48867522348E+01 -0.35014970783E+01  0.60725184903E+01  0.51100000000E-03 0. -1.
        -11    1    3    3    0    0  0.11938456664E+02 -0.19410383522E+01  0.25563149501E+02  0.28280187235E+02  0.51100000000E-03 0.  1.
        -12    1    3    3    0    0 -0.21144228933E+02 -0.11215333608E+02  0.70428623092E+01  0.24949229139E+02  0.00000000000E+00 0.  1.
</event>
<event>
 7    1  0.3223600E-013  0.5930196E+02  0.7816164E-02  0.1266605E+00
        -11   -1    0    0    0    0  0.00000000000E+00  0.00000000000E+00  0.45593999997E+02  0.45594000000E+02  0.51100000000E-03 0.  1.
         11   -1    0    0    0    0 -0.00000000000E+00 -0.00000000000E+00 -0.45593999997E+02  0.45594000000E+02  0.51100000000E-03 0. -1.
    9900012    2    1    2    0    0 -0.19165737244E+02  0.68917761018E+01  0.24533596896E+02  0.59301961698E+02  0.50000032226E+02 0.  0.
         12    1    1    2    0    0  0.19165737244E+02 -0.68917761018E+01 -0.24533596896E+02  0.31886038302E+02  0.00000000000E+00 0. -1.
         11    1    3    3    0    0 -0.14152179916E+02  0.57294335793E+01  0.64043589614E+01  0.16556763557E+02  0.51100000000E-03 0. -1.
        -11    1    3    3    0    0 -0.18537195253E+02 -0.47320455769E+01  0.20230318891E+02  0.27843952052E+02  0.51100000000E-03 0.  1.
         12    1    3    3    0    0  0.13523637925E+02  0.58943880995E+01 -0.21010809557E+01  0.14901246088E+02  0.00000000000E+00 0. -1.
</event>
<event>
 7    1  0.3223600E-013  0.5930158E+02  0.7816164E-02  0.1266606E+00
        -11   -1    0    0    0    0  0.00000000000E+00  0.00000000000E+00  0.45593999997E+02  0.45594000000E+02  0.51100000000E-03 0.  1.
         11   -1    0    0    0    0 -0.00000000000E+00 -0.00000000000E+00 -0.45593999997E+02  0.45594000000E+02  0.51100000000E-03 0. -1.
    9900012    2    1    2    0    0  0.14801888025E+02  0.25717941771E+02  0.11671986740E+02  0.59301581379E+02  0.49999338611E+02 0.  0.
         12    1    1    2    0    0 -0.14801888025E+02 -0.25717941771E+02 -0.11671986740E+02  0.31886418621E+02  0.00000000000E+00 0. -1.
         11    1    3    3    0    0  0.13239770608E+02  0.25727014971E+02  0.13324384762E+02  0.31854513882E+02  0.51100000000E-03 0. -1.
        -11    1    3    3    0    0 -0.75154041498E+01  0.97294637522E+01  0.40783472137E+01  0.12952863803E+02  0.51100000000E-03 0.  1.
         12    1    3    3    0    0  0.90775215664E+01 -0.97385369526E+01 -0.57307452360E+01  0.14494203694E+02  0.00000000000E+00 0. -1.
</event>
<event>
 7    1  0.3223600E-013  0.5930194E+02  0.7816164E-02  0.1266605E+00
        -11   -1    0    0    0    0  0.00000000000E+00  0.00000000000E+00  0.45593999997E+02  0.45594000000E+02  0.51100000000E-03 0.  1.
         11   -1    0    0    0    0 -0.00000000000E+00 -0.00000000000E+00 -0.45593999997E+02  0.45594000000E+02  0.51100000000E-03 0. -1.
    9900012    2    1    2    0    0  0.26402587325E+02 -0.12991086139E+02  0.12282337812E+02  0.59301940998E+02  0.49999994475E+02 0.  0.
         12    1    1    2    0    0 -0.26402587325E+02  0.12991086139E+02 -0.12282337812E+02  0.31886059002E+02  0.00000000000E+00 0. -1.
         11    1    3    3    0    0  0.13368129100E+02  0.26631832787E+01 -0.22569187470E+01  0.13816407033E+02  0.51100000000E-03 0. -1.
        -11    1    3    3    0    0 -0.29702637521E+01  0.71260125876E+01  0.15833064283E+02  0.17615006302E+02  0.51100000000E-03 0.  1.
        -12    1    3    3    0    0  0.16004721977E+02 -0.22780282005E+02 -0.12938077241E+01  0.27870527663E+02  0.00000000000E+00 0.  1.
</event>
<event>
 7    1  0.3223600E-013  0.5930195E+02  0.7816164E-02  0.1266605E+00
        -11   -1    0    0    0    0  0.00000000000E+00  0.00000000000E+00  0.45593999997E+02  0.45594000000E+02  0.51100000000E-03 0. -1.
         11   -1    0    0    0    0 -0.00000000000E+00 -0.00000000000E+00 -0.45593999997E+02  0.45594000000E+02  0.51100000000E-03 0.  1.
    9900012    2    1    2    0    0  0.47920324119E+01 -0.30188952613E+02 -0.90765433031E+01  0.59301951753E+02  0.50000014088E+02 0.  0.
         12    1    1    2    0    0 -0.47920324119E+01  0.30188952613E+02  0.90765433031E+01  0.31886048247E+02  0.00000000000E+00 0. -1.
         11    1    3    3    0    0 -0.81727385247E+01 -0.17459818724E+02  0.43935206595E+01  0.19772251994E+02  0.51100000000E-03 0. -1.
        -11    1    3    3    0    0  0.41559865555E+01 -0.20114607331E+02  0.15704093101E+01  0.20599413535E+02  0.51100000000E-03 0.  1.
         12    1    3    3    0    0  0.88087843811E+01  0.73854734419E+01 -0.15040473273E+02  0.18930286223E+02  0.00000000000E+00 0. -1.
</event>
<event>
 7    1  0.3223600E-013  0.5930194E+02  0.7816164E-02  0.1266605E+00
        -11   -1    0    0    0    0  0.00000000000E+00  0.00000000000E+00  0.45593999997E+02  0.45594000000E+02  0.51100000000E-03 0.  1.
         11   -1    0    0    0    0 -0.00000000000E+00 -0.00000000000E+00 -0.45593999997E+02  0.45594000000E+02  0.51100000000E-03 0. -1.
    9900012    2    1    2    0    0 -0.96176358022E+01 -0.16632621600E+02  0.25447546515E+02  0.59301942806E+02  0.49999997772E+02 0.  0.
         12    1    1    2    0    0  0.96176358022E+01  0.16632621600E+02 -0.25447546515E+02  0.31886057194E+02  0.00000000000E+00 0. -1.
         11    1    3    3    0    0 -0.28602150248E+01 -0.35443259474E+01 -0.11498018191E+02  0.12367194467E+02  0.51100000000E-03 0. -1.
        -11    1    3    3    0    0  0.25218286186E+01 -0.10579600041E+02  0.24817993709E+01  0.11155576408E+02  0.51100000000E-03 0.  1.
        -12    1    3    3    0    0 -0.92792493961E+01 -0.25086956120E+01  0.34463765335E+02  0.35779171931E+02  0.00000000000E+00 0.  1.
</event>
<event>
 7    1  0.3223600E-013  0.5930195E+02  0.7816164E-02  0.1266605E+00
        -11   -1    0    0    0    0  0.00000000000E+00  0.00000000000E+00  0.45593999997E+02  0.45594000000E+02  0.51100000000E-03 0.  1.
         11   -1    0    0    0    0 -0.00000000000E+00 -0.00000000000E+00 -0.45593999997E+02  0.45594000000E+02  0.51100000000E-03 0. -1.
    9900012    2    1    2    0    0 -0.22531395774E+02 -0.83334032268E+01  0.20966903068E+02  0.59301946166E+02  0.50000003899E+02 0.  0.
         12    1    1    2    0    0  0.22531395774E+02  0.83334032268E+01 -0.20966903068E+02  0.31886053834E+02  0.00000000000E+00 0. -1.
         11    1    3    3    0    0 -0.21228533514E+02  0.15464107908E+02  0.60893797923E+01  0.26960523271E+02  0.51100000000E-03 0.  1.
        -11    1    3    3    0    0 -0.49469703408E+01 -0.61426948637E+01 -0.14502412928E+01  0.80192528211E+01  0.51100000000E-03 0. -1.
        -12    1    3    3    0    0  0.36441080809E+01 -0.17654816271E+02  0.16327764568E+02  0.24322170073E+02  0.00000000000E+00 0.  1.
</event>
<event>
 7    1  0.3223600E-013  0.5930192E+02  0.7816164E-02  0.1266605E+00
        -11   -1    0    0    0    0  0.00000000000E+00  0.00000000000E+00  0.45593999997E+02  0.45594000000E+02  0.51100000000E-03 0.  1.
         11   -1    0    0    0    0 -0.00000000000E+00 -0.00000000000E+00 -0.45593999997E+02  0.45594000000E+02  0.51100000000E-03 0. -1.
    9900012    2    1    2    0    0 -0.70538567114E+01  0.48359170195E+01  0.30717730938E+02  0.59301921817E+02  0.49999959492E+02 0.  0.
         12    1    1    2    0    0  0.70538567114E+01 -0.48359170195E+01 -0.30717730938E+02  0.31886078183E+02  0.00000000000E+00 0. -1.
         11    1    3    3    0    0 -0.34122473350E+01  0.11115918691E+02  0.37594790198E+00  0.11633933870E+02  0.51100000000E-03 0. -1.
        -11    1    3    3    0    0 -0.86102452842E+01  0.31824093299E+00 -0.59352317224E+01  0.10462532055E+02  0.51100000000E-03 0.  1.
        -12    1    3    3    0    0  0.49686359078E+01 -0.65982426043E+01  0.36277014759E+02  0.37205455891E+02  0.00000000000E+00 0.  1.
</event>
<event>
 7    1  0.3223600E-013  0.5930195E+02  0.7816164E-02  0.1266605E+00
        -11   -1    0    0    0    0  0.00000000000E+00  0.00000000000E+00  0.45593999997E+02  0.45594000000E+02  0.51100000000E-03 0.  1.
         11   -1    0    0    0    0 -0.00000000000E+00 -0.00000000000E+00 -0.45593999997E+02  0.45594000000E+02  0.51100000000E-03 0. -1.
    9900012    2    1    2    0    0 -0.74009270930E+01 -0.24461273170E+02  0.19068097563E+02  0.59301953653E+02  0.50000017555E+02 0.  0.
         12    1    1    2    0    0  0.74009270930E+01  0.24461273170E+02 -0.19068097563E+02  0.31886046347E+02  0.00000000000E+00 0. -1.
         11    1    3    3    0    0  0.38866940765E+01 -0.48902689418E+01 -0.75977443085E+01  0.98359971537E+01  0.51100000000E-03 0. -1.
        -11    1    3    3    0    0 -0.19224404531E+02 -0.15740435880E+02  0.40247442044E+01  0.25170173171E+02  0.51100000000E-03 0.  1.
        -12    1    3    3    0    0  0.79367833617E+01 -0.38305683489E+01  0.22641097667E+02  0.24295783329E+02  0.00000000000E+00 0.  1.
</event>
<event>
 7    1  0.3223600E-013  0.5930198E+02  0.7816164E-02  0.1266605E+00
        -11   -1    0    0    0    0  0.00000000000E+00  0.00000000000E+00  0.45593999997E+02  0.45594000000E+02  0.51100000000E-03 0.  1.
         11   -1    0    0    0    0 -0.00000000000E+00 -0.00000000000E+00 -0.45593999997E+02  0.45594000000E+02  0.51100000000E-03 0. -1.
    9900012    2    1    2    0    0  0.48368856154E+01  0.30873741473E+02 -0.63352124142E+01  0.59301979689E+02  0.50000065037E+02 0.  0.
         12    1    1    2    0    0 -0.48368856154E+01 -0.30873741473E+02  0.63352124142E+01  0.31886020311E+02  0.00000000000E+00 0. -1.
         11    1    3    3    0    0  0.16970502743E+02  0.47806883609E+01  0.94679989609E+01  0.20012394888E+02  0.51100000000E-03 0. -1.
        -11    1    3    3    0    0  0.39313861028E+01 -0.63511668355E+00  0.64308369144E+00  0.40339468001E+01  0.51100000000E-03 0.  1.
        -12    1    3    3    0    0 -0.16065003231E+02  0.26728169795E+02 -0.16446295067E+02  0.35255638000E+02  0.00000000000E+00 0.  1.
</event>
<event>
 7    1  0.3223600E-013  0.5930194E+02  0.7816164E-02  0.1266605E+00
        -11   -1    0    0    0    0  0.00000000000E+00  0.00000000000E+00  0.45593999997E+02  0.45594000000E+02  0.51100000000E-03 0. -1.
         11   -1    0    0    0    0 -0.00000000000E+00 -0.00000000000E+00 -0.45593999997E+02  0.45594000000E+02  0.51100000000E-03 0.  1.
    9900012    2    1    2    0    0 -0.31095341851E+02  0.54516247578E+01 -0.44811102320E+01  0.59301939625E+02  0.49999991970E+02 0.  0.
         12    1    1    2    0    0  0.31095341851E+02 -0.54516247578E+01  0.44811102320E+01  0.31886060375E+02  0.00000000000E+00 0. -1.
         11    1    3    3    0    0 -0.13137692068E+01  0.81992071126E+01 -0.52605435631E+01  0.98298680380E+01  0.51100000000E-03 0. -1.
        -11    1    3    3    0    0 -0.22122770730E+02  0.11824485543E+02  0.13666293797E+02  0.28565766742E+02  0.51100000000E-03 0.  1.
         12    1    3    3    0    0 -0.76588019139E+01 -0.14572067898E+02 -0.12886860466E+02  0.20906304845E+02  0.00000000000E+00 0. -1.
</event>
<event>
 7    1  0.3223600E-013  0.5930193E+02  0.7816164E-02  0.1266605E+00
        -11   -1    0    0    0    0  0.00000000000E+00  0.00000000000E+00  0.45593999997E+02  0.45594000000E+02  0.51100000000E-03 0. -1.
         11   -1    0    0    0    0 -0.00000000000E+00 -0.00000000000E+00 -0.45593999997E+02  0.45594000000E+02  0.51100000000E-03 0.  1.
    9900012    2    1    2    0    0  0.30726745824E+02  0.65584939256E+01 -0.54382568651E+01  0.59301931110E+02  0.49999976442E+02 0.  0.
         12    1    1    2    0    0 -0.30726745824E+02 -0.65584939256E+01  0.54382568651E+01  0.31886068890E+02  0.00000000000E+00 0. -1.
         11    1    3    3    0    0 -0.98673498904E+01 -0.37839250391E+01 -0.14678433511E+01  0.10669453919E+02  0.51100000000E-03 0. -1.
        -11    1    3    3    0    0  0.12122775413E+02 -0.28445616563E+01 -0.10843418612E+02  0.16511600231E+02  0.51100000000E-03 0.  1.
         12    1    3    3    0    0  0.28471320302E+02  0.13186980621E+02  0.68730050984E+01  0.32120876960E+02  0.00000000000E+00 0. -1.
</event>
<event>
 7    1  0.3223600E-013  0.5930195E+02  0.7816164E-02  0.1266605E+00
        -11   -1    0    0    0    0  0.00000000000E+00  0.00000000000E+00  0.45593999997E+02  0.45594000000E+02  0.51100000000E-03 0. -1.
         11   -1    0    0    0    0 -0.00000000000E+00 -0.00000000000E+00 -0.45593999997E+02  0.45594000000E+02  0.51100000000E-03 0.  1.
    9900012    2    1    2    0    0 -0.98507306544E+01 -0.29441066670E+02 -0.72737239085E+01  0.59301947240E+02  0.50000005859E+02 0.  0.
         12    1    1    2    0    0  0.98507306544E+01  0.29441066670E+02  0.72737239085E+01  0.31886052760E+02  0.00000000000E+00 0. -1.
         11    1    3    3    0    0  0.38594359495E+01  0.62573980703E+01  0.45561495156E+01  0.86492066184E+01  0.51100000000E-03 0.  1.
        -11    1    3    3    0    0 -0.12378033617E+02 -0.79423209542E+01  0.77838599598E+01  0.16639851397E+02  0.51100000000E-03 0. -1.
         12    1    3    3    0    0 -0.13321329869E+01 -0.27756143786E+02 -0.19613733384E+02  0.34012889225E+02  0.00000000000E+00 0. -1.
</event>
<event>
 7    1  0.3223600E-013  0.5930196E+02  0.7816164E-02  0.1266605E+00
        -11   -1    0    0    0    0  0.00000000000E+00  0.00000000000E+00  0.45593999997E+02  0.45594000000E+02  0.51100000000E-03 0.  1.
         11   -1    0    0    0    0 -0.00000000000E+00 -0.00000000000E+00 -0.45593999997E+02  0.45594000000E+02  0.51100000000E-03 0. -1.
    9900012    2    1    2    0    0  0.11441311245E+02 -0.10222160884E+02  0.27952161078E+02  0.59301960969E+02  0.50000030897E+02 0.  0.
         12    1    1    2    0    0 -0.11441311245E+02  0.10222160884E+02 -0.27952161078E+02  0.31886039031E+02  0.00000000000E+00 0. -1.
         11    1    3    3    0    0 -0.15350693381E+01  0.82071314286E+01 -0.71062221602E+01  0.10964115916E+02  0.51100000000E-03 0. -1.
        -11    1    3    3    0    0  0.98246385917E+01  0.30962975542E+01  0.56236587875E+01  0.11736103290E+02  0.51100000000E-03 0.  1.
        -12    1    3    3    0    0  0.31517419916E+01 -0.21525589866E+02  0.29434724451E+02  0.36601741764E+02  0.00000000000E+00 0.  1.
</event>
<event>
 7    1  0.3223600E-013  0.5930197E+02  0.7816164E-02  0.1266605E+00
        -11   -1    0    0    0    0  0.00000000000E+00  0.00000000000E+00  0.45593999997E+02  0.45594000000E+02  0.51100000000E-03 0.  1.
         11   -1    0    0    0    0 -0.00000000000E+00 -0.00000000000E+00 -0.45593999997E+02  0.45594000000E+02  0.51100000000E-03 0. -1.
    9900012    2    1    2    0    0 -0.16022426827E+02  0.13738019826E+02  0.23901203862E+02  0.59301970203E+02  0.50000047737E+02 0.  0.
         12    1    1    2    0    0  0.16022426827E+02 -0.13738019826E+02 -0.23901203862E+02  0.31886029797E+02  0.00000000000E+00 0. -1.
         11    1    3    3    0    0  0.39010387636E+01 -0.21468435072E+01 -0.23253395104E+01  0.50233698430E+01  0.51100000000E-03 0. -1.
        -11    1    3    3    0    0  0.57189248701E+00  0.14234873505E+02 -0.64759235222E+01  0.15649161972E+02  0.51100000000E-03 0.  1.
        -12    1    3    3    0    0 -0.20495358078E+02  0.16499898288E+01  0.32702466894E+02  0.38629438388E+02  0.00000000000E+00 0.  1.
</event>
<event>
 7    1  0.3223600E-013  0.5930194E+02  0.7816164E-02  0.1266605E+00
        -11   -1    0    0    0    0  0.00000000000E+00  0.00000000000E+00  0.45593999997E+02  0.45594000000E+02  0.51100000000E-03 0. -1.
         11   -1    0    0    0    0 -0.00000000000E+00 -0.00000000000E+00 -0.45593999997E+02  0.45594000000E+02  0.51100000000E-03 0.  1.
    9900012    2    1    2    0    0 -0.14027365436E+02 -0.18088252204E+02 -0.22198394104E+02  0.59301944275E+02  0.50000000451E+02 0.  0.
         12    1    1    2    0    0  0.14027365436E+02  0.18088252204E+02  0.22198394104E+02  0.31886055725E+02  0.00000000000E+00 0. -1.
         11    1    3    3    0    0 -0.29532745339E+01 -0.78588364094E+01  0.12740808033E+02  0.15258156172E+02  0.51100000000E-03 0. -1.
        -11    1    3    3    0    0 -0.17230681341E+02 -0.68954453530E+01 -0.18637046321E+02  0.26301768798E+02  0.51100000000E-03 0.  1.
        -12    1    3    3    0    0  0.61565904387E+01 -0.33339704419E+01 -0.16302155816E+02  0.17742019304E+02  0.00000000000E+00 0.  1.
</event>
<event>
 7    1  0.3223600E-013  0.5930194E+02  0.7816164E-02  0.1266605E+00
        -11   -1    0    0    0    0  0.00000000000E+00  0.00000000000E+00  0.45593999997E+02  0.45594000000E+02  0.51100000000E-03 0.  1.
         11   -1    0    0    0    0 -0.00000000000E+00 -0.00000000000E+00 -0.45593999997E+02  0.45594000000E+02  0.51100000000E-03 0. -1.
    9900012    2    1    2    0    0  0.96224150149E+01 -0.17842235588E+02  0.24612688255E+02  0.59301942473E+02  0.49999997165E+02 0.  0.
         12    1    1    2    0    0 -0.96224150149E+01  0.17842235588E+02 -0.24612688255E+02  0.31886057527E+02  0.00000000000E+00 0. -1.
         11    1    3    3    0    0 -0.56258261984E+01 -0.42949926107E+01 -0.39461305366E+01  0.81036305699E+01  0.51100000000E-03 0. -1.
        -11    1    3    3    0    0  0.25901584433E+01 -0.15646544300E+02 -0.38687359774E+01  0.16324533305E+02  0.51100000000E-03 0.  1.
         12    1    3    3    0    0  0.12658082770E+02  0.20993013228E+01  0.32427554769E+02  0.34873778598E+02  0.00000000000E+00 0. -1.
</event>
<event>
 7    1  0.3223600E-013  0.5930194E+02  0.7816164E-02  0.1266605E+00
        -11   -1    0    0    0    0  0.00000000000E+00  0.00000000000E+00  0.45593999997E+02  0.45594000000E+02  0.51100000000E-03 0.  1.
         11   -1    0    0    0    0 -0.00000000000E+00 -0.00000000000E+00 -0.45593999997E+02  0.45594000000E+02  0.51100000000E-03 0. -1.
    9900012    2    1    2    0    0 -0.12436764991E+02 -0.24157768212E+02  0.16686813307E+02  0.59301943066E+02  0.49999998247E+02 0.  0.
         12    1    1    2    0    0  0.12436764991E+02  0.24157768212E+02 -0.16686813307E+02  0.31886056934E+02  0.00000000000E+00 0. -1.
         11    1    3    3    0    0  0.41898231605E+01  0.95799840367E+00 -0.74805212859E+01  0.86273158066E+01  0.51100000000E-03 0. -1.
        -11    1    3    3    0    0 -0.27583279194E+01 -0.14979462262E+01  0.23050642464E+02  0.23263368932E+02  0.51100000000E-03 0.  1.
         12    1    3    3    0    0 -0.13868260232E+02 -0.23617820389E+02  0.11166921294E+01  0.27411258328E+02  0.00000000000E+00 0. -1.
</event>
<event>
 7    1  0.3223600E-013  0.5930196E+02  0.7816164E-02  0.1266605E+00
        -11   -1    0    0    0    0  0.00000000000E+00  0.00000000000E+00  0.45593999997E+02  0.45594000000E+02  0.51100000000E-03 0. -1.
         11   -1    0    0    0    0 -0.00000000000E+00 -0.00000000000E+00 -0.45593999997E+02  0.45594000000E+02  0.51100000000E-03 0.  1.
    9900012    2    1    2    0    0  0.13258589166E+02  0.12981818832E+02 -0.25930707015E+02  0.59301962724E+02  0.50000034097E+02 0.  0.
         12    1    1    2    0    0 -0.13258589166E+02 -0.12981818832E+02  0.25930707015E+02  0.31886037276E+02  0.00000000000E+00 0. -1.
         11    1    3    3    0    0 -0.50427152358E+01  0.11471903220E+02 -0.10036556660E+02  0.16055092970E+02  0.51100000000E-03 0.  1.
        -11    1    3    3    0    0 -0.91663701075E+01 -0.17680063298E+00  0.32460378350E+01  0.97257576208E+01  0.51100000000E-03 0. -1.
        -12    1    3    3    0    0  0.27467674510E+02  0.16867162455E+01 -0.19140188190E+02  0.33521112133E+02  0.00000000000E+00 0.  1.
</event>
<event>
 7    1  0.3223600E-013  0.5930194E+02  0.7816164E-02  0.1266605E+00
        -11   -1    0    0    0    0  0.00000000000E+00  0.00000000000E+00  0.45593999997E+02  0.45594000000E+02  0.51100000000E-03 0. -1.
         11   -1    0    0    0    0 -0.00000000000E+00 -0.00000000000E+00 -0.45593999997E+02  0.45594000000E+02  0.51100000000E-03 0.  1.
    9900012    2    1    2    0    0  0.29788663030E+02  0.59981697579E+01 -0.96632505734E+01  0.59301938826E+02  0.49999990514E+02 0.  0.
         12    1    1    2    0    0 -0.29788663030E+02 -0.59981697579E+01  0.96632505734E+01  0.31886061174E+02  0.00000000000E+00 0. -1.
         11    1    3    3    0    0  0.56263345030E+01  0.13342826978E+02  0.97533694982E+01  0.17458948666E+02  0.51100000000E-03 0. -1.
        -11    1    3    3    0    0  0.10864825290E+02  0.10046380131E+02 -0.49546102214E+01  0.15605202499E+02  0.51100000000E-03 0.  1.
        -12    1    3    3    0    0  0.13297503236E+02 -0.17391037351E+02 -0.14462009850E+02  0.26237787661E+02  0.00000000000E+00 0.  1.
</event>
<event>
 7    1  0.3223600E-013  0.5930193E+02  0.7816164E-02  0.1266605E+00
        -11   -1    0    0    0    0  0.00000000000E+00  0.00000000000E+00  0.45593999997E+02  0.45594000000E+02  0.51100000000E-03 0.  1.
         11   -1    0    0    0    0 -0.00000000000E+00 -0.00000000000E+00 -0.45593999997E+02  0.45594000000E+02  0.51100000000E-03 0. -1.
    9900012    2    1    2    0    0  0.15498335878E+02 -0.67242653264E+00  0.27858044794E+02  0.59301933573E+02  0.49999980933E+02 0.  0.
         12    1    1    2    0    0 -0.15498335878E+02  0.67242653264E+00 -0.27858044794E+02  0.31886066427E+02  0.00000000000E+00 0. -1.
         11    1    3    3    0    0 -0.10291308867E+02 -0.38428849376E+01  0.40912338214E+00  0.10993006187E+02  0.51100000000E-03 0. -1.
        -11    1    3    3    0    0  0.34450125211E+01 -0.74846841133E+01 -0.32632216136E+01  0.88621229458E+01  0.51100000000E-03 0.  1.
        -12    1    3    3    0    0  0.22344632224E+02  0.10655142518E+02  0.30712143025E+02  0.39446804440E+02  0.00000000000E+00 0.  1.
</event>
<event>
 7    1  0.3223600E-013  0.5930195E+02  0.7816164E-02  0.1266605E+00
        -11   -1    0    0    0    0  0.00000000000E+00  0.00000000000E+00  0.45593999997E+02  0.45594000000E+02  0.51100000000E-03 0.  1.
         11   -1    0    0    0    0 -0.00000000000E+00 -0.00000000000E+00 -0.45593999997E+02  0.45594000000E+02  0.51100000000E-03 0. -1.
    9900012    2    1    2    0    0 -0.17728982054E+02  0.17298066338E+02  0.20079349812E+02  0.59301949874E+02  0.50000010663E+02 0.  0.
         12    1    1    2    0    0  0.17728982054E+02 -0.17298066338E+02 -0.20079349812E+02  0.31886050126E+02  0.00000000000E+00 0. -1.
         11    1    3    3    0    0  0.35564494120E+01 -0.23655817191E+01 -0.90390525913E+01  0.99974387370E+01  0.51100000000E-03 0. -1.
        -11    1    3    3    0    0 -0.25326944514E+01  0.20383189090E+02  0.19018682434E+02  0.27992842307E+02  0.51100000000E-03 0.  1.
         12    1    3    3    0    0 -0.18752737015E+02 -0.71954103202E+00  0.10099719970E+02  0.21311668830E+02  0.00000000000E+00 0. -1.
</event>
<event>
 7    1  0.3223600E-013  0.5930196E+02  0.7816164E-02  0.1266605E+00
        -11   -1    0    0    0    0  0.00000000000E+00  0.00000000000E+00  0.45593999997E+02  0.45594000000E+02  0.51100000000E-03 0.  1.
         11   -1    0    0    0    0 -0.00000000000E+00 -0.00000000000E+00 -0.45593999997E+02  0.45594000000E+02  0.51100000000E-03 0. -1.
    9900012    2    1    2    0    0 -0.11098327690E+02 -0.29710903835E+02 -0.32877176392E+01  0.59301956478E+02  0.50000022707E+02 0.  0.
         12    1    1    2    0    0  0.11098327690E+02  0.29710903835E+02  0.32877176392E+01  0.31886043522E+02  0.00000000000E+00 0. -1.
         11    1    3    3    0    0 -0.94510261081E+01 -0.13014222997E+01 -0.13796107140E+02  0.16773436350E+02  0.51100000000E-03 0. -1.
        -11    1    3    3    0    0 -0.15216394508E+02 -0.20406238936E+02  0.66618407502E+01  0.26312228560E+02  0.51100000000E-03 0.  1.
        -12    1    3    3    0    0  0.13569092927E+02 -0.80032425991E+01  0.38465487506E+01  0.16216291569E+02  0.00000000000E+00 0.  1.
</event>
<event>
 7    1  0.3223600E-013  0.5930191E+02  0.7816164E-02  0.1266605E+00
        -11   -1    0    0    0    0  0.00000000000E+00  0.00000000000E+00  0.45593999997E+02  0.45594000000E+02  0.51100000000E-03 0. -1.
         11   -1    0    0    0    0 -0.00000000000E+00 -0.00000000000E+00 -0.45593999997E+02  0.45594000000E+02  0.51100000000E-03 0.  1.
    9900012    2    1    2    0    0  0.27513248496E+02 -0.10356632186E+02 -0.12348453569E+02  0.59301906188E+02  0.49999930989E+02 0.  0.
         12    1    1    2    0    0 -0.27513248496E+02  0.10356632186E+02  0.12348453569E+02  0.31886093812E+02  0.00000000000E+00 0. -1.
         11    1    3    3    0    0  0.20033121601E+01  0.13601085629E+02 -0.45988346617E+01  0.14496622724E+02  0.51100000000E-03 0. -1.
        -11    1    3    3    0    0  0.25559019477E+02 -0.72497693970E+01 -0.44700852180E+00  0.26571082963E+02  0.51100000000E-03 0.  1.
         12    1    3    3    0    0 -0.49083141207E-01 -0.16707948418E+02 -0.73026103856E+01  0.18234200502E+02  0.00000000000E+00 0. -1.
</event>
<event>
 7    1  0.3223600E-013  0.5930194E+02  0.7816164E-02  0.1266605E+00
        -11   -1    0    0    0    0  0.00000000000E+00  0.00000000000E+00  0.45593999997E+02  0.45594000000E+02  0.51100000000E-03 0.  1.
         11   -1    0    0    0    0 -0.00000000000E+00 -0.00000000000E+00 -0.45593999997E+02  0.45594000000E+02  0.51100000000E-03 0. -1.
    9900012    2    1    2    0    0  0.17867586610E+01  0.25398236536E+02  0.19195250667E+02  0.59301943897E+02  0.49999999761E+02 0.  0.
         12    1    1    2    0    0 -0.17867586610E+01 -0.25398236536E+02 -0.19195250667E+02  0.31886056103E+02  0.00000000000E+00 0. -1.
         11    1    3    3    0    0 -0.34451123192E+00  0.16292185815E+02  0.26758200809E+01  0.16514055225E+02  0.51100000000E-03 0. -1.
        -11    1    3    3    0    0  0.96716229732E+01  0.13382890713E+02  0.25453013109E+02  0.30339708821E+02  0.51100000000E-03 0.  1.
        -12    1    3    3    0    0 -0.75403530803E+01 -0.42768399922E+01 -0.89335825229E+01  0.12448179850E+02  0.00000000000E+00 0.  1.
</event>
<event>
 7    1  0.3223600E-013  0.5930192E+02  0.7816164E-02  0.1266605E+00
        -11   -1    0    0    0    0  0.00000000000E+00  0.00000000000E+00  0.45593999997E+02  0.45594000000E+02  0.51100000000E-03 0.  1.
         11   -1    0    0    0    0 -0.00000000000E+00 -0.00000000000E+00 -0.45593999997E+02  0.45594000000E+02  0.51100000000E-03 0. -1.
    9900012    2    1    2    0    0  0.17059369697E+01 -0.10032590903E+02  0.30218524067E+02  0.59301916861E+02  0.49999950454E+02 0.  0.
         12    1    1    2    0    0 -0.17059369697E+01  0.10032590903E+02 -0.30218524067E+02  0.31886083139E+02  0.00000000000E+00 0. -1.
         11    1    3    3    0    0  0.69560047290E+01 -0.80020832020E+00  0.23420239435E+02  0.24444507575E+02  0.51100000000E-03 0. -1.
        -11    1    3    3    0    0  0.40336580972E+01  0.79965466804E+00  0.17197707474E+02  0.17682505135E+02  0.51100000000E-03 0.  1.
         12    1    3    3    0    0 -0.92837258564E+01 -0.10032037251E+02 -0.10399422841E+02  0.17174904151E+02  0.00000000000E+00 0. -1.
</event>
<event>
 7    1  0.3223600E-013  0.5930181E+02  0.7816164E-02  0.1266605E+00
        -11   -1    0    0    0    0  0.00000000000E+00  0.00000000000E+00  0.45593999997E+02  0.45594000000E+02  0.51100000000E-03 0.  1.
         11   -1    0    0    0    0 -0.00000000000E+00 -0.00000000000E+00 -0.45593999997E+02  0.45594000000E+02  0.51100000000E-03 0. -1.
    9900012    2    1    2    0    0  0.14109678133E+02 -0.28581447158E+02 -0.86429806599E+00  0.59301809419E+02  0.49999754505E+02 0.  0.
         12    1    1    2    0    0 -0.14109678133E+02  0.28581447158E+02  0.86429806599E+00  0.31886190581E+02  0.00000000000E+00 0. -1.
         11    1    3    3    0    0 -0.13595137566E+02 -0.16721686085E+02  0.11856985325E+01  0.21583522238E+02  0.51100000000E-03 0. -1.
        -11    1    3    3    0    0  0.32407118928E+01 -0.20889024519E+01  0.85058662771E+01  0.93389233004E+01  0.51100000000E-03 0.  1.
         12    1    3    3    0    0  0.24464103805E+02 -0.97708586209E+01 -0.10555862876E+02  0.28379363880E+02  0.00000000000E+00 0. -1.
</event>
<event>
 7    1  0.3223600E-013  0.5930197E+02  0.7816164E-02  0.1266605E+00
        -11   -1    0    0    0    0  0.00000000000E+00  0.00000000000E+00  0.45593999997E+02  0.45594000000E+02  0.51100000000E-03 0. -1.
         11   -1    0    0    0    0 -0.00000000000E+00 -0.00000000000E+00 -0.45593999997E+02  0.45594000000E+02  0.51100000000E-03 0.  1.
    9900012    2    1    2    0    0  0.28887639031E+02  0.76347737261E+01 -0.11132543466E+02  0.59301968847E+02  0.50000045264E+02 0.  0.
         12    1    1    2    0    0 -0.28887639031E+02 -0.76347737261E+01  0.11132543466E+02  0.31886031153E+02  0.00000000000E+00 0. -1.
         11    1    3    3    0    0  0.16208599526E+02 -0.17480474706E+01  0.31832828577E+01  0.16610468342E+02  0.51100000000E-03 0. -1.
        -11    1    3    3    0    0  0.18830091796E+02  0.19742311819E+02 -0.56781221287E+01  0.27867046923E+02  0.51100000000E-03 0.  1.
        -12    1    3    3    0    0 -0.61510522903E+01 -0.10359490623E+02 -0.86377041952E+01  0.14824453582E+02  0.00000000000E+00 0.  1.
</event>
<event>
 7    1  0.3223600E-013  0.5930188E+02  0.7816164E-02  0.1266605E+00
        -11   -1    0    0    0    0  0.00000000000E+00  0.00000000000E+00  0.45593999997E+02  0.45594000000E+02  0.51100000000E-03 0.  1.
         11   -1    0    0    0    0 -0.00000000000E+00 -0.00000000000E+00 -0.45593999997E+02  0.45594000000E+02  0.51100000000E-03 0. -1.
    9900012    2    1    2    0    0 -0.19365038556E+02 -0.68892948870E+01  0.24377400552E+02  0.59301878254E+02  0.49999880045E+02 0.  0.
         12    1    1    2    0    0  0.19365038556E+02  0.68892948870E+01 -0.24377400552E+02  0.31886121746E+02  0.00000000000E+00 0. -1.
         11    1    3    3    0    0 -0.22496063801E+02 -0.87901434261E+01  0.11808208082E+01  0.24181270562E+02  0.51100000000E-03 0. -1.
        -11    1    3    3    0    0 -0.11476248710E+02 -0.84211715462E+00  0.10040292190E+02  0.15271572063E+02  0.51100000000E-03 0.  1.
        -12    1    3    3    0    0  0.14607273955E+02  0.27429656937E+01  0.13156287554E+02  0.19849035629E+02  0.00000000000E+00 0.  1.
</event>
<event>
 7    1  0.3223600E-013  0.5930194E+02  0.7816164E-02  0.1266605E+00
        -11   -1    0    0    0    0  0.00000000000E+00  0.00000000000E+00  0.45593999997E+02  0.45594000000E+02  0.51100000000E-03 0. -1.
         11   -1    0    0    0    0 -0.00000000000E+00 -0.00000000000E+00 -0.45593999997E+02  0.45594000000E+02  0.51100000000E-03 0.  1.
    9900012    2    1    2    0    0 -0.12111108142E+02 -0.24879011659E+02 -0.15845398863E+02  0.59301939932E+02  0.49999992530E+02 0.  0.
         12    1    1    2    0    0  0.12111108142E+02  0.24879011659E+02  0.15845398863E+02  0.31886060068E+02  0.00000000000E+00 0. -1.
         11    1    3    3    0    0 -0.99588020582E+01  0.40597935334E+01 -0.92491988242E+00  0.10794217851E+02  0.51100000000E-03 0. -1.
        -11    1    3    3    0    0  0.12936358555E+02 -0.62677237921E+00 -0.92821842636E+01  0.15934276302E+02  0.51100000000E-03 0.  1.
         12    1    3    3    0    0 -0.15088664639E+02 -0.28312032813E+02 -0.56382947168E+01  0.32573445779E+02  0.00000000000E+00 0. -1.
</event>
<event>
 7    1  0.3223600E-013  0.5930199E+02  0.7816164E-02  0.1266605E+00
        -11   -1    0    0    0    0  0.00000000000E+00  0.00000000000E+00  0.45593999997E+02  0.45594000000E+02  0.51100000000E-03 0.  1.
         11   -1    0    0    0    0 -0.00000000000E+00 -0.00000000000E+00 -0.45593999997E+02  0.45594000000E+02  0.51100000000E-03 0. -1.
    9900012    2    1    2    0    0  0.17277754052E+02 -0.24253420000E+02  0.11400359943E+02  0.59301994079E+02  0.50000091281E+02 0.  0.
         12    1    1    2    0    0 -0.17277754052E+02  0.24253420000E+02 -0.11400359943E+02  0.31886005921E+02  0.00000000000E+00 0. -1.
         11    1    3    3    0    0  0.58946464856E+01 -0.17925434463E+02 -0.19106449813E+00  0.18870732995E+02  0.51100000000E-03 0. -1.
        -11    1    3    3    0    0  0.57779333290E+01 -0.89582905446E+01  0.24167249032E+02  0.26413848812E+02  0.51100000000E-03 0.  1.
         12    1    3    3    0    0  0.56051742375E+01  0.26303050075E+01 -0.12575824591E+02  0.14017412272E+02  0.00000000000E+00 0. -1.
</event>
<event>
 7    1  0.3223600E-013  0.5930193E+02  0.7816164E-02  0.1266605E+00
        -11   -1    0    0    0    0  0.00000000000E+00  0.00000000000E+00  0.45593999997E+02  0.45594000000E+02  0.51100000000E-03 0.  1.
         11   -1    0    0    0    0 -0.00000000000E+00 -0.00000000000E+00 -0.45593999997E+02  0.45594000000E+02  0.51100000000E-03 0. -1.
    9900012    2    1    2    0    0  0.39749109410E+01  0.30350156440E+01  0.31491427909E+02  0.59301933001E+02  0.49999979890E+02 0.  0.
         12    1    1    2    0    0 -0.39749109410E+01 -0.30350156440E+01 -0.31491427909E+02  0.31886066999E+02  0.00000000000E+00 0. -1.
         11    1    3    3    0    0  0.38335704205E+01 -0.82721480954E+01 -0.38324365642E+01  0.98900084207E+01  0.51100000000E-03 0. -1.
        -11    1    3    3    0    0 -0.35310857815E+01  0.19921562484E+01 -0.58056539450E+01  0.70811631321E+01  0.51100000000E-03 0.  1.
        -12    1    3    3    0    0  0.36724263020E+01  0.93150074911E+01  0.41129518418E+02  0.42330761448E+02  0.00000000000E+00 0.  1.
</event>
<event>
 7    1  0.3223600E-013  0.5930197E+02  0.7816164E-02  0.1266605E+00
        -11   -1    0    0    0    0  0.00000000000E+00  0.00000000000E+00  0.45593999997E+02  0.45594000000E+02  0.51100000000E-03 0.  1.
         11   -1    0    0    0    0 -0.00000000000E+00 -0.00000000000E+00 -0.45593999997E+02  0.45594000000E+02  0.51100000000E-03 0. -1.
    9900012    2    1    2    0    0  0.21153743387E+02 -0.11424677891E+02  0.20945513769E+02  0.59301973731E+02  0.50000054172E+02 0.  0.
         12    1    1    2    0    0 -0.21153743387E+02  0.11424677891E+02 -0.20945513769E+02  0.31886026269E+02  0.00000000000E+00 0. -1.
         11    1    3    3    0    0  0.26007236920E+01  0.50676399610E+01  0.27623309583E+02  0.28204467218E+02  0.51100000000E-03 0. -1.
        -11    1    3    3    0    0  0.17257658115E+02 -0.46338345343E+01 -0.10287936274E+01  0.17898536328E+02  0.51100000000E-03 0.  1.
        -12    1    3    3    0    0  0.12953615799E+01 -0.11858483317E+02 -0.56490021871E+01  0.13198970184E+02  0.00000000000E+00 0.  1.
</event>
<event>
 7    1  0.3223600E-013  0.5930198E+02  0.7816164E-02  0.1266605E+00
        -11   -1    0    0    0    0  0.00000000000E+00  0.00000000000E+00  0.45593999997E+02  0.45594000000E+02  0.51100000000E-03 0. -1.
         11   -1    0    0    0    0 -0.00000000000E+00 -0.00000000000E+00 -0.45593999997E+02  0.45594000000E+02  0.51100000000E-03 0.  1.
    9900012    2    1    2    0    0  0.22276463977E+01 -0.29137627272E+02 -0.12757538509E+02  0.59301976097E+02  0.50000058487E+02 0.  0.
         12    1    1    2    0    0 -0.22276463977E+01  0.29137627272E+02  0.12757538509E+02  0.31886023903E+02  0.00000000000E+00 0. -1.
         11    1    3    3    0    0  0.20402315938E+02 -0.86591867823E+01 -0.12439850350E+02  0.25416252445E+02  0.51100000000E-03 0. -1.
        -11    1    3    3    0    0 -0.22392843524E+01 -0.15895667119E+02 -0.47160074444E+01  0.16731029676E+02  0.51100000000E-03 0.  1.
         12    1    3    3    0    0 -0.15935385188E+02 -0.45827733707E+01  0.43983192853E+01  0.17154693976E+02  0.00000000000E+00 0. -1.
</event>
<event>
 7    1  0.3223600E-013  0.5930193E+02  0.7816164E-02  0.1266605E+00
        -11   -1    0    0    0    0  0.00000000000E+00  0.00000000000E+00  0.45593999997E+02  0.45594000000E+02  0.51100000000E-03 0.  1.
         11   -1    0    0    0    0 -0.00000000000E+00 -0.00000000000E+00 -0.45593999997E+02  0.45594000000E+02  0.51100000000E-03 0. -1.
    9900012    2    1    2    0    0 -0.10151401207E+02  0.25260078301E+01  0.30121253630E+02  0.59301928084E+02  0.49999970922E+02 0.  0.
         12    1    1    2    0    0  0.10151401207E+02 -0.25260078301E+01 -0.30121253630E+02  0.31886071916E+02  0.00000000000E+00 0. -1.
         11    1    3    3    0    0 -0.15615617029E+02 -0.85885895074E+01 -0.26197864330E+01  0.18013179790E+02  0.51100000000E-03 0. -1.
        -11    1    3    3    0    0 -0.56355486890E+01 -0.35664778902E+01  0.10222864213E+02  0.12205987324E+02  0.51100000000E-03 0.  1.
        -12    1    3    3    0    0  0.11099764511E+02  0.14681075228E+02  0.22518175849E+02  0.29082760970E+02  0.00000000000E+00 0.  1.
</event>
<event>
 7    1  0.3223600E-013  0.5930196E+02  0.7816164E-02  0.1266605E+00
        -11   -1    0    0    0    0  0.00000000000E+00  0.00000000000E+00  0.45593999997E+02  0.45594000000E+02  0.51100000000E-03 0.  1.
         11   -1    0    0    0    0 -0.00000000000E+00 -0.00000000000E+00 -0.45593999997E+02  0.45594000000E+02  0.51100000000E-03 0. -1.
    9900012    2    1    2    0    0 -0.16432499743E+01 -0.31674071650E+02  0.32821122693E+01  0.59301963145E+02  0.50000034865E+02 0.  0.
         12    1    1    2    0    0  0.16432499743E+01  0.31674071650E+02 -0.32821122693E+01  0.31886036855E+02  0.00000000000E+00 0. -1.
         11    1    3    3    0    0  0.11661198716E+02  0.37871592780E+01  0.48554650603E+01  0.13187178322E+02  0.51100000000E-03 0. -1.
        -11    1    3    3    0    0 -0.12997833825E+02 -0.38769102370E+01 -0.47459457290E+01  0.14370042389E+02  0.51100000000E-03 0.  1.
        -12    1    3    3    0    0 -0.30661486538E+00 -0.31584320691E+02  0.31725929381E+01  0.31744742433E+02  0.00000000000E+00 0.  1.
</event>
<event>
 7    1  0.3223600E-013  0.5930197E+02  0.7816164E-02  0.1266605E+00
        -11   -1    0    0    0    0  0.00000000000E+00  0.00000000000E+00  0.45593999997E+02  0.45594000000E+02  0.51100000000E-03 0.  1.
         11   -1    0    0    0    0 -0.00000000000E+00 -0.00000000000E+00 -0.45593999997E+02  0.45594000000E+02  0.51100000000E-03 0. -1.
    9900012    2    1    2    0    0  0.16864919765E+02  0.23199879637E+02  0.13930495234E+02  0.59301974357E+02  0.50000055312E+02 0.  0.
         12    1    1    2    0    0 -0.16864919765E+02 -0.23199879637E+02 -0.13930495234E+02  0.31886025643E+02  0.00000000000E+00 0. -1.
         11    1    3    3    0    0  0.16256021963E+02  0.74245198410E+01 -0.54406689446E+01  0.18681076622E+02  0.51100000000E-03 0. -1.
        -11    1    3    3    0    0  0.25182068281E+01  0.21730072543E+02  0.17759097263E+01  0.21947466231E+02  0.51100000000E-03 0.  1.
         12    1    3    3    0    0 -0.19093090260E+01 -0.59547127470E+01  0.17595254452E+02  0.18673431503E+02  0.00000000000E+00 0. -1.
</event>
<event>
 7    1  0.3223600E-013  0.5930191E+02  0.7816164E-02  0.1266605E+00
        -11   -1    0    0    0    0  0.00000000000E+00  0.00000000000E+00  0.45593999997E+02  0.45594000000E+02  0.51100000000E-03 0.  1.
         11   -1    0    0    0    0 -0.00000000000E+00 -0.00000000000E+00 -0.45593999997E+02  0.45594000000E+02  0.51100000000E-03 0. -1.
    9900012    2    1    2    0    0  0.21566357476E+02  0.54071691456E+01  0.22855572555E+02  0.59301914480E+02  0.49999946112E+02 0.  0.
         12    1    1    2    0    0 -0.21566357476E+02 -0.54071691456E+01 -0.22855572555E+02  0.31886085520E+02  0.00000000000E+00 0. -1.
         11    1    3    3    0    0  0.10888809888E+02 -0.52388109340E+01  0.57117756271E+01  0.13365466766E+02  0.51100000000E-03 0. -1.
        -11    1    3    3    0    0  0.23064361667E+02  0.73132717675E+01  0.21521731724E+02  0.32382613541E+02  0.51100000000E-03 0.  1.
        -12    1    3    3    0    0 -0.12386814079E+02  0.33327083121E+01 -0.43779347959E+01  0.13553834174E+02  0.00000000000E+00 0.  1.
</event>
<event>
 7    1  0.3223600E-013  0.5930197E+02  0.7816164E-02  0.1266605E+00
        -11   -1    0    0    0    0  0.00000000000E+00  0.00000000000E+00  0.45593999997E+02  0.45594000000E+02  0.51100000000E-03 0. -1.
         11   -1    0    0    0    0 -0.00000000000E+00 -0.00000000000E+00 -0.45593999997E+02  0.45594000000E+02  0.51100000000E-03 0.  1.
    9900012    2    1    2    0    0 -0.13629849027E+02  0.20949003553E+02 -0.19801146128E+02  0.59301969793E+02  0.50000046991E+02 0.  0.
         12    1    1    2    0    0  0.13629849027E+02 -0.20949003553E+02  0.19801146128E+02  0.31886030207E+02  0.00000000000E+00 0. -1.
         11    1    3    3    0    0 -0.24038502897E+01  0.50131757141E+00 -0.53353816665E+01  0.58733391960E+01  0.51100000000E-03 0. -1.
        -11    1    3    3    0    0 -0.88570167821E+01 -0.48301005144E+01 -0.24215066256E+02  0.26232538026E+02  0.51100000000E-03 0.  1.
         12    1    3    3    0    0 -0.23689819551E+01  0.25277786496E+02  0.97493017951E+01  0.27196092571E+02  0.00000000000E+00 0. -1.
</event>
<event>
 7    1  0.3223600E-013  0.5930193E+02  0.7816164E-02  0.1266605E+00
        -11   -1    0    0    0    0  0.00000000000E+00  0.00000000000E+00  0.45593999997E+02  0.45594000000E+02  0.51100000000E-03 0.  1.
         11   -1    0    0    0    0 -0.00000000000E+00 -0.00000000000E+00 -0.45593999997E+02  0.45594000000E+02  0.51100000000E-03 0. -1.
    9900012    2    1    2    0    0  0.16977936213E+01 -0.24710028945E+02  0.20081173460E+02  0.59301928414E+02  0.49999971525E+02 0.  0.
         12    1    1    2    0    0 -0.16977936213E+01  0.24710028945E+02 -0.20081173460E+02  0.31886071586E+02  0.00000000000E+00 0. -1.
         11    1    3    3    0    0 -0.60473989050E+01 -0.47143062979E+01 -0.12921137216E+02  0.15025029271E+02  0.51100000000E-03 0. -1.
        -11    1    3    3    0    0  0.85217647213E+01 -0.56184298484E+01  0.24429562685E+01  0.10495487769E+02  0.51100000000E-03 0.  1.
        -12    1    3    3    0    0 -0.77657219504E+00 -0.14377292799E+02  0.30559354407E+02  0.33781411373E+02  0.00000000000E+00 0.  1.
</event>
<event>
 7    1  0.3223600E-013  0.5930195E+02  0.7816164E-02  0.1266605E+00
        -11   -1    0    0    0    0  0.00000000000E+00  0.00000000000E+00  0.45593999997E+02  0.45594000000E+02  0.51100000000E-03 0.  1.
         11   -1    0    0    0    0 -0.00000000000E+00 -0.00000000000E+00 -0.45593999997E+02  0.45594000000E+02  0.51100000000E-03 0. -1.
    9900012    2    1    2    0    0 -0.10681105231E+02  0.20238206593E+02 -0.22204714677E+02  0.59301947110E+02  0.50000005621E+02 0.  0.
         12    1    1    2    0    0  0.10681105231E+02 -0.20238206593E+02  0.22204714677E+02  0.31886052890E+02  0.00000000000E+00 0. -1.
         11    1    3    3    0    0  0.27093172408E+01 -0.18300924730E+01  0.46469529348E-01  0.32698315017E+01  0.51100000000E-03 0. -1.
        -11    1    3    3    0    0 -0.14698479911E+02  0.78006533538E+01  0.10917038350E+02  0.19901689151E+02  0.51100000000E-03 0.  1.
         12    1    3    3    0    0  0.13080574400E+01  0.14267645712E+02 -0.33168222557E+02  0.36130426457E+02  0.00000000000E+00 0. -1.
</event>
<event>
 7    1  0.3223600E-013  0.5930194E+02  0.7816164E-02  0.1266605E+00
        -11   -1    0    0    0    0  0.00000000000E+00  0.00000000000E+00  0.45593999997E+02  0.45594000000E+02  0.51100000000E-03 0.  1.
         11   -1    0    0    0    0 -0.00000000000E+00 -0.00000000000E+00 -0.45593999997E+02  0.45594000000E+02  0.51100000000E-03 0. -1.
    9900012    2    1    2    0    0  0.31323536650E+01 -0.26297696700E+02 -0.17757817445E+02  0.59301943931E+02  0.49999999823E+02 0.  0.
         12    1    1    2    0    0 -0.31323536650E+01  0.26297696700E+02  0.17757817445E+02  0.31886056069E+02  0.00000000000E+00 0. -1.
         11    1    3    3    0    0  0.61308044325E+00  0.13182028049E+01 -0.82463548623E+01  0.83735234543E+01  0.51100000000E-03 0. -1.
        -11    1    3    3    0    0  0.12031031761E+02  0.71233031013E+01 -0.18345193055E+01  0.14101511750E+02  0.51100000000E-03 0.  1.
        -12    1    3    3    0    0 -0.95117585390E+01 -0.34739202607E+02 -0.76769432777E+01  0.36826908726E+02  0.00000000000E+00 0.  1.
</event>
<event>
 7    1  0.3223600E-013  0.5930192E+02  0.7816164E-02  0.1266605E+00
        -11   -1    0    0    0    0  0.00000000000E+00  0.00000000000E+00  0.45593999997E+02  0.45594000000E+02  0.51100000000E-03 0. -1.
         11   -1    0    0    0    0 -0.00000000000E+00 -0.00000000000E+00 -0.45593999997E+02  0.45594000000E+02  0.51100000000E-03 0.  1.
    9900012    2    1    2    0    0  0.48056704587E+01  0.31521166933E+02  0.20886321565E+00  0.59301920636E+02  0.49999957339E+02 0.  0.
         12    1    1    2    0    0 -0.48056704587E+01 -0.31521166933E+02 -0.20886321565E+00  0.31886079364E+02  0.00000000000E+00 0. -1.
         11    1    3    3    0    0  0.78735305833E+01  0.26358183502E+02  0.10238114740E+02  0.29352432864E+02  0.51100000000E-03 0.  1.
        -11    1    3    3    0    0  0.11215869953E+02  0.99125396130E+00 -0.10014832988E+02  0.15069014675E+02  0.51100000000E-03 0. -1.
         12    1    3    3    0    0 -0.14283730077E+02  0.41717294699E+01 -0.14418536369E-01  0.14880473097E+02  0.00000000000E+00 0. -1.
</event>
<event>
 7    1  0.3223600E-013  0.5930191E+02  0.7816164E-02  0.1266605E+00
        -11   -1    0    0    0    0  0.00000000000E+00  0.00000000000E+00  0.45593999997E+02  0.45594000000E+02  0.51100000000E-03 0. -1.
         11   -1    0    0    0    0 -0.00000000000E+00 -0.00000000000E+00 -0.45593999997E+02  0.45594000000E+02  0.51100000000E-03 0.  1.
    9900012    2    1    2    0    0 -0.23419457849E+01  0.29293551843E+02 -0.12374400589E+02  0.59301910876E+02  0.49999939540E+02 0.  0.
         12    1    1    2    0    0  0.23419457849E+01 -0.29293551843E+02  0.12374400589E+02  0.31886089124E+02  0.00000000000E+00 0. -1.
         11    1    3    3    0    0  0.29248241106E+01  0.19897817833E+02  0.12857347921E+02  0.23870256522E+02  0.51100000000E-03 0. -1.
        -11    1    3    3    0    0  0.46808843297E+01  0.84818120566E+01 -0.16578634627E+01  0.98285464538E+01  0.51100000000E-03 0.  1.
        -12    1    3    3    0    0 -0.99476542252E+01  0.91392195381E+00 -0.23573885048E+02  0.25603107901E+02  0.00000000000E+00 0.  1.
</event>
<event>
 7    1  0.3223600E-013  0.5930190E+02  0.7816164E-02  0.1266605E+00
        -11   -1    0    0    0    0  0.00000000000E+00  0.00000000000E+00  0.45593999997E+02  0.45594000000E+02  0.51100000000E-03 0. -1.
         11   -1    0    0    0    0 -0.00000000000E+00 -0.00000000000E+00 -0.45593999997E+02  0.45594000000E+02  0.51100000000E-03 0.  1.
    9900012    2    1    2    0    0  0.27748209782E+02 -0.81849549310E+01 -0.13407708361E+02  0.59301901512E+02  0.49999922461E+02 0.  0.
         12    1    1    2    0    0 -0.27748209782E+02  0.81849549310E+01  0.13407708361E+02  0.31886098488E+02  0.00000000000E+00 0. -1.
         11    1    3    3    0    0  0.78400294553E+01  0.76017678605E+01  0.27550762338E-01  0.10920334050E+02  0.51100000000E-03 0. -1.
        -11    1    3    3    0    0  0.74984931506E+00  0.91810930701E+01 -0.14170978654E+02  0.16901815885E+02  0.51100000000E-03 0.  1.
         12    1    3    3    0    0  0.19158331011E+02 -0.24967815862E+02  0.73571953019E+00  0.31479751576E+02  0.00000000000E+00 0. -1.
</event>
<event>
 7    1  0.3223600E-013  0.5930205E+02  0.7816164E-02  0.1266604E+00
        -11   -1    0    0    0    0  0.00000000000E+00  0.00000000000E+00  0.45593999997E+02  0.45594000000E+02  0.51100000000E-03 0.  1.
         11   -1    0    0    0    0 -0.00000000000E+00 -0.00000000000E+00 -0.45593999997E+02  0.45594000000E+02  0.51100000000E-03 0. -1.
    9900012    2    1    2    0    0  0.29625567490E+02  0.46909694156E+01 -0.10818251632E+02  0.59302046799E+02  0.50000187430E+02 0.  0.
         12    1    1    2    0    0 -0.29625567490E+02 -0.46909694156E+01  0.10818251632E+02  0.31885953201E+02  0.00000000000E+00 0. -1.
         11    1    3    3    0    0 -0.31259770871E+01  0.11527362732E+02 -0.58547409335E+01  0.13301496756E+02  0.51100000000E-03 0. -1.
        -11    1    3    3    0    0 -0.30690056719E+01  0.16462870100E+01  0.65605229646E+01  0.74276186334E+01  0.51100000000E-03 0.  1.
        -12    1    3    3    0    0  0.35820550249E+02 -0.84826803263E+01 -0.11524033663E+02  0.38572931409E+02  0.00000000000E+00 0.  1.
</event>
<event>
 7    1  0.3223600E-013  0.5930195E+02  0.7816164E-02  0.1266605E+00
        -11   -1    0    0    0    0  0.00000000000E+00  0.00000000000E+00  0.45593999997E+02  0.45594000000E+02  0.51100000000E-03 0.  1.
         11   -1    0    0    0    0 -0.00000000000E+00 -0.00000000000E+00 -0.45593999997E+02  0.45594000000E+02  0.51100000000E-03 0. -1.
    9900012    2    1    2    0    0  0.22916557253E+02  0.14275860065E+02  0.16963242823E+02  0.59301946873E+02  0.50000005189E+02 0.  0.
         12    1    1    2    0    0 -0.22916557253E+02 -0.14275860065E+02 -0.16963242823E+02  0.31886053127E+02  0.00000000000E+00 0. -1.
         11    1    3    3    0    0 -0.76577007953E+00  0.45395775986E+01  0.52151552039E+01  0.69564367783E+01  0.51100000000E-03 0. -1.
        -11    1    3    3    0    0  0.33599998051E+02  0.15333664193E+02  0.14030560963E+01  0.36960109487E+02  0.51100000000E-03 0.  1.
         12    1    3    3    0    0 -0.99176707182E+01 -0.55973817263E+01  0.10345031523E+02  0.15385400608E+02  0.00000000000E+00 0. -1.
</event>
<event>
 7    1  0.3223600E-013  0.5930187E+02  0.7816164E-02  0.1266605E+00
        -11   -1    0    0    0    0  0.00000000000E+00  0.00000000000E+00  0.45593999997E+02  0.45594000000E+02  0.51100000000E-03 0. -1.
         11   -1    0    0    0    0 -0.00000000000E+00 -0.00000000000E+00 -0.45593999997E+02  0.45594000000E+02  0.51100000000E-03 0.  1.
    9900012    2    1    2    0    0  0.24980178975E+02 -0.14268010277E+02 -0.13752801853E+02  0.59301874213E+02  0.49999872675E+02 0.  0.
         12    1    1    2    0    0 -0.24980178975E+02  0.14268010277E+02  0.13752801853E+02  0.31886125787E+02  0.00000000000E+00 0. -1.
         11    1    3    3    0    0  0.24545730948E+02 -0.33469381066E+00 -0.41187767319E+00  0.24551467801E+02  0.51100000000E-03 0. -1.
        -11    1    3    3    0    0 -0.79725142073E+01 -0.45409436902E+00  0.58047040532E+01  0.98722729849E+01  0.51100000000E-03 0.  1.
        -12    1    3    3    0    0  0.84069622344E+01 -0.13479222098E+02 -0.19145628233E+02  0.24878133427E+02  0.00000000000E+00 0.  1.
</event>
<event>
 7    1  0.3223600E-013  0.5930191E+02  0.7816164E-02  0.1266605E+00
        -11   -1    0    0    0    0  0.00000000000E+00  0.00000000000E+00  0.45593999997E+02  0.45594000000E+02  0.51100000000E-03 0.  1.
         11   -1    0    0    0    0 -0.00000000000E+00 -0.00000000000E+00 -0.45593999997E+02  0.45594000000E+02  0.51100000000E-03 0. -1.
    9900012    2    1    2    0    0  0.27881635493E+02  0.13009471540E+02  0.83720172371E+01  0.59301911809E+02  0.49999941241E+02 0.  0.
         12    1    1    2    0    0 -0.27881635493E+02 -0.13009471540E+02 -0.83720172371E+01  0.31886088191E+02  0.00000000000E+00 0. -1.
         11    1    3    3    0    0  0.12871904313E+02  0.17692247440E+01  0.18932810588E+02  0.22962303757E+02  0.51100000000E-03 0. -1.
        -11    1    3    3    0    0 -0.76098074478E+01  0.93351448279E+01 -0.29727490152E+01  0.12405294649E+02  0.51100000000E-03 0.  1.
         12    1    3    3    0    0  0.22619538628E+02  0.19051019677E+01 -0.75880443357E+01  0.23934313403E+02  0.00000000000E+00 0. -1.
</event>
<event>
 7    1  0.3223600E-013  0.5930192E+02  0.7816164E-02  0.1266605E+00
        -11   -1    0    0    0    0  0.00000000000E+00  0.00000000000E+00  0.45593999997E+02  0.45594000000E+02  0.51100000000E-03 0.  1.
         11   -1    0    0    0    0 -0.00000000000E+00 -0.00000000000E+00 -0.45593999997E+02  0.45594000000E+02  0.51100000000E-03 0. -1.
    9900012    2    1    2    0    0  0.21110036447E+01 -0.16097623026E+02  0.27443254212E+02  0.59301921451E+02  0.49999958825E+02 0.  0.
         12    1    1    2    0    0 -0.21110036447E+01  0.16097623026E+02 -0.27443254212E+02  0.31886078549E+02  0.00000000000E+00 0. -1.
         11    1    3    3    0    0 -0.18893166598E+02 -0.17021622151E+02  0.10562822117E+02  0.27536531664E+02  0.51100000000E-03 0. -1.
        -11    1    3    3    0    0  0.11460002824E+01 -0.20703219864E+01  0.10395859675E+02  0.10661775106E+02  0.51100000000E-03 0.  1.
         12    1    3    3    0    0  0.19858169960E+02  0.29943211116E+01  0.64845724206E+01  0.21103614680E+02  0.00000000000E+00 0. -1.
</event>
<event>
 7    1  0.3223600E-013  0.5930189E+02  0.7816164E-02  0.1266605E+00
        -11   -1    0    0    0    0  0.00000000000E+00  0.00000000000E+00  0.45593999997E+02  0.45594000000E+02  0.51100000000E-03 0.  1.
         11   -1    0    0    0    0 -0.00000000000E+00 -0.00000000000E+00 -0.45593999997E+02  0.45594000000E+02  0.51100000000E-03 0. -1.
    9900012    2    1    2    0    0 -0.26975169967E+02  0.16798254901E+02 -0.26235015151E+01  0.59301891384E+02  0.49999903990E+02 0.  0.
         12    1    1    2    0    0  0.26975169967E+02 -0.16798254901E+02  0.26235015151E+01  0.31886108616E+02  0.00000000000E+00 0. -1.
         11    1    3    3    0    0 -0.10796269649E+02 -0.14794690590E+02 -0.15305211598E+01  0.18378922799E+02  0.51100000000E-03 0. -1.
        -11    1    3    3    0    0 -0.46821826685E+01 -0.44850811011E+00  0.44002989927E+01  0.64410112212E+01  0.51100000000E-03 0.  1.
         12    1    3    3    0    0 -0.11496717650E+02  0.32041453601E+02 -0.54932793480E+01  0.34481957363E+02  0.00000000000E+00 0. -1.
</event>
<event>
 7    1  0.3223600E-013  0.5930193E+02  0.7816164E-02  0.1266605E+00
        -11   -1    0    0    0    0  0.00000000000E+00  0.00000000000E+00  0.45593999997E+02  0.45594000000E+02  0.51100000000E-03 0.  1.
         11   -1    0    0    0    0 -0.00000000000E+00 -0.00000000000E+00 -0.45593999997E+02  0.45594000000E+02  0.51100000000E-03 0. -1.
    9900012    2    1    2    0    0  0.23906462062E+02  0.21020647049E+02 -0.18261471273E+01  0.59301931819E+02  0.49999977734E+02 0.  0.
         12    1    1    2    0    0 -0.23906462062E+02 -0.21020647049E+02  0.18261471273E+01  0.31886068181E+02  0.00000000000E+00 0. -1.
         11    1    3    3    0    0  0.67212260964E+01  0.48903854719E+01 -0.12447383846E+01  0.84047679451E+01  0.51100000000E-03 0. -1.
        -11    1    3    3    0    0  0.80216886811E+01 -0.15479223172E+02  0.33468478066E+01  0.17752611915E+02  0.51100000000E-03 0.  1.
         12    1    3    3    0    0  0.91635472848E+01  0.31609484750E+02 -0.39282565493E+01  0.33144551958E+02  0.00000000000E+00 0. -1.
</event>
<event>
 7    1  0.3223600E-013  0.5930191E+02  0.7816164E-02  0.1266605E+00
        -11   -1    0    0    0    0  0.00000000000E+00  0.00000000000E+00  0.45593999997E+02  0.45594000000E+02  0.51100000000E-03 0.  1.
         11   -1    0    0    0    0 -0.00000000000E+00 -0.00000000000E+00 -0.45593999997E+02  0.45594000000E+02  0.51100000000E-03 0. -1.
    9900012    2    1    2    0    0 -0.10464080527E+02  0.21100188290E+02  0.21494371979E+02  0.59301906575E+02  0.49999931695E+02 0.  0.
         12    1    1    2    0    0  0.10464080527E+02 -0.21100188290E+02 -0.21494371979E+02  0.31886093425E+02  0.00000000000E+00 0. -1.
         11    1    3    3    0    0  0.51426271279E+01  0.24878364291E+01  0.18418836999E+02  0.19284436744E+02  0.51100000000E-03 0. -1.
        -11    1    3    3    0    0 -0.56311903868E+01  0.78174368446E+01  0.17147648092E+02  0.19668870312E+02  0.51100000000E-03 0.  1.
         12    1    3    3    0    0 -0.99755172677E+01  0.10794915016E+02 -0.14072113112E+02  0.20348599519E+02  0.00000000000E+00 0. -1.
</event>
<event>
 7    1  0.3223600E-013  0.5930196E+02  0.7816164E-02  0.1266605E+00
        -11   -1    0    0    0    0  0.00000000000E+00  0.00000000000E+00  0.45593999997E+02  0.45594000000E+02  0.51100000000E-03 0. -1.
         11   -1    0    0    0    0 -0.00000000000E+00 -0.00000000000E+00 -0.45593999997E+02  0.45594000000E+02  0.51100000000E-03 0.  1.
    9900012    2    1    2    0    0  0.12121168863E+02 -0.25421690008E+02 -0.14951065769E+02  0.59301961910E+02  0.50000032613E+02 0.  0.
         12    1    1    2    0    0 -0.12121168863E+02  0.25421690008E+02  0.14951065769E+02  0.31886038090E+02  0.00000000000E+00 0. -1.
         11    1    3    3    0    0  0.51988881079E+01  0.39584774452E+01 -0.39857172559E+01  0.76540135581E+01  0.51100000000E-03 0. -1.
        -11    1    3    3    0    0  0.16264421327E+02 -0.80305718373E+00  0.57240767837E+01  0.17260977876E+02  0.51100000000E-03 0.  1.
        -12    1    3    3    0    0 -0.93421405723E+01 -0.28577110269E+02 -0.16689425297E+02  0.34386970476E+02  0.00000000000E+00 0.  1.
</event>
<event>
 7    1  0.3223600E-013  0.5930198E+02  0.7816164E-02  0.1266605E+00
        -11   -1    0    0    0    0  0.00000000000E+00  0.00000000000E+00  0.45593999997E+02  0.45594000000E+02  0.51100000000E-03 0.  1.
         11   -1    0    0    0    0 -0.00000000000E+00 -0.00000000000E+00 -0.45593999997E+02  0.45594000000E+02  0.51100000000E-03 0. -1.
    9900012    2    1    2    0    0  0.10091081383E+02  0.90613363347E+01  0.28857935297E+02  0.59301981602E+02  0.50000068527E+02 0.  0.
         12    1    1    2    0    0 -0.10091081383E+02 -0.90613363347E+01 -0.28857935297E+02  0.31886018398E+02  0.00000000000E+00 0. -1.
         11    1    3    3    0    0  0.15020886034E+02 -0.10013497919E+02  0.12138614209E+01  0.18093386019E+02  0.51100000000E-03 0. -1.
        -11    1    3    3    0    0 -0.73587029177E+01 -0.32495720982E+01  0.84568679006E+01  0.11671711203E+02  0.51100000000E-03 0.  1.
        -12    1    3    3    0    0  0.24288982671E+01  0.22324406352E+02  0.19187205975E+02  0.29536884381E+02  0.00000000000E+00 0.  1.
</event>
<event>
 7    1  0.3223600E-013  0.5930228E+02  0.7816164E-02  0.1266604E+00
        -11   -1    0    0    0    0  0.00000000000E+00  0.00000000000E+00  0.45593999997E+02  0.45594000000E+02  0.51100000000E-03 0. -1.
         11   -1    0    0    0    0 -0.00000000000E+00 -0.00000000000E+00 -0.45593999997E+02  0.45594000000E+02  0.51100000000E-03 0.  1.
    9900012    2    1    2    0    0  0.13661621042E+02 -0.28425726382E+02 -0.46943992926E+01  0.59302279143E+02  0.50000611166E+02 0.  0.
         12    1    1    2    0    0 -0.13661621042E+02  0.28425726382E+02  0.46943992926E+01  0.31885720857E+02  0.00000000000E+00 0. -1.
         11    1    3    3    0    0  0.11276314758E+00 -0.54945127306E+01  0.41386338925E+01  0.68797293865E+01  0.51100000000E-03 0. -1.
        -11    1    3    3    0    0  0.15939492424E+01  0.35348457944E+01  0.14600289086E+02  0.15106430771E+02  0.51100000000E-03 0.  1.
        -12    1    3    3    0    0  0.11954908652E+02 -0.26466059446E+02 -0.23433322271E+02  0.37316118986E+02  0.00000000000E+00 0.  1.
</event>
<event>
 7    1  0.3223600E-013  0.5930195E+02  0.7816164E-02  0.1266605E+00
        -11   -1    0    0    0    0  0.00000000000E+00  0.00000000000E+00  0.45593999997E+02  0.45594000000E+02  0.51100000000E-03 0. -1.
         11   -1    0    0    0    0 -0.00000000000E+00 -0.00000000000E+00 -0.45593999997E+02  0.45594000000E+02  0.51100000000E-03 0.  1.
    9900012    2    1    2    0    0 -0.19143915900E+02  0.47255917783E+01 -0.25057921904E+02  0.59301950012E+02  0.50000010914E+02 0.  0.
         12    1    1    2    0    0  0.19143915900E+02 -0.47255917783E+01  0.25057921904E+02  0.31886049988E+02  0.00000000000E+00 0. -1.
         11    1    3    3    0    0 -0.10389706776E+02  0.51958755444E+01 -0.92778820085E+01  0.14866816216E+02  0.51100000000E-03 0. -1.
        -11    1    3    3    0    0  0.34337641284E+01  0.18570038135E+02 -0.82346636374E+01  0.20602105181E+02  0.51100000000E-03 0.  1.
         12    1    3    3    0    0 -0.12187973253E+02 -0.19040321901E+02 -0.75453762585E+01  0.23833028615E+02  0.00000000000E+00 0. -1.
</event>
<event>
 7    1  0.3223600E-013  0.5930193E+02  0.7816164E-02  0.1266605E+00
        -11   -1    0    0    0    0  0.00000000000E+00  0.00000000000E+00  0.45593999997E+02  0.45594000000E+02  0.51100000000E-03 0.  1.
         11   -1    0    0    0    0 -0.00000000000E+00 -0.00000000000E+00 -0.45593999997E+02  0.45594000000E+02  0.51100000000E-03 0. -1.
    9900012    2    1    2    0    0 -0.53358126487E+00 -0.29650494472E+02  0.11716875341E+02  0.59301926251E+02  0.49999967579E+02 0.  0.
         12    1    1    2    0    0  0.53358126487E+00  0.29650494472E+02 -0.11716875341E+02  0.31886073749E+02  0.00000000000E+00 0. -1.
         11    1    3    3    0    0  0.52992484945E+01 -0.59969850494E+01 -0.22749795907E+01  0.83199397046E+01  0.51100000000E-03 0. -1.
        -11    1    3    3    0    0  0.40566644306E+01 -0.22181019295E+02  0.26612359611E+02  0.34880823207E+02  0.51100000000E-03 0.  1.
         12    1    3    3    0    0 -0.98894941900E+01 -0.14724901274E+01 -0.12620504679E+02  0.16101163339E+02  0.00000000000E+00 0. -1.
</event>
<event>
 7    1  0.3223600E-013  0.5930216E+02  0.7816164E-02  0.1266604E+00
        -11   -1    0    0    0    0  0.00000000000E+00  0.00000000000E+00  0.45593999997E+02  0.45594000000E+02  0.51100000000E-03 0.  1.
         11   -1    0    0    0    0 -0.00000000000E+00 -0.00000000000E+00 -0.45593999997E+02  0.45594000000E+02  0.51100000000E-03 0. -1.
    9900012    2    1    2    0    0 -0.89539411589E+01 -0.13979721734E+02  0.27223172069E+02  0.59302160203E+02  0.50000394250E+02 0.  0.
         12    1    1    2    0    0  0.89539411589E+01  0.13979721734E+02 -0.27223172069E+02  0.31885839797E+02  0.00000000000E+00 0. -1.
         11    1    3    3    0    0  0.76044117713E+01 -0.57413113772E+01  0.17152434878E+01  0.96815182281E+01  0.51100000000E-03 0. -1.
        -11    1    3    3    0    0 -0.99987558928E+01 -0.21371824731E+02  0.45456494584E+01  0.24029002081E+02  0.51100000000E-03 0.  1.
        -12    1    3    3    0    0 -0.65595970374E+01  0.13133414375E+02  0.20962279123E+02  0.25591639894E+02  0.00000000000E+00 0.  1.
</event>
<event>
 7    1  0.3223600E-013  0.5930170E+02  0.7816164E-02  0.1266606E+00
        -11   -1    0    0    0    0  0.00000000000E+00  0.00000000000E+00  0.45593999997E+02  0.45594000000E+02  0.51100000000E-03 0. -1.
         11   -1    0    0    0    0 -0.00000000000E+00 -0.00000000000E+00 -0.45593999997E+02  0.45594000000E+02  0.51100000000E-03 0.  1.
    9900012    2    1    2    0    0  0.98815336914E+01  0.30053346407E+02 -0.39859778184E+01  0.59301696396E+02  0.49999548377E+02 0.  0.
         12    1    1    2    0    0 -0.98815336914E+01 -0.30053346407E+02  0.39859778184E+01  0.31886303604E+02  0.00000000000E+00 0. -1.
         11    1    3    3    0    0 -0.95568893835E+01 -0.25276041662E+01  0.11113550100E+01  0.99477649615E+01  0.51100000000E-03 0. -1.
        -11    1    3    3    0    0 -0.53418923193E+01  0.17797361900E+02  0.41761257959E+01  0.19045260068E+02  0.51100000000E-03 0.  1.
        -12    1    3    3    0    0  0.24780315394E+02  0.14783588674E+02 -0.92734586243E+01  0.30308671366E+02  0.00000000000E+00 0.  1.
</event>
<event>
 7    1  0.3223600E-013  0.5930195E+02  0.7816164E-02  0.1266605E+00
        -11   -1    0    0    0    0  0.00000000000E+00  0.00000000000E+00  0.45593999997E+02  0.45594000000E+02  0.51100000000E-03 0.  1.
         11   -1    0    0    0    0 -0.00000000000E+00 -0.00000000000E+00 -0.45593999997E+02  0.45594000000E+02  0.51100000000E-03 0. -1.
    9900012    2    1    2    0    0  0.44379792091E+01  0.30653518268E+01  0.31426547326E+02  0.59301954179E+02  0.50000018513E+02 0.  0.
         12    1    1    2    0    0 -0.44379792091E+01 -0.30653518268E+01 -0.31426547326E+02  0.31886045821E+02  0.00000000000E+00 0. -1.
         11    1    3    3    0    0  0.97868738288E+01 -0.18614078838E+01  0.27603057178E+01  0.10337650921E+02  0.51100000000E-03 0.  1.
        -11    1    3    3    0    0 -0.34634399902E+01  0.13468835759E+02 -0.45367581674E+01  0.14628298883E+02  0.51100000000E-03 0. -1.
         12    1    3    3    0    0 -0.18854546295E+01 -0.85420760484E+01  0.33202999775E+02  0.34336004375E+02  0.00000000000E+00 0. -1.
</event>
<event>
 7    1  0.3223600E-013  0.5930194E+02  0.7816164E-02  0.1266605E+00
        -11   -1    0    0    0    0  0.00000000000E+00  0.00000000000E+00  0.45593999997E+02  0.45594000000E+02  0.51100000000E-03 0. -1.
         11   -1    0    0    0    0 -0.00000000000E+00 -0.00000000000E+00 -0.45593999997E+02  0.45594000000E+02  0.51100000000E-03 0.  1.
    9900012    2    1    2    0    0 -0.14250555509E+02  0.99936366728E+01 -0.26716470100E+02  0.59301939083E+02  0.49999990981E+02 0.  0.
         12    1    1    2    0    0  0.14250555509E+02 -0.99936366728E+01  0.26716470100E+02  0.31886060917E+02  0.00000000000E+00 0. -1.
         11    1    3    3    0    0  0.91981871720E+00 -0.77094805914E+01  0.42700449617E+01  0.88608939560E+01  0.51100000000E-03 0. -1.
        -11    1    3    3    0    0 -0.13337666224E+02 -0.56733274855E+01 -0.19592827118E+02  0.24371271197E+02  0.51100000000E-03 0.  1.
         12    1    3    3    0    0 -0.18327080019E+01  0.23376444750E+02 -0.11393687944E+02  0.26069773929E+02  0.00000000000E+00 0. -1.
</event>
<event>
 7    1  0.3223600E-013  0.5930192E+02  0.7816164E-02  0.1266605E+00
        -11   -1    0    0    0    0  0.00000000000E+00  0.00000000000E+00  0.45593999997E+02  0.45594000000E+02  0.51100000000E-03 0.  1.
         11   -1    0    0    0    0 -0.00000000000E+00 -0.00000000000E+00 -0.45593999997E+02  0.45594000000E+02  0.51100000000E-03 0. -1.
    9900012    2    1    2    0    0 -0.31825457114E+02  0.16862919687E+01 -0.10092300788E+01  0.59301923940E+02  0.49999963365E+02 0.  0.
         12    1    1    2    0    0  0.31825457114E+02 -0.16862919687E+01  0.10092300788E+01  0.31886076060E+02  0.00000000000E+00 0. -1.
         11    1    3    3    0    0  0.71787600530E+01  0.11355003452E+01  0.45630403644E+01  0.85816836670E+01  0.51100000000E-03 0. -1.
        -11    1    3    3    0    0  0.14761899308E+01  0.56714749215E+01 -0.79168471307E+01  0.98499356977E+01  0.51100000000E-03 0.  1.
        -12    1    3    3    0    0 -0.40480407098E+02 -0.51206832980E+01  0.23445766876E+01  0.40870304576E+02  0.00000000000E+00 0.  1.
</event>
<event>
 7    1  0.3223600E-013  0.5930192E+02  0.7816164E-02  0.1266605E+00
        -11   -1    0    0    0    0  0.00000000000E+00  0.00000000000E+00  0.45593999997E+02  0.45594000000E+02  0.51100000000E-03 0.  1.
         11   -1    0    0    0    0 -0.00000000000E+00 -0.00000000000E+00 -0.45593999997E+02  0.45594000000E+02  0.51100000000E-03 0. -1.
    9900012    2    1    2    0    0  0.31403487182E+02 -0.48122033859E+01  0.27176717150E+01  0.59301920778E+02  0.49999957597E+02 0.  0.
         12    1    1    2    0    0 -0.31403487182E+02  0.48122033859E+01 -0.27176717150E+01  0.31886079222E+02  0.00000000000E+00 0. -1.
         11    1    3    3    0    0  0.16220426232E+02 -0.66082315777E+01 -0.38116526416E+01  0.17924833272E+02  0.51100000000E-03 0. -1.
        -11    1    3    3    0    0 -0.73836636304E+00 -0.14658472931E+02 -0.53010119262E+01  0.15605022950E+02  0.51100000000E-03 0.  1.
         12    1    3    3    0    0  0.15921427314E+02  0.16454501123E+02  0.11830336283E+02  0.25772064556E+02  0.00000000000E+00 0. -1.
</event>
<event>
 7    1  0.3223600E-013  0.5930192E+02  0.7816164E-02  0.1266605E+00
        -11   -1    0    0    0    0  0.00000000000E+00  0.00000000000E+00  0.45593999997E+02  0.45594000000E+02  0.51100000000E-03 0.  1.
         11   -1    0    0    0    0 -0.00000000000E+00 -0.00000000000E+00 -0.45593999997E+02  0.45594000000E+02  0.51100000000E-03 0. -1.
    9900012    2    1    2    0    0  0.56260054906E+01 -0.40154922804E+01  0.31127896099E+02  0.59301921038E+02  0.49999958072E+02 0.  0.
         12    1    1    2    0    0 -0.56260054906E+01  0.40154922804E+01 -0.31127896099E+02  0.31886078962E+02  0.00000000000E+00 0. -1.
         11    1    3    3    0    0  0.47924381565E+01 -0.11678479871E+02 -0.77916607278E+01  0.14834565472E+02  0.51100000000E-03 0. -1.
        -11    1    3    3    0    0  0.17737836269E+01 -0.55212643029E+01  0.37755716172E+01  0.69199428578E+01  0.51100000000E-03 0.  1.
        -12    1    3    3    0    0 -0.94021629284E+00  0.13184251894E+02  0.35143985209E+02  0.37547412708E+02  0.00000000000E+00 0.  1.
</event>
<event>
 7    1  0.3223600E-013  0.5930194E+02  0.7816164E-02  0.1266605E+00
        -11   -1    0    0    0    0  0.00000000000E+00  0.00000000000E+00  0.45593999997E+02  0.45594000000E+02  0.51100000000E-03 0. -1.
         11   -1    0    0    0    0 -0.00000000000E+00 -0.00000000000E+00 -0.45593999997E+02  0.45594000000E+02  0.51100000000E-03 0.  1.
    9900012    2    1    2    0    0 -0.23065469276E+02 -0.20240834547E+02 -0.86610336502E+01  0.59301940978E+02  0.49999994437E+02 0.  0.
         12    1    1    2    0    0  0.23065469276E+02  0.20240834547E+02  0.86610336502E+01  0.31886059022E+02  0.00000000000E+00 0. -1.
         11    1    3    3    0    0 -0.13226643569E+02 -0.77669894982E+00 -0.11988237448E+02  0.17867993697E+02  0.51100000000E-03 0. -1.
        -11    1    3    3    0    0 -0.21226321955E+02 -0.19621095190E+02 -0.17631798560E+01  0.28959504894E+02  0.51100000000E-03 0.  1.
         12    1    3    3    0    0  0.11387496249E+02  0.15695959285E+00  0.50903836542E+01  0.12474442387E+02  0.00000000000E+00 0. -1.
</event>
<event>
 7    1  0.3223600E-013  0.5930195E+02  0.7816164E-02  0.1266605E+00
        -11   -1    0    0    0    0  0.00000000000E+00  0.00000000000E+00  0.45593999997E+02  0.45594000000E+02  0.51100000000E-03 0.  1.
         11   -1    0    0    0    0 -0.00000000000E+00 -0.00000000000E+00 -0.45593999997E+02  0.45594000000E+02  0.51100000000E-03 0. -1.
    9900012    2    1    2    0    0 -0.19888775899E+02 -0.23909725319E+02  0.70343367198E+01  0.59301948744E+02  0.50000008601E+02 0.  0.
         12    1    1    2    0    0  0.19888775899E+02  0.23909725319E+02 -0.70343367198E+01  0.31886051256E+02  0.00000000000E+00 0. -1.
         11    1    3    3    0    0 -0.13630304048E+02 -0.19375712184E+02  0.89154952065E+00  0.23706502734E+02  0.51100000000E-03 0. -1.
        -11    1    3    3    0    0 -0.71719967452E+01 -0.40184399352E+01  0.20038947135E+02  0.21659750676E+02  0.51100000000E-03 0.  1.
        -12    1    3    3    0    0  0.91352489393E+00 -0.51557320051E+00 -0.13896159936E+02  0.13935695333E+02  0.00000000000E+00 0.  1.
</event>
<event>
 7    1  0.3223600E-013  0.5930189E+02  0.7816164E-02  0.1266605E+00
        -11   -1    0    0    0    0  0.00000000000E+00  0.00000000000E+00  0.45593999997E+02  0.45594000000E+02  0.51100000000E-03 0.  1.
         11   -1    0    0    0    0 -0.00000000000E+00 -0.00000000000E+00 -0.45593999997E+02  0.45594000000E+02  0.51100000000E-03 0. -1.
    9900012    2    1    2    0    0  0.24050894069E+02 -0.13419712825E+02  0.16068282326E+02  0.59301891823E+02  0.49999904790E+02 0.  0.
         12    1    1    2    0    0 -0.24050894069E+02  0.13419712825E+02 -0.16068282326E+02  0.31886108177E+02  0.00000000000E+00 0. -1.
         11    1    3    3    0    0  0.71218303861E+01 -0.87802860433E+01 -0.13635295304E+02  0.17712570941E+02  0.51100000000E-03 0. -1.
        -11    1    3    3    0    0 -0.54814901965E+01 -0.24851602994E-01  0.99559550996E+01  0.11365227432E+02  0.51100000000E-03 0.  1.
         12    1    3    3    0    0  0.22410553879E+02 -0.46145751788E+01  0.19747622530E+02  0.30224093449E+02  0.00000000000E+00 0. -1.
</event>
<event>
 7    1  0.3223600E-013  0.5930206E+02  0.7816164E-02  0.1266604E+00
        -11   -1    0    0    0    0  0.00000000000E+00  0.00000000000E+00  0.45593999997E+02  0.45594000000E+02  0.51100000000E-03 0. -1.
         11   -1    0    0    0    0 -0.00000000000E+00 -0.00000000000E+00 -0.45593999997E+02  0.45594000000E+02  0.51100000000E-03 0.  1.
    9900012    2    1    2    0    0 -0.93134091830E+01 -0.30488130068E+02 -0.66918990839E+00  0.59302055122E+02  0.50000202609E+02 0.  0.
         12    1    1    2    0    0  0.93134091830E+01  0.30488130068E+02  0.66918990839E+00  0.31885944878E+02  0.00000000000E+00 0. -1.
         11    1    3    3    0    0 -0.39255224642E+01 -0.10644530661E+02 -0.65528028496E+01  0.13101716874E+02  0.51100000000E-03 0. -1.
        -11    1    3    3    0    0 -0.16991263162E+02  0.50500884711E+01  0.60645541681E+01  0.18734599940E+02  0.51100000000E-03 0.  1.
         12    1    3    3    0    0  0.11603376443E+02 -0.24893687878E+02 -0.18094122686E+00  0.27465738307E+02  0.00000000000E+00 0. -1.
</event>
<event>
 7    1  0.3223600E-013  0.5930198E+02  0.7816164E-02  0.1266605E+00
        -11   -1    0    0    0    0  0.00000000000E+00  0.00000000000E+00  0.45593999997E+02  0.45594000000E+02  0.51100000000E-03 0.  1.
         11   -1    0    0    0    0 -0.00000000000E+00 -0.00000000000E+00 -0.45593999997E+02  0.45594000000E+02  0.51100000000E-03 0. -1.
    9900012    2    1    2    0    0 -0.87968618409E+01  0.16278449952E+02  0.25968159181E+02  0.59301984220E+02  0.50000073301E+02 0.  0.
         12    1    1    2    0    0  0.87968618409E+01 -0.16278449952E+02 -0.25968159181E+02  0.31886015780E+02  0.00000000000E+00 0. -1.
         11    1    3    3    0    0 -0.15603176382E+01  0.18806346362E+02  0.40255583922E+01  0.19295553251E+02  0.51100000000E-03 0. -1.
        -11    1    3    3    0    0 -0.14218337167E+02 -0.11344846381E+02  0.36793801814E+01  0.18558138106E+02  0.51100000000E-03 0.  1.
         12    1    3    3    0    0  0.69817929639E+01  0.88169499706E+01  0.18263220607E+02  0.21448292863E+02  0.00000000000E+00 0. -1.
</event>
<event>
 7    1  0.3223600E-013  0.5930192E+02  0.7816164E-02  0.1266605E+00
        -11   -1    0    0    0    0  0.00000000000E+00  0.00000000000E+00  0.45593999997E+02  0.45594000000E+02  0.51100000000E-03 0.  1.
         11   -1    0    0    0    0 -0.00000000000E+00 -0.00000000000E+00 -0.45593999997E+02  0.45594000000E+02  0.51100000000E-03 0. -1.
    9900012    2    1    2    0    0 -0.84062732248E+00 -0.24712689274E+02  0.20132020719E+02  0.59301922730E+02  0.49999961158E+02 0.  0.
         12    1    1    2    0    0  0.84062732248E+00  0.24712689274E+02 -0.20132020719E+02  0.31886077270E+02  0.00000000000E+00 0. -1.
         11    1    3    3    0    0  0.24851632231E+01 -0.13367741245E+01 -0.33515650339E+01  0.43813228303E+01  0.51100000000E-03 0. -1.
        -11    1    3    3    0    0 -0.19858793888E+02 -0.25641709222E+02  0.19209207929E+02  0.37694331352E+02  0.51100000000E-03 0.  1.
         12    1    3    3    0    0  0.16533003343E+02  0.22657940731E+01  0.42743778240E+01  0.17226268548E+02  0.00000000000E+00 0. -1.
</event>
<event>
 7    1  0.3223600E-013  0.5930193E+02  0.7816164E-02  0.1266605E+00
        -11   -1    0    0    0    0  0.00000000000E+00  0.00000000000E+00  0.45593999997E+02  0.45594000000E+02  0.51100000000E-03 0.  1.
         11   -1    0    0    0    0 -0.00000000000E+00 -0.00000000000E+00 -0.45593999997E+02  0.45594000000E+02  0.51100000000E-03 0. -1.
    9900012    2    1    2    0    0 -0.74486453612E+00  0.31803805211E+02 -0.21643777145E+01  0.59301931256E+02  0.49999976707E+02 0.  0.
         12    1    1    2    0    0  0.74486453612E+00 -0.31803805211E+02  0.21643777145E+01  0.31886068744E+02  0.00000000000E+00 0. -1.
         11    1    3    3    0    0  0.65216202215E+01  0.43030144559E+01 -0.82252205699E+01  0.11344677933E+02  0.51100000000E-03 0. -1.
        -11    1    3    3    0    0  0.62040508560E+01  0.13454129947E+02 -0.13730718812E+02  0.20199913342E+02  0.51100000000E-03 0.  1.
        -12    1    3    3    0    0 -0.13470535614E+02  0.14046660808E+02  0.19791561668E+02  0.27757339981E+02  0.00000000000E+00 0.  1.
</event>
<event>
 7    1  0.3223600E-013  0.5930195E+02  0.7816164E-02  0.1266605E+00
        -11   -1    0    0    0    0  0.00000000000E+00  0.00000000000E+00  0.45593999997E+02  0.45594000000E+02  0.51100000000E-03 0.  1.
         11   -1    0    0    0    0 -0.00000000000E+00 -0.00000000000E+00 -0.45593999997E+02  0.45594000000E+02  0.51100000000E-03 0. -1.
    9900012    2    1    2    0    0 -0.69924931023E+01  0.21720788518E+02 -0.22271795222E+02  0.59301945430E+02  0.50000002557E+02 0.  0.
         12    1    1    2    0    0  0.69924931023E+01 -0.21720788518E+02  0.22271795222E+02  0.31886054570E+02  0.00000000000E+00 0. -1.
         11    1    3    3    0    0 -0.76274066319E+01  0.74022409342E+01 -0.12230454505E+02  0.16203534196E+02  0.51100000000E-03 0. -1.
        -11    1    3    3    0    0 -0.98687379085E+01  0.24976293311E+02 -0.78198243269E+01  0.27970642971E+02  0.51100000000E-03 0.  1.
        -12    1    3    3    0    0  0.10503651438E+02 -0.10657745727E+02 -0.22215163902E+01  0.15127768262E+02  0.00000000000E+00 0.  1.
</event>
<event>
 7    1  0.3223600E-013  0.5930198E+02  0.7816164E-02  0.1266605E+00
        -11   -1    0    0    0    0  0.00000000000E+00  0.00000000000E+00  0.45593999997E+02  0.45594000000E+02  0.51100000000E-03 0. -1.
         11   -1    0    0    0    0 -0.00000000000E+00 -0.00000000000E+00 -0.45593999997E+02  0.45594000000E+02  0.51100000000E-03 0.  1.
    9900012    2    1    2    0    0 -0.94809706065E+01 -0.29117724640E+02  0.88874805250E+01  0.59301984226E+02  0.50000073313E+02 0.  0.
         12    1    1    2    0    0  0.94809706065E+01  0.29117724640E+02 -0.88874805250E+01  0.31886015774E+02  0.00000000000E+00 0. -1.
         11    1    3    3    0    0  0.76554164428E+01 -0.62146454902E+01 -0.10182334408E+02  0.14174172065E+02  0.51100000000E-03 0. -1.
        -11    1    3    3    0    0  0.32086285693E+01 -0.25817581084E+01 -0.57974080587E+01  0.71113087886E+01  0.51100000000E-03 0.  1.
         12    1    3    3    0    0 -0.20345015619E+02 -0.20321321041E+02  0.24867222991E+02  0.38016503373E+02  0.00000000000E+00 0. -1.
</event>
<event>
 7    1  0.3499086E-013  0.5930191E+02  0.7816164E-02  0.1266605E+00
        -11   -1    0    0    0    0  0.00000000000E+00  0.00000000000E+00  0.45593999997E+02  0.45594000000E+02  0.51100000000E-03 0. -1.
         11   -1    0    0    0    0 -0.00000000000E+00 -0.00000000000E+00 -0.45593999997E+02  0.45594000000E+02  0.51100000000E-03 0.  1.
    9900012    2    1    2    0    0  0.21909979724E+02  0.18040493738E+02 -0.14533272899E+02  0.59301911388E+02  0.49999940473E+02 0.  0.
         12    1    1    2    0    0 -0.21909979724E+02 -0.18040493738E+02  0.14533272899E+02  0.31886088612E+02  0.00000000000E+00 0. -1.
         11    1    3    3    0    0 -0.65489620225E-01  0.75993248856E-01  0.13357119748E+02  0.13357496475E+02  0.51100000000E-03 0. -1.
        -11    1    3    3    0    0 -0.45046557961E+01  0.49897136161E+01 -0.30230193876E+01  0.73707402811E+01  0.51100000000E-03 0.  1.
        -12    1    3    3    0    0  0.26480125140E+02  0.12974786873E+02 -0.24867373259E+02  0.38573674632E+02  0.00000000000E+00 0.  1.
</event>
<event>
 7    1  0.3223600E-013  0.5930192E+02  0.7816164E-02  0.1266605E+00
        -11   -1    0    0    0    0  0.00000000000E+00  0.00000000000E+00  0.45593999997E+02  0.45594000000E+02  0.51100000000E-03 0.  1.
         11   -1    0    0    0    0 -0.00000000000E+00 -0.00000000000E+00 -0.45593999997E+02  0.45594000000E+02  0.51100000000E-03 0. -1.
    9900012    2    1    2    0    0  0.22239421635E+02 -0.11235143676E+02  0.19897273011E+02  0.59301924647E+02  0.49999964655E+02 0.  0.
         12    1    1    2    0    0 -0.22239421635E+02  0.11235143676E+02 -0.19897273011E+02  0.31886075353E+02  0.00000000000E+00 0. -1.
         11    1    3    3    0    0  0.10368911830E+02  0.99237495678E+01 -0.34177111901E+01  0.14753843162E+02  0.51100000000E-03 0. -1.
        -11    1    3    3    0    0  0.63168811490E+01  0.54359655275E+01  0.13092807057E+02  0.15520125823E+02  0.51100000000E-03 0.  1.
        -12    1    3    3    0    0  0.55536286563E+01 -0.26594858772E+02  0.10222177144E+02  0.29027955662E+02  0.00000000000E+00 0.  1.
</event>
<event>
 7    1  0.3223600E-013  0.5930194E+02  0.7816164E-02  0.1266605E+00
        -11   -1    0    0    0    0  0.00000000000E+00  0.00000000000E+00  0.45593999997E+02  0.45594000000E+02  0.51100000000E-03 0.  1.
         11   -1    0    0    0    0 -0.00000000000E+00 -0.00000000000E+00 -0.45593999997E+02  0.45594000000E+02  0.51100000000E-03 0. -1.
    9900012    2    1    2    0    0 -0.17853370396E+02 -0.11936616771E+02  0.23568949516E+02  0.59301936654E+02  0.49999986552E+02 0.  0.
         12    1    1    2    0    0  0.17853370396E+02  0.11936616771E+02 -0.23568949516E+02  0.31886063346E+02  0.00000000000E+00 0. -1.
         11    1    3    3    0    0 -0.17535889175E+02  0.88488854547E+01  0.11019245874E+01  0.19672936258E+02  0.51100000000E-03 0. -1.
        -11    1    3    3    0    0 -0.37717884049E+01 -0.69889329353E+01 -0.45096272451E+01  0.91328149821E+01  0.51100000000E-03 0.  1.
        -12    1    3    3    0    0  0.34543071836E+01 -0.13796569290E+02  0.26976652174E+02  0.30496185414E+02  0.00000000000E+00 0.  1.
</event>
<event>
 7    1  0.3223600E-013  0.5930193E+02  0.7816164E-02  0.1266605E+00
        -11   -1    0    0    0    0  0.00000000000E+00  0.00000000000E+00  0.45593999997E+02  0.45594000000E+02  0.51100000000E-03 0.  1.
         11   -1    0    0    0    0 -0.00000000000E+00 -0.00000000000E+00 -0.45593999997E+02  0.45594000000E+02  0.51100000000E-03 0. -1.
    9900012    2    1    2    0    0  0.31623559911E+01 -0.22651734166E+02 -0.22217554399E+02  0.59301932829E+02  0.49999979577E+02 0.  0.
         12    1    1    2    0    0 -0.31623559911E+01  0.22651734166E+02  0.22217554399E+02  0.31886067171E+02  0.00000000000E+00 0. -1.
         11    1    3    3    0    0 -0.16837991201E+02 -0.28667573125E+01  0.50564910874E+00  0.17087771254E+02  0.51100000000E-03 0. -1.
        -11    1    3    3    0    0  0.11834528942E+01 -0.80415521194E+01  0.26156254341E+01  0.85386543386E+01  0.51100000000E-03 0.  1.
        -12    1    3    3    0    0  0.18816894298E+02 -0.11743424734E+02 -0.25338828941E+02  0.33675507236E+02  0.00000000000E+00 0.  1.
</event>
<event>
 7    1  0.3223600E-013  0.5930198E+02  0.7816164E-02  0.1266605E+00
        -11   -1    0    0    0    0  0.00000000000E+00  0.00000000000E+00  0.45593999997E+02  0.45594000000E+02  0.51100000000E-03 0. -1.
         11   -1    0    0    0    0 -0.00000000000E+00 -0.00000000000E+00 -0.45593999997E+02  0.45594000000E+02  0.51100000000E-03 0.  1.
    9900012    2    1    2    0    0 -0.77289771860E+01  0.22387215514E+02 -0.21349332058E+02  0.59301976634E+02  0.50000059466E+02 0.  0.
         12    1    1    2    0    0  0.77289771860E+01 -0.22387215514E+02  0.21349332058E+02  0.31886023366E+02  0.00000000000E+00 0. -1.
         11    1    3    3    0    0 -0.22570349465E+00 -0.77295455986E+01  0.21015335439E+01  0.80133177103E+01  0.51100000000E-03 0. -1.
        -11    1    3    3    0    0  0.19923007703E+01  0.17139994427E+02  0.55519232891E+01  0.18126569553E+02  0.51100000000E-03 0.  1.
        -12    1    3    3    0    0 -0.94955744616E+01  0.12976766686E+02 -0.29002788891E+02  0.33162089370E+02  0.00000000000E+00 0.  1.
</event>
<event>
 7    1  0.3223600E-013  0.5930192E+02  0.7816164E-02  0.1266605E+00
        -11   -1    0    0    0    0  0.00000000000E+00  0.00000000000E+00  0.45593999997E+02  0.45594000000E+02  0.51100000000E-03 0.  1.
         11   -1    0    0    0    0 -0.00000000000E+00 -0.00000000000E+00 -0.45593999997E+02  0.45594000000E+02  0.51100000000E-03 0. -1.
    9900012    2    1    2    0    0  0.18333599364E+02  0.13608191621E+01  0.26052815514E+02  0.59301923248E+02  0.49999962103E+02 0.  0.
         12    1    1    2    0    0 -0.18333599364E+02 -0.13608191621E+01 -0.26052815514E+02  0.31886076752E+02  0.00000000000E+00 0. -1.
         11    1    3    3    0    0 -0.22210195447E+01  0.10700183307E+02  0.92856374629E+01  0.14340499084E+02  0.51100000000E-03 0. -1.
        -11    1    3    3    0    0  0.17886549846E+02 -0.11863981508E+02  0.26766198762E+02  0.34309067592E+02  0.51100000000E-03 0.  1.
         12    1    3    3    0    0  0.26680690631E+01  0.25246173635E+01 -0.99990207110E+01  0.10652356572E+02  0.00000000000E+00 0. -1.
</event>
<event>
 7    1  0.3223600E-013  0.5930195E+02  0.7816164E-02  0.1266605E+00
        -11   -1    0    0    0    0  0.00000000000E+00  0.00000000000E+00  0.45593999997E+02  0.45594000000E+02  0.51100000000E-03 0. -1.
         11   -1    0    0    0    0 -0.00000000000E+00 -0.00000000000E+00 -0.45593999997E+02  0.45594000000E+02  0.51100000000E-03 0.  1.
    9900012    2    1    2    0    0 -0.25173840991E+02 -0.19570282727E+02 -0.47078951312E-01  0.59301945796E+02  0.50000003225E+02 0.  0.
         12    1    1    2    0    0  0.25173840991E+02  0.19570282727E+02  0.47078951312E-01  0.31886054204E+02  0.00000000000E+00 0. -1.
         11    1    3    3    0    0 -0.19350374201E+02 -0.38573623377E+01 -0.12521540346E+02  0.23368893829E+02  0.51100000000E-03 0. -1.
        -11    1    3    3    0    0  0.11581141149E+02 -0.10078457461E+02  0.47010073694E+01  0.16056076908E+02  0.51100000000E-03 0.  1.
         12    1    3    3    0    0 -0.17404607940E+02 -0.56344629274E+01  0.77734540254E+01  0.19876975059E+02  0.00000000000E+00 0. -1.
</event>
<event>
 7    1  0.3223600E-013  0.5930195E+02  0.7816164E-02  0.1266605E+00
        -11   -1    0    0    0    0  0.00000000000E+00  0.00000000000E+00  0.45593999997E+02  0.45594000000E+02  0.51100000000E-03 0. -1.
         11   -1    0    0    0    0 -0.00000000000E+00 -0.00000000000E+00 -0.45593999997E+02  0.45594000000E+02  0.51100000000E-03 0.  1.
    9900012    2    1    2    0    0 -0.30581448309E+02  0.78761158816E+01 -0.44115720253E+01  0.59301950546E+02  0.50000011888E+02 0.  0.
         12    1    1    2    0    0  0.30581448309E+02 -0.78761158816E+01  0.44115720253E+01  0.31886049454E+02  0.00000000000E+00 0. -1.
         11    1    3    3    0    0 -0.15603267393E+02  0.25894680466E+01  0.16877309688E+01  0.15906468313E+02  0.51100000000E-03 0. -1.
        -11    1    3    3    0    0 -0.20515287461E+02 -0.10775249467E+02  0.41676361672E+01  0.23544685433E+02  0.51100000000E-03 0.  1.
         12    1    3    3    0    0  0.55371065452E+01  0.16061897302E+02 -0.10266939161E+02  0.19850796799E+02  0.00000000000E+00 0. -1.
</event>
<event>
 7    1  0.3223600E-013  0.5930189E+02  0.7816164E-02  0.1266605E+00
        -11   -1    0    0    0    0  0.00000000000E+00  0.00000000000E+00  0.45593999997E+02  0.45594000000E+02  0.51100000000E-03 0.  1.
         11   -1    0    0    0    0 -0.00000000000E+00 -0.00000000000E+00 -0.45593999997E+02  0.45594000000E+02  0.51100000000E-03 0. -1.
    9900012    2    1    2    0    0 -0.31692655776E+02 -0.33979258479E+00 -0.34905832853E+01  0.59301889218E+02  0.49999900040E+02 0.  0.
         12    1    1    2    0    0  0.31692655776E+02  0.33979258479E+00  0.34905832853E+01  0.31886110782E+02  0.00000000000E+00 0. -1.
         11    1    3    3    0    0  0.20195099276E+01 -0.21972806259E+01 -0.93950412481E+01  0.98576499639E+01  0.51100000000E-03 0. -1.
        -11    1    3    3    0    0 -0.14001460765E+02 -0.16437515573E+02 -0.12101784879E+01  0.21626311613E+02  0.51100000000E-03 0.  1.
        -12    1    3    3    0    0 -0.19710704938E+02  0.18295003614E+02  0.71146364507E+01  0.27817927641E+02  0.00000000000E+00 0.  1.
</event>
<event>
 7    1  0.3223600E-013  0.5930196E+02  0.7816164E-02  0.1266605E+00
        -11   -1    0    0    0    0  0.00000000000E+00  0.00000000000E+00  0.45593999997E+02  0.45594000000E+02  0.51100000000E-03 0.  1.
         11   -1    0    0    0    0 -0.00000000000E+00 -0.00000000000E+00 -0.45593999997E+02  0.45594000000E+02  0.51100000000E-03 0. -1.
    9900012    2    1    2    0    0 -0.25380063126E+02 -0.80971409542E+01  0.17521656620E+02  0.59301956869E+02  0.50000023419E+02 0.  0.
         12    1    1    2    0    0  0.25380063126E+02  0.80971409542E+01 -0.17521656620E+02  0.31886043131E+02  0.00000000000E+00 0. -1.
         11    1    3    3    0    0  0.10594302979E+01 -0.15756713415E+02 -0.19684526538E+01  0.15914497049E+02  0.51100000000E-03 0. -1.
        -11    1    3    3    0    0 -0.42381389143E+00 -0.27524550887E+01  0.14697099472E+02  0.14958621606E+02  0.51100000000E-03 0.  1.
         12    1    3    3    0    0 -0.26015679532E+02  0.10412027549E+02  0.47930098018E+01  0.28428838213E+02  0.00000000000E+00 0. -1.
</event>
<event>
 7    1  0.3223600E-013  0.5930188E+02  0.7816164E-02  0.1266605E+00
        -11   -1    0    0    0    0  0.00000000000E+00  0.00000000000E+00  0.45593999997E+02  0.45594000000E+02  0.51100000000E-03 0.  1.
         11   -1    0    0    0    0 -0.00000000000E+00 -0.00000000000E+00 -0.45593999997E+02  0.45594000000E+02  0.51100000000E-03 0. -1.
    9900012    2    1    2    0    0  0.10426938859E+02 -0.61813228988E+01  0.29492284428E+02  0.59301880018E+02  0.49999883261E+02 0.  0.
         12    1    1    2    0    0 -0.10426938859E+02  0.61813228988E+01 -0.29492284428E+02  0.31886119982E+02  0.00000000000E+00 0. -1.
         11    1    3    3    0    0  0.43708758817E+01 -0.15692935683E+02  0.12901017492E+02  0.20780015373E+02  0.51100000000E-03 0. -1.
        -11    1    3    3    0    0 -0.68206314443E+01 -0.94515096006E+01  0.75167216148E+01  0.13869143850E+02  0.51100000000E-03 0.  1.
         12    1    3    3    0    0  0.12876694421E+02  0.18963122385E+02  0.90745453214E+01  0.24652720795E+02  0.00000000000E+00 0. -1.
</event>
<event>
 7    1  0.3223600E-013  0.5930196E+02  0.7816164E-02  0.1266605E+00
        -11   -1    0    0    0    0  0.00000000000E+00  0.00000000000E+00  0.45593999997E+02  0.45594000000E+02  0.51100000000E-03 0. -1.
         11   -1    0    0    0    0 -0.00000000000E+00 -0.00000000000E+00 -0.45593999997E+02  0.45594000000E+02  0.51100000000E-03 0.  1.
    9900012    2    1    2    0    0 -0.27698778111E+01  0.13925100865E+02 -0.28550633370E+02  0.59301963510E+02  0.50000035532E+02 0.  0.
         12    1    1    2    0    0  0.27698778111E+01 -0.13925100865E+02  0.28550633370E+02  0.31886036490E+02  0.00000000000E+00 0. -1.
         11    1    3    3    0    0 -0.23154347050E+02  0.56744595793E+01 -0.10355146219E+02  0.25991389580E+02  0.51100000000E-03 0. -1.
        -11    1    3    3    0    0  0.63132947613E+01  0.11727870968E+02 -0.73928341398E+01  0.15233339919E+02  0.51100000000E-03 0.  1.
        -12    1    3    3    0    0  0.14071174478E+02 -0.34772296824E+01 -0.10802653011E+02  0.18077234012E+02  0.00000000000E+00 0.  1.
</event>
<event>
 7    1  0.3223600E-013  0.5930195E+02  0.7816164E-02  0.1266605E+00
        -11   -1    0    0    0    0  0.00000000000E+00  0.00000000000E+00  0.45593999997E+02  0.45594000000E+02  0.51100000000E-03 0.  1.
         11   -1    0    0    0    0 -0.00000000000E+00 -0.00000000000E+00 -0.45593999997E+02  0.45594000000E+02  0.51100000000E-03 0. -1.
    9900012    2    1    2    0    0 -0.18787468102E+02  0.80649077551E+01  0.24468524125E+02  0.59301947130E+02  0.50000005658E+02 0.  0.
         12    1    1    2    0    0  0.18787468102E+02 -0.80649077551E+01 -0.24468524125E+02  0.31886052870E+02  0.00000000000E+00 0. -1.
         11    1    3    3    0    0 -0.37425794825E+01  0.20411999632E+02  0.21025765887E+02  0.29542164131E+02  0.51100000000E-03 0. -1.
        -11    1    3    3    0    0 -0.81901804792E+01  0.17167552087E+01  0.97871901253E+01  0.12876932691E+02  0.51100000000E-03 0.  1.
         12    1    3    3    0    0 -0.68547081400E+01 -0.14063847086E+02 -0.63444318873E+01  0.16882850308E+02  0.00000000000E+00 0. -1.
</event>
<event>
 7    1  0.3223600E-013  0.5930195E+02  0.7816164E-02  0.1266605E+00
        -11   -1    0    0    0    0  0.00000000000E+00  0.00000000000E+00  0.45593999997E+02  0.45594000000E+02  0.51100000000E-03 0.  1.
         11   -1    0    0    0    0 -0.00000000000E+00 -0.00000000000E+00 -0.45593999997E+02  0.45594000000E+02  0.51100000000E-03 0. -1.
    9900012    2    1    2    0    0  0.73074684035E-01 -0.13595674632E+02  0.28842199578E+02  0.59301949992E+02  0.50000010878E+02 0.  0.
         12    1    1    2    0    0 -0.73074684035E-01  0.13595674632E+02 -0.28842199578E+02  0.31886050008E+02  0.00000000000E+00 0. -1.
         11    1    3    3    0    0  0.18297427535E+01 -0.12031996136E+02  0.19863065011E+02  0.23295026110E+02  0.51100000000E-03 0. -1.
        -11    1    3    3    0    0 -0.16663712930E+02 -0.70035303315E+01  0.88775475294E+01  0.20138014204E+02  0.51100000000E-03 0.  1.
         12    1    3    3    0    0  0.14907044860E+02  0.54398518354E+01  0.10158703757E+00  0.15868909678E+02  0.00000000000E+00 0. -1.
</event>
<event>
 7    1  0.3223600E-013  0.5930194E+02  0.7816164E-02  0.1266605E+00
        -11   -1    0    0    0    0  0.00000000000E+00  0.00000000000E+00  0.45593999997E+02  0.45594000000E+02  0.51100000000E-03 0.  1.
         11   -1    0    0    0    0 -0.00000000000E+00 -0.00000000000E+00 -0.45593999997E+02  0.45594000000E+02  0.51100000000E-03 0. -1.
    9900012    2    1    2    0    0  0.12931086250E+02 -0.11593231702E+02  0.26741446339E+02  0.59301937759E+02  0.49999988567E+02 0.  0.
         12    1    1    2    0    0 -0.12931086250E+02  0.11593231702E+02 -0.26741446339E+02  0.31886062241E+02  0.00000000000E+00 0. -1.
         11    1    3    3    0    0  0.23823752273E+02 -0.12482527687E+02  0.34534499979E+02  0.43772324120E+02  0.51100000000E-03 0.  1.
        -11    1    3    3    0    0 -0.23142881188E+01 -0.18646979778E+01 -0.54701084324E+01  0.62253605975E+01  0.51100000000E-03 0. -1.
        -12    1    3    3    0    0 -0.85783779045E+01  0.27539939628E+01 -0.23229452071E+01  0.93042530412E+01  0.00000000000E+00 0.  1.
</event>
<event>
 7    1  0.3223600E-013  0.5930206E+02  0.7816164E-02  0.1266604E+00
        -11   -1    0    0    0    0  0.00000000000E+00  0.00000000000E+00  0.45593999997E+02  0.45594000000E+02  0.51100000000E-03 0. -1.
         11   -1    0    0    0    0 -0.00000000000E+00 -0.00000000000E+00 -0.45593999997E+02  0.45594000000E+02  0.51100000000E-03 0.  1.
    9900012    2    1    2    0    0 -0.30250339953E+02 -0.97223983494E+01  0.26654887578E+01  0.59302063802E+02  0.50000218438E+02 0.  0.
         12    1    1    2    0    0  0.30250339953E+02  0.97223983494E+01 -0.26654887578E+01  0.31885936198E+02  0.00000000000E+00 0. -1.
         11    1    3    3    0    0 -0.14465518600E+01  0.96506347687E+01 -0.25719193923E+01  0.10091681393E+02  0.51100000000E-03 0. -1.
        -11    1    3    3    0    0 -0.24094857096E+02  0.40572534481E+01  0.64818918872E+01  0.25279208190E+02  0.51100000000E-03 0.  1.
        -12    1    3    3    0    0 -0.47089309974E+01 -0.23430286566E+02 -0.12444837371E+01  0.23931174219E+02  0.00000000000E+00 0.  1.
</event>
<event>
 7    1  0.3223600E-013  0.5930192E+02  0.7816164E-02  0.1266605E+00
        -11   -1    0    0    0    0  0.00000000000E+00  0.00000000000E+00  0.45593999997E+02  0.45594000000E+02  0.51100000000E-03 0.  1.
         11   -1    0    0    0    0 -0.00000000000E+00 -0.00000000000E+00 -0.45593999997E+02  0.45594000000E+02  0.51100000000E-03 0. -1.
    9900012    2    1    2    0    0 -0.19088489219E+00 -0.10683154313E+02  0.30042567581E+02  0.59301920122E+02  0.49999956402E+02 0.  0.
         12    1    1    2    0    0  0.19088489219E+00  0.10683154313E+02 -0.30042567581E+02  0.31886079878E+02  0.00000000000E+00 0. -1.
         11    1    3    3    0    0 -0.21868778159E+01  0.87643971026E+01 -0.40803692740E+00  0.90423219114E+01  0.51100000000E-03 0.  1.
        -11    1    3    3    0    0  0.24230448878E+01 -0.25339558674E+02  0.34661858008E+02  0.43004753006E+02  0.51100000000E-03 0. -1.
         12    1    3    3    0    0 -0.42705196412E+00  0.58920072582E+01 -0.42112534994E+01  0.72548452049E+01  0.00000000000E+00 0. -1.
</event>
<event>
 7    1  0.3223600E-013  0.5930190E+02  0.7816164E-02  0.1266605E+00
        -11   -1    0    0    0    0  0.00000000000E+00  0.00000000000E+00  0.45593999997E+02  0.45594000000E+02  0.51100000000E-03 0.  1.
         11   -1    0    0    0    0 -0.00000000000E+00 -0.00000000000E+00 -0.45593999997E+02  0.45594000000E+02  0.51100000000E-03 0. -1.
    9900012    2    1    2    0    0  0.19754122172E+02  0.93278394158E+01  0.23226905455E+02  0.59301904787E+02  0.49999928434E+02 0.  0.
         12    1    1    2    0    0 -0.19754122172E+02 -0.93278394158E+01 -0.23226905455E+02  0.31886095213E+02  0.00000000000E+00 0. -1.
         11    1    3    3    0    0  0.27281415633E+00 -0.49904403980E+01  0.15291411080E+02  0.16087453994E+02  0.51100000000E-03 0. -1.
        -11    1    3    3    0    0  0.91117977103E+01 -0.10566102905E+02 -0.27406418986E+01  0.14218948849E+02  0.51100000000E-03 0.  1.
         12    1    3    3    0    0  0.10369510305E+02  0.24884382718E+02  0.10676136273E+02  0.28995501944E+02  0.00000000000E+00 0. -1.
</event>
<event>
 7    1  0.3223600E-013  0.5930199E+02  0.7816164E-02  0.1266605E+00
        -11   -1    0    0    0    0  0.00000000000E+00  0.00000000000E+00  0.45593999997E+02  0.45594000000E+02  0.51100000000E-03 0. -1.
         11   -1    0    0    0    0 -0.00000000000E+00 -0.00000000000E+00 -0.45593999997E+02  0.45594000000E+02  0.51100000000E-03 0.  1.
    9900012    2    1    2    0    0  0.15533122997E+02 -0.26922386877E+02  0.71151277062E+01  0.59301986334E+02  0.50000077157E+02 0.  0.
         12    1    1    2    0    0 -0.15533122997E+02  0.26922386877E+02 -0.71151277062E+01  0.31886013666E+02  0.00000000000E+00 0. -1.
         11    1    3    3    0    0 -0.15444486649E+02 -0.54488643261E+01 -0.20722477594E+01  0.16508073823E+02  0.51100000000E-03 0. -1.
        -11    1    3    3    0    0  0.71998878222E+01 -0.10397407975E+02  0.10633478983E+02  0.16523176232E+02  0.51100000000E-03 0.  1.
        -12    1    3    3    0    0  0.23777721824E+02 -0.11076114577E+02 -0.14461035177E+01  0.26270736279E+02  0.00000000000E+00 0.  1.
</event>
<event>
 7    1  0.3223600E-013  0.5930193E+02  0.7816164E-02  0.1266605E+00
        -11   -1    0    0    0    0  0.00000000000E+00  0.00000000000E+00  0.45593999997E+02  0.45594000000E+02  0.51100000000E-03 0. -1.
         11   -1    0    0    0    0 -0.00000000000E+00 -0.00000000000E+00 -0.45593999997E+02  0.45594000000E+02  0.51100000000E-03 0.  1.
    9900012    2    1    2    0    0 -0.30424004386E+02  0.36371238753E+01 -0.88245383107E+01  0.59301934244E+02  0.49999982158E+02 0.  0.
         12    1    1    2    0    0  0.30424004386E+02 -0.36371238753E+01  0.88245383107E+01  0.31886065756E+02  0.00000000000E+00 0. -1.
         11    1    3    3    0    0  0.35262269011E+01 -0.35527314498E+01 -0.25633735476E+00  0.50121737812E+01  0.51100000000E-03 0. -1.
        -11    1    3    3    0    0  0.80559415219E+01  0.56347269383E-01 -0.84598378545E+01  0.11682047150E+02  0.51100000000E-03 0.  1.
        -12    1    3    3    0    0 -0.42006172809E+02  0.71335080557E+01 -0.10836310146E+00  0.42607713314E+02  0.00000000000E+00 0.  1.
</event>
<event>
 7    1  0.3223600E-013  0.5930194E+02  0.7816164E-02  0.1266605E+00
        -11   -1    0    0    0    0  0.00000000000E+00  0.00000000000E+00  0.45593999997E+02  0.45594000000E+02  0.51100000000E-03 0. -1.
         11   -1    0    0    0    0 -0.00000000000E+00 -0.00000000000E+00 -0.45593999997E+02  0.45594000000E+02  0.51100000000E-03 0.  1.
    9900012    2    1    2    0    0  0.31358579861E+02  0.57446730907E+01  0.59930681307E+00  0.59301937709E+02  0.49999988476E+02 0.  0.
         12    1    1    2    0    0 -0.31358579861E+02 -0.57446730907E+01 -0.59930681307E+00  0.31886062291E+02  0.00000000000E+00 0. -1.
         11    1    3    3    0    0 -0.44429697633E+01  0.11886315810E+02 -0.14280766728E+00  0.12690345864E+02  0.51100000000E-03 0. -1.
        -11    1    3    3    0    0  0.97029029053E+01 -0.15569408438E+02 -0.30740444226E+01  0.18601143870E+02  0.51100000000E-03 0.  1.
         12    1    3    3    0    0  0.26098646719E+02  0.94277657191E+01  0.38161589030E+01  0.28010447975E+02  0.00000000000E+00 0. -1.
</event>
<event>
 7    1  0.3223600E-013  0.5930197E+02  0.7816164E-02  0.1266605E+00
        -11   -1    0    0    0    0  0.00000000000E+00  0.00000000000E+00  0.45593999997E+02  0.45594000000E+02  0.51100000000E-03 0.  1.
         11   -1    0    0    0    0 -0.00000000000E+00 -0.00000000000E+00 -0.45593999997E+02  0.45594000000E+02  0.51100000000E-03 0. -1.
    9900012    2    1    2    0    0 -0.13574027854E+02  0.21888295360E+02  0.18798055464E+02  0.59301974924E+02  0.50000056347E+02 0.  0.
         12    1    1    2    0    0  0.13574027854E+02 -0.21888295360E+02 -0.18798055464E+02  0.31886025076E+02  0.00000000000E+00 0. -1.
         11    1    3    3    0    0 -0.11891562536E+02  0.25804828185E+02  0.85324236708E+01  0.29666490712E+02  0.51100000000E-03 0.  1.
        -11    1    3    3    0    0  0.15239100410E+01  0.31563270473E+00  0.19188950683E+02  0.19251954560E+02  0.51100000000E-03 0. -1.
         12    1    3    3    0    0 -0.32063753594E+01 -0.42321655298E+01 -0.89233188899E+01  0.10383529652E+02  0.00000000000E+00 0. -1.
</event>
<event>
 7    1  0.3223600E-013  0.5930194E+02  0.7816164E-02  0.1266605E+00
        -11   -1    0    0    0    0  0.00000000000E+00  0.00000000000E+00  0.45593999997E+02  0.45594000000E+02  0.51100000000E-03 0.  1.
         11   -1    0    0    0    0 -0.00000000000E+00 -0.00000000000E+00 -0.45593999997E+02  0.45594000000E+02  0.51100000000E-03 0. -1.
    9900012    2    1    2    0    0 -0.15666113821E+02  0.10771200576E+02  0.25598337365E+02  0.59301940978E+02  0.49999994437E+02 0.  0.
         12    1    1    2    0    0  0.15666113821E+02 -0.10771200576E+02 -0.25598337365E+02  0.31886059022E+02  0.00000000000E+00 0. -1.
         11    1    3    3    0    0 -0.24950384271E+02  0.23592748534E+02  0.12649451030E+02  0.36594372112E+02  0.51100000000E-03 0. -1.
        -11    1    3    3    0    0  0.25080932240E+01  0.14037486652E+01  0.16033857860E+01  0.32911834004E+01  0.51100000000E-03 0.  1.
        -12    1    3    3    0    0  0.67761772256E+01 -0.14225296623E+02  0.11345500549E+02  0.19416385465E+02  0.00000000000E+00 0.  1.
</event>
<event>
 7    1  0.3223600E-013  0.5930191E+02  0.7816164E-02  0.1266605E+00
        -11   -1    0    0    0    0  0.00000000000E+00  0.00000000000E+00  0.45593999997E+02  0.45594000000E+02  0.51100000000E-03 0. -1.
         11   -1    0    0    0    0 -0.00000000000E+00 -0.00000000000E+00 -0.45593999997E+02  0.45594000000E+02  0.51100000000E-03 0.  1.
    9900012    2    1    2    0    0  0.19674799572E+02  0.14263313510E+02 -0.20644193120E+02  0.59301912750E+02  0.49999942958E+02 0.  0.
         12    1    1    2    0    0 -0.19674799572E+02 -0.14263313510E+02  0.20644193120E+02  0.31886087250E+02  0.00000000000E+00 0. -1.
         11    1    3    3    0    0 -0.10541979280E+02  0.16778363499E+01 -0.88987793551E+01  0.13897364363E+02  0.51100000000E-03 0. -1.
        -11    1    3    3    0    0  0.14862262512E+02  0.78433995441E+01 -0.20971788561E+02  0.26874182389E+02  0.51100000000E-03 0.  1.
         12    1    3    3    0    0  0.15354516341E+02  0.47420776165E+01  0.92263747957E+01  0.18530365999E+02  0.00000000000E+00 0. -1.
</event>
<event>
 7    1  0.3223600E-013  0.5930195E+02  0.7816164E-02  0.1266605E+00
        -11   -1    0    0    0    0  0.00000000000E+00  0.00000000000E+00  0.45593999997E+02  0.45594000000E+02  0.51100000000E-03 0.  1.
         11   -1    0    0    0    0 -0.00000000000E+00 -0.00000000000E+00 -0.45593999997E+02  0.45594000000E+02  0.51100000000E-03 0. -1.
    9900012    2    1    2    0    0  0.24294587687E+02 -0.19680395158E+02  0.62589975898E+01  0.59301952969E+02  0.50000016307E+02 0.  0.
         12    1    1    2    0    0 -0.24294587687E+02  0.19680395158E+02 -0.62589975898E+01  0.31886047031E+02  0.00000000000E+00 0. -1.
         11    1    3    3    0    0  0.22068110553E+01 -0.13288175419E+02 -0.59768291132E+01  0.14736624699E+02  0.51100000000E-03 0. -1.
        -11    1    3    3    0    0  0.18757236943E+02 -0.20423326585E+02  0.11804545209E+02  0.30137907930E+02  0.51100000000E-03 0.  1.
         12    1    3    3    0    0  0.33305396885E+01  0.14031106846E+02  0.43128149399E+00  0.14427420340E+02  0.00000000000E+00 0. -1.
</event>
<event>
 7    1  0.3223600E-013  0.5930191E+02  0.7816164E-02  0.1266605E+00
        -11   -1    0    0    0    0  0.00000000000E+00  0.00000000000E+00  0.45593999997E+02  0.45594000000E+02  0.51100000000E-03 0. -1.
         11   -1    0    0    0    0 -0.00000000000E+00 -0.00000000000E+00 -0.45593999997E+02  0.45594000000E+02  0.51100000000E-03 0.  1.
    9900012    2    1    2    0    0 -0.28991244942E+02 -0.33472580403E+01 -0.12846261732E+02  0.59301908045E+02  0.49999934375E+02 0.  0.
         12    1    1    2    0    0  0.28991244942E+02  0.33472580403E+01  0.12846261732E+02  0.31886091955E+02  0.00000000000E+00 0. -1.
         11    1    3    3    0    0 -0.22478490635E+02 -0.19942435719E+02 -0.12321070805E+02  0.32477562558E+02  0.51100000000E-03 0. -1.
        -11    1    3    3    0    0  0.17827665237E+01  0.50764102778E+01  0.84590189275E+01  0.10025128391E+02  0.51100000000E-03 0.  1.
        -12    1    3    3    0    0 -0.82955208315E+01  0.11518767401E+02 -0.89842098548E+01  0.16799217096E+02  0.00000000000E+00 0.  1.
</event>
<event>
 7    1  0.3223600E-013  0.5930194E+02  0.7816164E-02  0.1266605E+00
        -11   -1    0    0    0    0  0.00000000000E+00  0.00000000000E+00  0.45593999997E+02  0.45594000000E+02  0.51100000000E-03 0.  1.
         11   -1    0    0    0    0 -0.00000000000E+00 -0.00000000000E+00 -0.45593999997E+02  0.45594000000E+02  0.51100000000E-03 0. -1.
    9900012    2    1    2    0    0 -0.19741177405E+02  0.26196029153E+01  0.24902693928E+02  0.59301943962E+02  0.49999999881E+02 0.  0.
         12    1    1    2    0    0  0.19741177405E+02 -0.26196029153E+01 -0.24902693928E+02  0.31886056038E+02  0.00000000000E+00 0. -1.
         11    1    3    3    0    0  0.34889737921E+01 -0.13405979305E+02  0.18384223287E+02  0.23018967948E+02  0.51100000000E-03 0. -1.
        -11    1    3    3    0    0 -0.16625530801E+02  0.44897892819E+01  0.12920265436E+02  0.21529044136E+02  0.51100000000E-03 0.  1.
         12    1    3    3    0    0 -0.66046203956E+01  0.11535792938E+02 -0.64017947945E+01  0.14753931879E+02  0.00000000000E+00 0. -1.
</event>
<event>
 7    1  0.3223600E-013  0.5930195E+02  0.7816164E-02  0.1266605E+00
        -11   -1    0    0    0    0  0.00000000000E+00  0.00000000000E+00  0.45593999997E+02  0.45594000000E+02  0.51100000000E-03 0.  1.
         11   -1    0    0    0    0 -0.00000000000E+00 -0.00000000000E+00 -0.45593999997E+02  0.45594000000E+02  0.51100000000E-03 0. -1.
    9900012    2    1    2    0    0 -0.83109361459E+01  0.30037766227E+02 -0.67365511159E+01  0.59301950065E+02  0.50000011011E+02 0.  0.
         12    1    1    2    0    0  0.83109361459E+01 -0.30037766227E+02  0.67365511159E+01  0.31886049935E+02  0.00000000000E+00 0. -1.
         11    1    3    3    0    0 -0.56029260819E+01  0.24479367954E+02 -0.13012346912E+02  0.28283447607E+02  0.51100000000E-03 0. -1.
        -11    1    3    3    0    0  0.18348204875E+01  0.13718957728E+02  0.13405255851E+02  0.19268556045E+02  0.51100000000E-03 0.  1.
        -12    1    3    3    0    0 -0.45428305515E+01 -0.81605594550E+01 -0.71294600550E+01  0.11749946413E+02  0.00000000000E+00 0.  1.
</event>
<event>
 7    1  0.3223600E-013  0.5930187E+02  0.7816164E-02  0.1266605E+00
        -11   -1    0    0    0    0  0.00000000000E+00  0.00000000000E+00  0.45593999997E+02  0.45594000000E+02  0.51100000000E-03 0.  1.
         11   -1    0    0    0    0 -0.00000000000E+00 -0.00000000000E+00 -0.45593999997E+02  0.45594000000E+02  0.51100000000E-03 0. -1.
    9900012    2    1    2    0    0 -0.24933862429E+02 -0.82418913729E+01  0.18085879236E+02  0.59301869837E+02  0.49999864694E+02 0.  0.
         12    1    1    2    0    0  0.24933862429E+02  0.82418913729E+01 -0.18085879236E+02  0.31886130163E+02  0.00000000000E+00 0. -1.
         11    1    3    3    0    0 -0.70203173802E+01  0.44418705313E+00 -0.51104416208E+01  0.86947554351E+01  0.51100000000E-03 0. -1.
        -11    1    3    3    0    0 -0.24344979676E+02 -0.19650851750E+02  0.11499648787E+02  0.33332805648E+02  0.51100000000E-03 0.  1.
         12    1    3    3    0    0  0.64314346268E+01  0.10964773324E+02  0.11696672070E+02  0.17274308754E+02  0.00000000000E+00 0. -1.
</event>
<event>
 7    1  0.3223600E-013  0.5930196E+02  0.7816164E-02  0.1266605E+00
        -11   -1    0    0    0    0  0.00000000000E+00  0.00000000000E+00  0.45593999997E+02  0.45594000000E+02  0.51100000000E-03 0.  1.
         11   -1    0    0    0    0 -0.00000000000E+00 -0.00000000000E+00 -0.45593999997E+02  0.45594000000E+02  0.51100000000E-03 0. -1.
    9900012    2    1    2    0    0  0.23708654630E+02  0.17125975823E+02  0.12701177233E+02  0.59301964571E+02  0.50000037466E+02 0.  0.
         12    1    1    2    0    0 -0.23708654630E+02 -0.17125975823E+02 -0.12701177233E+02  0.31886035429E+02  0.00000000000E+00 0. -1.
         11    1    3    3    0    0  0.12975451086E+02 -0.76081585623E+01  0.26486882673E+01  0.15272915812E+02  0.51100000000E-03 0. -1.
        -11    1    3    3    0    0  0.15121810424E+02 -0.22172717720E+01  0.12304984814E+01  0.15332957034E+02  0.51100000000E-03 0.  1.
         12    1    3    3    0    0 -0.43886068808E+01  0.26951406157E+02  0.88219904844E+01  0.28696091726E+02  0.00000000000E+00 0. -1.
</event>
<event>
 7    1  0.3223600E-013  0.5930196E+02  0.7816164E-02  0.1266605E+00
        -11   -1    0    0    0    0  0.00000000000E+00  0.00000000000E+00  0.45593999997E+02  0.45594000000E+02  0.51100000000E-03 0.  1.
         11   -1    0    0    0    0 -0.00000000000E+00 -0.00000000000E+00 -0.45593999997E+02  0.45594000000E+02  0.51100000000E-03 0. -1.
    9900012    2    1    2    0    0 -0.27478035953E+02 -0.15975011043E+02  0.25448826471E+01  0.59301955006E+02  0.50000020021E+02 0.  0.
         12    1    1    2    0    0  0.27478035953E+02  0.15975011043E+02 -0.25448826471E+01  0.31886044994E+02  0.00000000000E+00 0. -1.
         11    1    3    3    0    0  0.15824031201E+01  0.89489504400E+01 -0.29281832871E+01  0.95478778394E+01  0.51100000000E-03 0. -1.
        -11    1    3    3    0    0  0.32828546971E+01 -0.14872576677E+02 -0.10335057216E+01  0.15265608613E+02  0.51100000000E-03 0.  1.
        -12    1    3    3    0    0 -0.32343293771E+02 -0.10051384806E+02  0.65065716558E+01  0.34488468553E+02  0.00000000000E+00 0.  1.
</event>
<event>
 7    1  0.3223600E-013  0.5930196E+02  0.7816164E-02  0.1266605E+00
        -11   -1    0    0    0    0  0.00000000000E+00  0.00000000000E+00  0.45593999997E+02  0.45594000000E+02  0.51100000000E-03 0.  1.
         11   -1    0    0    0    0 -0.00000000000E+00 -0.00000000000E+00 -0.45593999997E+02  0.45594000000E+02  0.51100000000E-03 0. -1.
    9900012    2    1    2    0    0 -0.26307919537E+02  0.58842225586E+01  0.17029064193E+02  0.59301957085E+02  0.50000023813E+02 0.  0.
         12    1    1    2    0    0  0.26307919537E+02 -0.58842225586E+01 -0.17029064193E+02  0.31886042915E+02  0.00000000000E+00 0. -1.
         11    1    3    3    0    0  0.10469975327E+02  0.12261305283E+01  0.97802885095E+01  0.14379771313E+02  0.51100000000E-03 0. -1.
        -11    1    3    3    0    0 -0.39330090533E+01  0.99569511718E+01  0.42478794424E+01  0.11517548214E+02  0.51100000000E-03 0.  1.
        -12    1    3    3    0    0 -0.32844885811E+02 -0.52988591414E+01  0.30008962413E+01  0.33404637558E+02  0.00000000000E+00 0.  1.
</event>
<event>
 7    1  0.3223600E-013  0.5930197E+02  0.7816164E-02  0.1266605E+00
        -11   -1    0    0    0    0  0.00000000000E+00  0.00000000000E+00  0.45593999997E+02  0.45594000000E+02  0.51100000000E-03 0.  1.
         11   -1    0    0    0    0 -0.00000000000E+00 -0.00000000000E+00 -0.45593999997E+02  0.45594000000E+02  0.51100000000E-03 0. -1.
    9900012    2    1    2    0    0 -0.50938713703E+01  0.93588947164E+01  0.30052995452E+02  0.59301969023E+02  0.50000045585E+02 0.  0.
         12    1    1    2    0    0  0.50938713703E+01 -0.93588947164E+01 -0.30052995452E+02  0.31886030977E+02  0.00000000000E+00 0. -1.
         11    1    3    3    0    0 -0.84626878196E+00 -0.75391130649E+01  0.10533037155E+02  0.12980726815E+02  0.51100000000E-03 0. -1.
        -11    1    3    3    0    0 -0.17353922834E+02  0.13493834157E+02  0.23527813559E+02  0.32199382123E+02  0.51100000000E-03 0.  1.
         12    1    3    3    0    0  0.13106320246E+02  0.34041736239E+01 -0.40078552621E+01  0.14121860085E+02  0.00000000000E+00 0. -1.
</event>
<event>
 7    1  0.3223600E-013  0.5930194E+02  0.7816164E-02  0.1266605E+00
        -11   -1    0    0    0    0  0.00000000000E+00  0.00000000000E+00  0.45593999997E+02  0.45594000000E+02  0.51100000000E-03 0. -1.
         11   -1    0    0    0    0 -0.00000000000E+00 -0.00000000000E+00 -0.45593999997E+02  0.45594000000E+02  0.51100000000E-03 0.  1.
    9900012    2    1    2    0    0 -0.67099017501E+01  0.56739976168E+01 -0.30651324905E+02  0.59301941152E+02  0.49999994755E+02 0.  0.
         12    1    1    2    0    0  0.67099017501E+01 -0.56739976168E+01  0.30651324905E+02  0.31886058848E+02  0.00000000000E+00 0. -1.
         11    1    3    3    0    0 -0.35307647949E+01 -0.27545961154E+00 -0.47251577427E+01  0.59050227764E+01  0.51100000000E-03 0. -1.
        -11    1    3    3    0    0 -0.63426148157E+01  0.25243351167E+02 -0.20427672380E+02  0.33086936092E+02  0.51100000000E-03 0.  1.
         12    1    3    3    0    0  0.31634778605E+01 -0.19293893939E+02 -0.54984947818E+01  0.20309982283E+02  0.00000000000E+00 0. -1.
</event>
<event>
 7    1  0.3223600E-013  0.5930185E+02  0.7816164E-02  0.1266605E+00
        -11   -1    0    0    0    0  0.00000000000E+00  0.00000000000E+00  0.45593999997E+02  0.45594000000E+02  0.51100000000E-03 0. -1.
         11   -1    0    0    0    0 -0.00000000000E+00 -0.00000000000E+00 -0.45593999997E+02  0.45594000000E+02  0.51100000000E-03 0.  1.
    9900012    2    1    2    0    0  0.30601039196E+02  0.31429418425E+01 -0.83919694975E+01  0.59301845711E+02  0.49999820693E+02 0.  0.
         12    1    1    2    0    0 -0.30601039196E+02 -0.31429418425E+01  0.83919694975E+01  0.31886154289E+02  0.00000000000E+00 0. -1.
         11    1    3    3    0    0  0.31513462821E+01 -0.25406536061E+01 -0.15786177866E+02  0.16296911241E+02  0.51100000000E-03 0. -1.
        -11    1    3    3    0    0  0.46228738330E+01  0.52615422274E+01 -0.11436252026E+02  0.13410542485E+02  0.51100000000E-03 0.  1.
        -12    1    3    3    0    0  0.22826819081E+02  0.42205322114E+00  0.18830460394E+02  0.29594391984E+02  0.00000000000E+00 0.  1.
</event>
<event>
 7    1  0.3223600E-013  0.5930197E+02  0.7816164E-02  0.1266605E+00
        -11   -1    0    0    0    0  0.00000000000E+00  0.00000000000E+00  0.45593999997E+02  0.45594000000E+02  0.51100000000E-03 0.  1.
         11   -1    0    0    0    0 -0.00000000000E+00 -0.00000000000E+00 -0.45593999997E+02  0.45594000000E+02  0.51100000000E-03 0. -1.
    9900012    2    1    2    0    0 -0.19958586086E+02 -0.21056246355E+02  0.13229076564E+02  0.59301966445E+02  0.50000040885E+02 0.  0.
         12    1    1    2    0    0  0.19958586086E+02  0.21056246355E+02 -0.13229076564E+02  0.31886033555E+02  0.00000000000E+00 0. -1.
         11    1    3    3    0    0  0.78657709303E+01 -0.21482707018E+02  0.49992705713E+01  0.23417296164E+02  0.51100000000E-03 0. -1.
        -11    1    3    3    0    0 -0.86535890969E+01 -0.28162131993E+01 -0.67581694923E+01  0.11335277508E+02  0.51100000000E-03 0.  1.
        -12    1    3    3    0    0 -0.19170767919E+02  0.32426738620E+01  0.14987975485E+02  0.24549392773E+02  0.00000000000E+00 0.  1.
</event>
<event>
 7    1  0.3223600E-013  0.5930190E+02  0.7816164E-02  0.1266605E+00
        -11   -1    0    0    0    0  0.00000000000E+00  0.00000000000E+00  0.45593999997E+02  0.45594000000E+02  0.51100000000E-03 0. -1.
         11   -1    0    0    0    0 -0.00000000000E+00 -0.00000000000E+00 -0.45593999997E+02  0.45594000000E+02  0.51100000000E-03 0.  1.
    9900012    2    1    2    0    0 -0.20017528194E+02 -0.79628724670E+00 -0.24807014050E+02  0.59301898726E+02  0.49999917380E+02 0.  0.
         12    1    1    2    0    0  0.20017528194E+02  0.79628724670E+00  0.24807014050E+02  0.31886101274E+02  0.00000000000E+00 0. -1.
         11    1    3    3    0    0 -0.14816061815E+02 -0.74576048579E+01  0.72638769808E+01  0.18107884111E+02  0.51100000000E-03 0. -1.
        -11    1    3    3    0    0  0.86635253842E+01  0.72682744979E+01 -0.98585402161E+01  0.15002509847E+02  0.51100000000E-03 0.  1.
        -12    1    3    3    0    0 -0.13864991764E+02 -0.60695688663E+00 -0.22212350815E+02  0.26191504768E+02  0.00000000000E+00 0.  1.
</event>
<event>
 7    1  0.3223600E-013  0.5930190E+02  0.7816164E-02  0.1266605E+00
        -11   -1    0    0    0    0  0.00000000000E+00  0.00000000000E+00  0.45593999997E+02  0.45594000000E+02  0.51100000000E-03 0.  1.
         11   -1    0    0    0    0 -0.00000000000E+00 -0.00000000000E+00 -0.45593999997E+02  0.45594000000E+02  0.51100000000E-03 0. -1.
    9900012    2    1    2    0    0  0.29096006153E+02 -0.34563445126E+01  0.12577743445E+02  0.59301897673E+02  0.49999915461E+02 0.  0.
         12    1    1    2    0    0 -0.29096006153E+02  0.34563445126E+01 -0.12577743445E+02  0.31886102327E+02  0.00000000000E+00 0. -1.
         11    1    3    3    0    0  0.18805519701E+02  0.13124605376E+02  0.26058750191E+01  0.23080152131E+02  0.51100000000E-03 0.  1.
        -11    1    3    3    0    0  0.10184610977E+01 -0.97529549832E+01 -0.94658299784E+01  0.13629355500E+02  0.51100000000E-03 0. -1.
        -12    1    3    3    0    0  0.92720253540E+01 -0.68279949052E+01  0.19437698404E+02  0.22592390043E+02  0.00000000000E+00 0.  1.
</event>
<event>
 7    1  0.3223600E-013  0.5930198E+02  0.7816164E-02  0.1266605E+00
        -11   -1    0    0    0    0  0.00000000000E+00  0.00000000000E+00  0.45593999997E+02  0.45594000000E+02  0.51100000000E-03 0.  1.
         11   -1    0    0    0    0 -0.00000000000E+00 -0.00000000000E+00 -0.45593999997E+02  0.45594000000E+02  0.51100000000E-03 0. -1.
    9900012    2    1    2    0    0 -0.99561369532E+01  0.36672859051E+01  0.30069001710E+02  0.59301976215E+02  0.50000058703E+02 0.  0.
         12    1    1    2    0    0  0.99561369532E+01 -0.36672859051E+01 -0.30069001710E+02  0.31886023785E+02  0.00000000000E+00 0. -1.
         11    1    3    3    0    0  0.15120922462E+00  0.16065036528E+02 -0.86017418157E+00  0.16088758895E+02  0.51100000000E-03 0. -1.
        -11    1    3    3    0    0  0.18575781563E+01 -0.13508153866E+01 -0.40348653671E+01  0.46427833901E+01  0.51100000000E-03 0.  1.
        -12    1    3    3    0    0 -0.11964924334E+02 -0.11046935237E+02  0.34964041259E+02  0.38570433931E+02  0.00000000000E+00 0.  1.
</event>
<event>
 7    1  0.3223600E-013  0.5930192E+02  0.7816164E-02  0.1266605E+00
        -11   -1    0    0    0    0  0.00000000000E+00  0.00000000000E+00  0.45593999997E+02  0.45594000000E+02  0.51100000000E-03 0.  1.
         11   -1    0    0    0    0 -0.00000000000E+00 -0.00000000000E+00 -0.45593999997E+02  0.45594000000E+02  0.51100000000E-03 0. -1.
    9900012    2    1    2    0    0 -0.60928764073E+00  0.29836358969E+02  0.11231322860E+02  0.59301919007E+02  0.49999954368E+02 0.  0.
         12    1    1    2    0    0  0.60928764073E+00 -0.29836358969E+02 -0.11231322860E+02  0.31886080993E+02  0.00000000000E+00 0. -1.
         11    1    3    3    0    0 -0.56229177202E+01  0.85663146385E+01  0.25633428760E+02  0.27605644720E+02  0.51100000000E-03 0. -1.
        -11    1    3    3    0    0  0.25824363739E+01  0.17814520431E+02 -0.14345838537E+01  0.18057800168E+02  0.51100000000E-03 0.  1.
        -12    1    3    3    0    0  0.24311937057E+01  0.34555238987E+01 -0.12967522046E+02  0.13638474118E+02  0.00000000000E+00 0.  1.
</event>
<event>
 7    1  0.3223600E-013  0.5930193E+02  0.7816164E-02  0.1266605E+00
        -11   -1    0    0    0    0  0.00000000000E+00  0.00000000000E+00  0.45593999997E+02  0.45594000000E+02  0.51100000000E-03 0.  1.
         11   -1    0    0    0    0 -0.00000000000E+00 -0.00000000000E+00 -0.45593999997E+02  0.45594000000E+02  0.51100000000E-03 0. -1.
    9900012    2    1    2    0    0  0.12019769901E+02 -0.26199342559E+02  0.13632354984E+02  0.59301929038E+02  0.49999972662E+02 0.  0.
         12    1    1    2    0    0 -0.12019769901E+02  0.26199342559E+02 -0.13632354984E+02  0.31886070962E+02  0.00000000000E+00 0. -1.
         11    1    3    3    0    0 -0.66863582615E+01  0.16839498373E+01 -0.42977433773E+00  0.69085295178E+01  0.51100000000E-03 0. -1.
        -11    1    3    3    0    0 -0.93259456713E+01 -0.15673686223E+02 -0.10866907673E+01  0.18270703313E+02  0.51100000000E-03 0.  1.
         12    1    3    3    0    0  0.28032073834E+02 -0.12209606173E+02  0.15148820089E+02  0.34122696207E+02  0.00000000000E+00 0. -1.
</event>
<event>
 7    1  0.3223600E-013  0.5930208E+02  0.7816164E-02  0.1266604E+00
        -11   -1    0    0    0    0  0.00000000000E+00  0.00000000000E+00  0.45593999997E+02  0.45594000000E+02  0.51100000000E-03 0.  1.
         11   -1    0    0    0    0 -0.00000000000E+00 -0.00000000000E+00 -0.45593999997E+02  0.45594000000E+02  0.51100000000E-03 0. -1.
    9900012    2    1    2    0    0 -0.51718380940E-01 -0.43772155653E+01  0.31584000228E+02  0.59302082085E+02  0.50000251783E+02 0.  0.
         12    1    1    2    0    0  0.51718380940E-01  0.43772155653E+01 -0.31584000228E+02  0.31885917915E+02  0.00000000000E+00 0. -1.
         11    1    3    3    0    0  0.91465904119E+01 -0.54310877203E+01  0.82746572262E+01  0.13476898102E+02  0.51100000000E-03 0. -1.
        -11    1    3    3    0    0  0.50535875046E+01  0.15560992481E+02  0.18933559373E+02  0.25023247280E+02  0.51100000000E-03 0.  1.
        -12    1    3    3    0    0 -0.14251896297E+02 -0.14507120326E+02  0.43757836290E+01  0.20801936703E+02  0.00000000000E+00 0.  1.
</event>
<event>
 7    1  0.3223600E-013  0.5930193E+02  0.7816164E-02  0.1266605E+00
        -11   -1    0    0    0    0  0.00000000000E+00  0.00000000000E+00  0.45593999997E+02  0.45594000000E+02  0.51100000000E-03 0.  1.
         11   -1    0    0    0    0 -0.00000000000E+00 -0.00000000000E+00 -0.45593999997E+02  0.45594000000E+02  0.51100000000E-03 0. -1.
    9900012    2    1    2    0    0  0.18663198087E+02  0.13049515686E+02  0.22318520587E+02  0.59301934334E+02  0.49999982321E+02 0.  0.
         12    1    1    2    0    0 -0.18663198087E+02 -0.13049515686E+02 -0.22318520587E+02  0.31886065666E+02  0.00000000000E+00 0. -1.
         11    1    3    3    0    0 -0.99495335340E+01  0.13915223364E+02 -0.31142338096E+01  0.17387498707E+02  0.51100000000E-03 0. -1.
        -11    1    3    3    0    0  0.55989809637E+01 -0.65361979169E+01  0.25679139097E+01  0.89813502966E+01  0.51100000000E-03 0.  1.
        -12    1    3    3    0    0  0.23013750657E+02  0.56704902386E+01  0.22864840487E+02  0.32933085330E+02  0.00000000000E+00 0.  1.
</event>
<event>
 7    1  0.3223600E-013  0.5930196E+02  0.7816164E-02  0.1266605E+00
        -11   -1    0    0    0    0  0.00000000000E+00  0.00000000000E+00  0.45593999997E+02  0.45594000000E+02  0.51100000000E-03 0. -1.
         11   -1    0    0    0    0 -0.00000000000E+00 -0.00000000000E+00 -0.45593999997E+02  0.45594000000E+02  0.51100000000E-03 0.  1.
    9900012    2    1    2    0    0 -0.17212374074E+02 -0.41207169419E+00 -0.26838110161E+02  0.59301956323E+02  0.50000022424E+02 0.  0.
         12    1    1    2    0    0  0.17212374074E+02  0.41207169419E+00  0.26838110161E+02  0.31886043677E+02  0.00000000000E+00 0. -1.
         11    1    3    3    0    0 -0.13686739713E+02  0.23793082146E+01  0.16171650821E+00  0.13892951596E+02  0.51100000000E-03 0. -1.
        -11    1    3    3    0    0 -0.18392446703E+02 -0.52811786120E+01 -0.22790024599E+02  0.29758329334E+02  0.51100000000E-03 0.  1.
         12    1    3    3    0    0  0.14866812342E+02  0.24897987032E+01 -0.42098020708E+01  0.15650675394E+02  0.00000000000E+00 0. -1.
</event>
<event>
 7    1  0.3223600E-013  0.5930220E+02  0.7816164E-02  0.1266604E+00
        -11   -1    0    0    0    0  0.00000000000E+00  0.00000000000E+00  0.45593999997E+02  0.45594000000E+02  0.51100000000E-03 0.  1.
         11   -1    0    0    0    0 -0.00000000000E+00 -0.00000000000E+00 -0.45593999997E+02  0.45594000000E+02  0.51100000000E-03 0. -1.
    9900012    2    1    2    0    0  0.19513816866E+02  0.23759380668E+02  0.84502542531E+01  0.59302203548E+02  0.50000473300E+02 0.  0.
         12    1    1    2    0    0 -0.19513816866E+02 -0.23759380668E+02 -0.84502542531E+01  0.31885796452E+02  0.00000000000E+00 0. -1.
         11    1    3    3    0    0  0.46403081389E+01  0.21741507887E+02  0.12448625865E+02  0.25479283958E+02  0.51100000000E-03 0. -1.
        -11    1    3    3    0    0  0.12143635228E+02  0.21688486118E+01  0.12227073040E+02  0.17368739052E+02  0.51100000000E-03 0.  1.
        -12    1    3    3    0    0  0.27298734995E+01 -0.15097583049E+00 -0.16225444652E+02  0.16454180538E+02  0.00000000000E+00 0.  1.
</event>
<event>
 7    1  0.3223600E-013  0.5930195E+02  0.7816164E-02  0.1266605E+00
        -11   -1    0    0    0    0  0.00000000000E+00  0.00000000000E+00  0.45593999997E+02  0.45594000000E+02  0.51100000000E-03 0.  1.
         11   -1    0    0    0    0 -0.00000000000E+00 -0.00000000000E+00 -0.45593999997E+02  0.45594000000E+02  0.51100000000E-03 0. -1.
    9900012    2    1    2    0    0  0.31773723673E+02 -0.25649889405E+01  0.75607801355E+00  0.59301947591E+02  0.50000006498E+02 0.  0.
         12    1    1    2    0    0 -0.31773723673E+02  0.25649889405E+01 -0.75607801355E+00  0.31886052409E+02  0.00000000000E+00 0. -1.
         11    1    3    3    0    0 -0.21463555149E+01 -0.81363400258E+01 -0.19694543545E+01  0.86420843393E+01  0.51100000000E-03 0. -1.
        -11    1    3    3    0    0  0.27474000176E+02 -0.12933970226E+02  0.55257826848E+01  0.30864908003E+02  0.51100000000E-03 0.  1.
        -12    1    3    3    0    0  0.64460790115E+01  0.18505321311E+02 -0.28002503168E+01  0.19794955249E+02  0.00000000000E+00 0.  1.
</event>
<event>
 7    1  0.3223600E-013  0.5930224E+02  0.7816164E-02  0.1266604E+00
        -11   -1    0    0    0    0  0.00000000000E+00  0.00000000000E+00  0.45593999997E+02  0.45594000000E+02  0.51100000000E-03 0.  1.
         11   -1    0    0    0    0 -0.00000000000E+00 -0.00000000000E+00 -0.45593999997E+02  0.45594000000E+02  0.51100000000E-03 0. -1.
    9900012    2    1    2    0    0 -0.18589806414E+02 -0.33989274980E+01  0.25682054376E+02  0.59302242559E+02  0.50000544446E+02 0.  0.
         12    1    1    2    0    0  0.18589806414E+02  0.33989274980E+01 -0.25682054376E+02  0.31885757441E+02  0.00000000000E+00 0. -1.
         11    1    3    3    0    0 -0.17574911977E+01  0.57062139726E+01 -0.53016149208E-01  0.59709684461E+01  0.51100000000E-03 0. -1.
        -11    1    3    3    0    0 -0.20984086309E+02  0.50141186946E+01  0.30941306653E+02  0.37720521234E+02  0.51100000000E-03 0.  1.
        -12    1    3    3    0    0  0.41517710929E+01 -0.14119260165E+02 -0.52062361278E+01  0.15610752879E+02  0.00000000000E+00 0.  1.
</event>
<event>
 7    1  0.3223600E-013  0.5930190E+02  0.7816164E-02  0.1266605E+00
        -11   -1    0    0    0    0  0.00000000000E+00  0.00000000000E+00  0.45593999997E+02  0.45594000000E+02  0.51100000000E-03 0.  1.
         11   -1    0    0    0    0 -0.00000000000E+00 -0.00000000000E+00 -0.45593999997E+02  0.45594000000E+02  0.51100000000E-03 0. -1.
    9900012    2    1    2    0    0  0.30685479699E+02 -0.20769078103E+01  0.84149501676E+01  0.59301896495E+02  0.49999913311E+02 0.  0.
         12    1    1    2    0    0 -0.30685479699E+02  0.20769078103E+01 -0.84149501676E+01  0.31886103505E+02  0.00000000000E+00 0. -1.
         11    1    3    3    0    0  0.19470194405E+02  0.10818364621E+02  0.48343017388E+01  0.22792453944E+02  0.51100000000E-03 0.  1.
        -11    1    3    3    0    0  0.72892375744E+01  0.49671005632E+01  0.13176310056E+02  0.15856235977E+02  0.51100000000E-03 0. -1.
         12    1    3    3    0    0  0.39260477202E+01 -0.17862372994E+02 -0.95956616270E+01  0.20653206573E+02  0.00000000000E+00 0. -1.
</event>
<event>
 7    1  0.3223600E-013  0.5930202E+02  0.7816164E-02  0.1266604E+00
        -11   -1    0    0    0    0  0.00000000000E+00  0.00000000000E+00  0.45593999997E+02  0.45594000000E+02  0.51100000000E-03 0. -1.
         11   -1    0    0    0    0 -0.00000000000E+00 -0.00000000000E+00 -0.45593999997E+02  0.45594000000E+02  0.51100000000E-03 0.  1.
    9900012    2    1    2    0    0 -0.26661898583E+02 -0.13023210074E+02  0.11672824293E+02  0.59302020892E+02  0.50000140182E+02 0.  0.
         12    1    1    2    0    0  0.26661898583E+02  0.13023210074E+02 -0.11672824293E+02  0.31885979108E+02  0.00000000000E+00 0. -1.
         11    1    3    3    0    0  0.82081863417E+01 -0.55913370104E+01  0.12320257113E+01  0.10007759999E+02  0.51100000000E-03 0. -1.
        -11    1    3    3    0    0  0.12576400014E+01 -0.14318372970E+01 -0.80471065754E+01  0.82696880785E+01  0.51100000000E-03 0.  1.
         12    1    3    3    0    0 -0.36127724926E+02 -0.60000357663E+01  0.18487905157E+02  0.41024572815E+02  0.00000000000E+00 0. -1.
</event>
<event>
 7    1  0.3223600E-013  0.5930194E+02  0.7816164E-02  0.1266605E+00
        -11   -1    0    0    0    0  0.00000000000E+00  0.00000000000E+00  0.45593999997E+02  0.45594000000E+02  0.51100000000E-03 0. -1.
         11   -1    0    0    0    0 -0.00000000000E+00 -0.00000000000E+00 -0.45593999997E+02  0.45594000000E+02  0.51100000000E-03 0.  1.
    9900012    2    1    2    0    0 -0.27452550766E+02  0.15945028072E+02 -0.29722835635E+01  0.59301938259E+02  0.49999989479E+02 0.  0.
         12    1    1    2    0    0  0.27452550766E+02 -0.15945028072E+02  0.29722835635E+01  0.31886061741E+02  0.00000000000E+00 0. -1.
         11    1    3    3    0    0  0.80836665863E+01  0.10084162337E+02 -0.33399979428E+01  0.13348841973E+02  0.51100000000E-03 0. -1.
        -11    1    3    3    0    0 -0.30785495627E+01  0.12390938704E+02 -0.10813975560E+01  0.12813362178E+02  0.51100000000E-03 0.  1.
         12    1    3    3    0    0 -0.32457667790E+02 -0.65300729682E+01  0.14491119353E+01  0.33139734108E+02  0.00000000000E+00 0. -1.
</event>
<event>
 7    1  0.3223600E-013  0.5930198E+02  0.7816164E-02  0.1266605E+00
        -11   -1    0    0    0    0  0.00000000000E+00  0.00000000000E+00  0.45593999997E+02  0.45594000000E+02  0.51100000000E-03 0. -1.
         11   -1    0    0    0    0 -0.00000000000E+00 -0.00000000000E+00 -0.45593999997E+02  0.45594000000E+02  0.51100000000E-03 0.  1.
    9900012    2    1    2    0    0 -0.20733277875E+02  0.49865223983E+01 -0.23706198501E+02  0.59301983246E+02  0.50000071525E+02 0.  0.
         12    1    1    2    0    0  0.20733277875E+02 -0.49865223983E+01  0.23706198501E+02  0.31886016754E+02  0.00000000000E+00 0. -1.
         11    1    3    3    0    0 -0.15718188464E+02  0.53572701549E+01 -0.29576746468E+02  0.33919695222E+02  0.51100000000E-03 0. -1.
        -11    1    3    3    0    0 -0.86856331784E+01  0.73014501664E+01 -0.42910295210E+01  0.12131130733E+02  0.51100000000E-03 0.  1.
         12    1    3    3    0    0  0.36705437675E+01 -0.76721979230E+01  0.10161577487E+02  0.13251157291E+02  0.00000000000E+00 0. -1.
</event>
<event>
 7    1  0.3223600E-013  0.5930193E+02  0.7816164E-02  0.1266605E+00
        -11   -1    0    0    0    0  0.00000000000E+00  0.00000000000E+00  0.45593999997E+02  0.45594000000E+02  0.51100000000E-03 0.  1.
         11   -1    0    0    0    0 -0.00000000000E+00 -0.00000000000E+00 -0.45593999997E+02  0.45594000000E+02  0.51100000000E-03 0. -1.
    9900012    2    1    2    0    0 -0.27380797108E+02  0.12397672488E+01  0.16293447137E+02  0.59301929488E+02  0.49999973483E+02 0.  0.
         12    1    1    2    0    0  0.27380797108E+02 -0.12397672488E+01 -0.16293447137E+02  0.31886070512E+02  0.00000000000E+00 0. -1.
         11    1    3    3    0    0 -0.20789314234E+02  0.24684818132E+01 -0.39542718405E+01  0.21305521699E+02  0.51100000000E-03 0. -1.
        -11    1    3    3    0    0 -0.14019816967E+02 -0.12117162559E+02  0.86946507039E+01  0.20468948371E+02  0.51100000000E-03 0.  1.
        -12    1    3    3    0    0  0.74283340935E+01  0.10888447995E+02  0.11553068274E+02  0.17527459419E+02  0.00000000000E+00 0.  1.
</event>
<event>
 7    1  0.3223600E-013  0.5930198E+02  0.7816164E-02  0.1266605E+00
        -11   -1    0    0    0    0  0.00000000000E+00  0.00000000000E+00  0.45593999997E+02  0.45594000000E+02  0.51100000000E-03 0. -1.
         11   -1    0    0    0    0 -0.00000000000E+00 -0.00000000000E+00 -0.45593999997E+02  0.45594000000E+02  0.51100000000E-03 0.  1.
    9900012    2    1    2    0    0 -0.15908798465E+02 -0.16684934374E+02 -0.22028188962E+02  0.59301984059E+02  0.50000073007E+02 0.  0.
         12    1    1    2    0    0  0.15908798465E+02  0.16684934374E+02  0.22028188962E+02  0.31886015941E+02  0.00000000000E+00 0. -1.
         11    1    3    3    0    0 -0.72613918193E+01 -0.12077670076E+02 -0.77227874673E+01  0.16069828006E+02  0.51100000000E-03 0. -1.
        -11    1    3    3    0    0 -0.71064714309E+01 -0.19062886613E+02 -0.19119124551E+02  0.27918390105E+02  0.51100000000E-03 0.  1.
         12    1    3    3    0    0 -0.15409352149E+01  0.14455622314E+02  0.48137230571E+01  0.15313765948E+02  0.00000000000E+00 0. -1.
</event>
<event>
 7    1  0.3223600E-013  0.5930193E+02  0.7816164E-02  0.1266605E+00
        -11   -1    0    0    0    0  0.00000000000E+00  0.00000000000E+00  0.45593999997E+02  0.45594000000E+02  0.51100000000E-03 0. -1.
         11   -1    0    0    0    0 -0.00000000000E+00 -0.00000000000E+00 -0.45593999997E+02  0.45594000000E+02  0.51100000000E-03 0.  1.
    9900012    2    1    2    0    0  0.19636492832E+01  0.12180017750E+02 -0.29402595361E+02  0.59301931492E+02  0.49999977138E+02 0.  0.
         12    1    1    2    0    0 -0.19636492832E+01 -0.12180017750E+02  0.29402595361E+02  0.31886068508E+02  0.00000000000E+00 0. -1.
         11    1    3    3    0    0  0.78503579517E+01  0.11020775156E+02 -0.11372723705E+02  0.17675532517E+02  0.51100000000E-03 0.  1.
        -11    1    3    3    0    0 -0.16952105411E+02 -0.35106727655E+01  0.28439804715E+01  0.17543857225E+02  0.51100000000E-03 0. -1.
         12    1    3    3    0    0  0.11065396743E+02  0.46699153597E+01 -0.20873852128E+02  0.24082541751E+02  0.00000000000E+00 0. -1.
</event>
<event>
 7    1  0.3223600E-013  0.5930193E+02  0.7816164E-02  0.1266605E+00
        -11   -1    0    0    0    0  0.00000000000E+00  0.00000000000E+00  0.45593999997E+02  0.45594000000E+02  0.51100000000E-03 0.  1.
         11   -1    0    0    0    0 -0.00000000000E+00 -0.00000000000E+00 -0.45593999997E+02  0.45594000000E+02  0.51100000000E-03 0. -1.
    9900012    2    1    2    0    0 -0.25286223654E+02 -0.86559284300E+01  0.17389742534E+02  0.59301931740E+02  0.49999977590E+02 0.  0.
         12    1    1    2    0    0  0.25286223654E+02  0.86559284300E+01 -0.17389742534E+02  0.31886068260E+02  0.00000000000E+00 0. -1.
         11    1    3    3    0    0 -0.76323997569E+01  0.32856145882E+01 -0.55688096759E+01  0.10003021081E+02  0.51100000000E-03 0. -1.
        -11    1    3    3    0    0  0.66563601857E+01  0.81684908140E+01  0.45727630375E+00  0.10547060016E+02  0.51100000000E-03 0.  1.
        -12    1    3    3    0    0 -0.24310184083E+02 -0.20110033832E+02  0.22501275906E+02  0.38751850643E+02  0.00000000000E+00 0.  1.
</event>
<event>
 7    1  0.3223600E-013  0.5930195E+02  0.7816164E-02  0.1266605E+00
        -11   -1    0    0    0    0  0.00000000000E+00  0.00000000000E+00  0.45593999997E+02  0.45594000000E+02  0.51100000000E-03 0.  1.
         11   -1    0    0    0    0 -0.00000000000E+00 -0.00000000000E+00 -0.45593999997E+02  0.45594000000E+02  0.51100000000E-03 0. -1.
    9900012    2    1    2    0    0  0.16504379519E+02 -0.20537919801E+02 -0.17958833518E+02  0.59301946711E+02  0.50000004893E+02 0.  0.
         12    1    1    2    0    0 -0.16504379519E+02  0.20537919801E+02  0.17958833518E+02  0.31886053289E+02  0.00000000000E+00 0. -1.
         11    1    3    3    0    0  0.14564902141E+01  0.89715182125E+01  0.88042006615E+00  0.91315191801E+01  0.51100000000E-03 0. -1.
        -11    1    3    3    0    0 -0.22595974348E+01 -0.24126463042E+02 -0.28700271799E+00  0.24233744455E+02  0.51100000000E-03 0.  1.
         12    1    3    3    0    0  0.17307486740E+02 -0.53829749709E+01 -0.18552250866E+02  0.25936683076E+02  0.00000000000E+00 0. -1.
</event>
<event>
 7    1  0.3223600E-013  0.5930193E+02  0.7816164E-02  0.1266605E+00
        -11   -1    0    0    0    0  0.00000000000E+00  0.00000000000E+00  0.45593999997E+02  0.45594000000E+02  0.51100000000E-03 0.  1.
         11   -1    0    0    0    0 -0.00000000000E+00 -0.00000000000E+00 -0.45593999997E+02  0.45594000000E+02  0.51100000000E-03 0. -1.
    9900012    2    1    2    0    0  0.15651450626E+02 -0.27754364136E+02 -0.12035615895E+01  0.59301934144E+02  0.49999981974E+02 0.  0.
         12    1    1    2    0    0 -0.15651450626E+02  0.27754364136E+02  0.12035615895E+01  0.31886065856E+02  0.00000000000E+00 0. -1.
         11    1    3    3    0    0  0.59277602371E+01 -0.15405349946E+02 -0.10739426800E+02  0.19692598524E+02  0.51100000000E-03 0. -1.
        -11    1    3    3    0    0  0.10019386500E+02  0.83087455055E+00 -0.11191820840E+02  0.15044444567E+02  0.51100000000E-03 0.  1.
        -12    1    3    3    0    0 -0.29569611155E+00 -0.13179888741E+02  0.20727686051E+02  0.24564891052E+02  0.00000000000E+00 0.  1.
</event>
<event>
 7    1  0.3223600E-013  0.5930195E+02  0.7816164E-02  0.1266605E+00
        -11   -1    0    0    0    0  0.00000000000E+00  0.00000000000E+00  0.45593999997E+02  0.45594000000E+02  0.51100000000E-03 0.  1.
         11   -1    0    0    0    0 -0.00000000000E+00 -0.00000000000E+00 -0.45593999997E+02  0.45594000000E+02  0.51100000000E-03 0. -1.
    9900012    2    1    2    0    0  0.50068350638E+01 -0.23464635014E+02  0.21001496848E+02  0.59301947194E+02  0.50000005774E+02 0.  0.
         12    1    1    2    0    0 -0.50068350638E+01  0.23464635014E+02 -0.21001496848E+02  0.31886052806E+02  0.00000000000E+00 0. -1.
         11    1    3    3    0    0  0.46425659232E+01 -0.51835953604E+01  0.70148833001E+00  0.69939377571E+01  0.51100000000E-03 0. -1.
        -11    1    3    3    0    0  0.20227181770E+02  0.12249647359E+01  0.10261288564E+02  0.22714168799E+02  0.51100000000E-03 0.  1.
        -12    1    3    3    0    0 -0.19862912630E+02 -0.19506004389E+02  0.10038719955E+02  0.29593840638E+02  0.00000000000E+00 0.  1.
</event>
<event>
 7    1  0.3223600E-013  0.5930197E+02  0.7816164E-02  0.1266605E+00
        -11   -1    0    0    0    0  0.00000000000E+00  0.00000000000E+00  0.45593999997E+02  0.45594000000E+02  0.51100000000E-03 0.  1.
         11   -1    0    0    0    0 -0.00000000000E+00 -0.00000000000E+00 -0.45593999997E+02  0.45594000000E+02  0.51100000000E-03 0. -1.
    9900012    2    1    2    0    0 -0.16088145103E+02  0.76110301666E+01  0.26456805784E+02  0.59301972255E+02  0.50000051480E+02 0.  0.
         12    1    1    2    0    0  0.16088145103E+02 -0.76110301666E+01 -0.26456805784E+02  0.31886027745E+02  0.00000000000E+00 0. -1.
         11    1    3    3    0    0 -0.18413796473E+02 -0.16285497681E+02  0.11408481649E+02  0.27100531159E+02  0.51100000000E-03 0. -1.
        -11    1    3    3    0    0  0.22573533999E+01  0.45054724448E+01  0.11408082587E+02  0.12471538594E+02  0.51100000000E-03 0.  1.
        -12    1    3    3    0    0  0.68297970687E-01  0.19391055403E+02  0.36402415473E+01  0.19729902503E+02  0.00000000000E+00 0.  1.
</event>
<event>
 7    1  0.3223600E-013  0.5930195E+02  0.7816164E-02  0.1266605E+00
        -11   -1    0    0    0    0  0.00000000000E+00  0.00000000000E+00  0.45593999997E+02  0.45594000000E+02  0.51100000000E-03 0. -1.
         11   -1    0    0    0    0 -0.00000000000E+00 -0.00000000000E+00 -0.45593999997E+02  0.45594000000E+02  0.51100000000E-03 0.  1.
    9900012    2    1    2    0    0  0.28295253692E+02  0.10505357080E+02 -0.10282827468E+02  0.59301945845E+02  0.50000003314E+02 0.  0.
         12    1    1    2    0    0 -0.28295253692E+02 -0.10505357080E+02  0.10282827468E+02  0.31886054155E+02  0.00000000000E+00 0. -1.
         11    1    3    3    0    0  0.40302252035E+01 -0.16523498271E+01  0.40541893089E+01  0.59505820183E+01  0.51100000000E-03 0. -1.
        -11    1    3    3    0    0  0.23213691126E+02  0.26033904090E+02 -0.23073265997E+01  0.34956592714E+02  0.51100000000E-03 0.  1.
         12    1    3    3    0    0  0.10513373624E+01 -0.13876197183E+02 -0.12029690178E+02  0.18394771113E+02  0.00000000000E+00 0. -1.
</event>
<event>
 7    1  0.3223600E-013  0.5930195E+02  0.7816164E-02  0.1266605E+00
        -11   -1    0    0    0    0  0.00000000000E+00  0.00000000000E+00  0.45593999997E+02  0.45594000000E+02  0.51100000000E-03 0.  1.
         11   -1    0    0    0    0 -0.00000000000E+00 -0.00000000000E+00 -0.45593999997E+02  0.45594000000E+02  0.51100000000E-03 0. -1.
    9900012    2    1    2    0    0  0.29359435924E+02 -0.15021676135E+01 -0.12348574180E+02  0.59301948668E+02  0.50000008462E+02 0.  0.
         12    1    1    2    0    0 -0.29359435924E+02  0.15021676135E+01  0.12348574180E+02  0.31886051332E+02  0.00000000000E+00 0. -1.
         11    1    3    3    0    0  0.20033588075E+02  0.42770739861E+01 -0.27335420802E+02  0.34159380025E+02  0.51100000000E-03 0. -1.
        -11    1    3    3    0    0  0.31412166430E+01 -0.41254497920E+01 -0.30414000639E+01  0.60113802570E+01  0.51100000000E-03 0.  1.
        -12    1    3    3    0    0  0.61846312056E+01 -0.16537918077E+01  0.18028246685E+02  0.19131188385E+02  0.00000000000E+00 0.  1.
</event>
<event>
 7    1  0.3223600E-013  0.5930195E+02  0.7816164E-02  0.1266605E+00
        -11   -1    0    0    0    0  0.00000000000E+00  0.00000000000E+00  0.45593999997E+02  0.45594000000E+02  0.51100000000E-03 0.  1.
         11   -1    0    0    0    0 -0.00000000000E+00 -0.00000000000E+00 -0.45593999997E+02  0.45594000000E+02  0.51100000000E-03 0. -1.
    9900012    2    1    2    0    0  0.20211025857E+02  0.24546319229E+02 -0.23902048961E+01  0.59301946099E+02  0.50000003778E+02 0.  0.
         12    1    1    2    0    0 -0.20211025857E+02 -0.24546319229E+02  0.23902048961E+01  0.31886053901E+02  0.00000000000E+00 0. -1.
         11    1    3    3    0    0  0.18326094833E+02  0.91094716960E+01 -0.20668695036E+02  0.29086477634E+02  0.51100000000E-03 0. -1.
        -11    1    3    3    0    0  0.46731392445E+01 -0.24299773738E+01  0.74967806634E+01  0.91621362691E+01  0.51100000000E-03 0.  1.
        -12    1    3    3    0    0 -0.27882082198E+01  0.17866824907E+02  0.10781709476E+02  0.21053332196E+02  0.00000000000E+00 0.  1.
</event>
<event>
 7    1  0.3223600E-013  0.5930196E+02  0.7816164E-02  0.1266605E+00
        -11   -1    0    0    0    0  0.00000000000E+00  0.00000000000E+00  0.45593999997E+02  0.45594000000E+02  0.51100000000E-03 0.  1.
         11   -1    0    0    0    0 -0.00000000000E+00 -0.00000000000E+00 -0.45593999997E+02  0.45594000000E+02  0.51100000000E-03 0. -1.
    9900012    2    1    2    0    0  0.78244873804E+01 -0.27908587120E+02  0.13289385697E+02  0.59301959010E+02  0.50000027324E+02 0.  0.
         12    1    1    2    0    0 -0.78244873804E+01  0.27908587120E+02 -0.13289385697E+02  0.31886040990E+02  0.00000000000E+00 0. -1.
         11    1    3    3    0    0 -0.28869955195E+01 -0.91344337668E+01 -0.51831204731E+01  0.10892077922E+02  0.51100000000E-03 0. -1.
        -11    1    3    3    0    0  0.17855215774E+02 -0.25434013138E+02  0.45554644688E+01  0.31407801760E+02  0.51100000000E-03 0.  1.
        -12    1    3    3    0    0 -0.71437328741E+01  0.66598597846E+01  0.13917041702E+02  0.17002079327E+02  0.00000000000E+00 0.  1.
</event>
<event>
 7    1  0.3223600E-013  0.5930195E+02  0.7816164E-02  0.1266605E+00
        -11   -1    0    0    0    0  0.00000000000E+00  0.00000000000E+00  0.45593999997E+02  0.45594000000E+02  0.51100000000E-03 0.  1.
         11   -1    0    0    0    0 -0.00000000000E+00 -0.00000000000E+00 -0.45593999997E+02  0.45594000000E+02  0.51100000000E-03 0. -1.
    9900012    2    1    2    0    0 -0.29046612215E+02 -0.58989465947E-01 -0.13153369285E+02  0.59301948434E+02  0.50000008036E+02 0.  0.
         12    1    1    2    0    0  0.29046612215E+02  0.58989465947E-01  0.13153369285E+02  0.31886051566E+02  0.00000000000E+00 0. -1.
         11    1    3    3    0    0 -0.20366928929E+02 -0.11318904797E+02 -0.10221641027E+02  0.25444279226E+02  0.51100000000E-03 0. -1.
        -11    1    3    3    0    0 -0.69562265608E+01  0.38481571074E+01  0.13546746682E+02  0.15707060419E+02  0.51100000000E-03 0.  1.
        -12    1    3    3    0    0 -0.17234567248E+01  0.74117582232E+01 -0.16478474940E+02  0.18150608788E+02  0.00000000000E+00 0.  1.
</event>
<event>
 7    1  0.3223600E-013  0.5930195E+02  0.7816164E-02  0.1266605E+00
        -11   -1    0    0    0    0  0.00000000000E+00  0.00000000000E+00  0.45593999997E+02  0.45594000000E+02  0.51100000000E-03 0.  1.
         11   -1    0    0    0    0 -0.00000000000E+00 -0.00000000000E+00 -0.45593999997E+02  0.45594000000E+02  0.51100000000E-03 0. -1.
    9900012    2    1    2    0    0  0.66711777697E+01 -0.27474632965E+02  0.14743148228E+02  0.59301945225E+02  0.50000002184E+02 0.  0.
         12    1    1    2    0    0 -0.66711777697E+01  0.27474632965E+02 -0.14743148228E+02  0.31886054775E+02  0.00000000000E+00 0. -1.
         11    1    3    3    0    0  0.54309198676E+01  0.39256600090E+01  0.26996711103E+01  0.72245360737E+01  0.51100000000E-03 0. -1.
        -11    1    3    3    0    0  0.14563813071E+02 -0.78097204869E+01  0.17896444538E+02  0.24359374224E+02  0.51100000000E-03 0.  1.
         12    1    3    3    0    0 -0.13323555168E+02 -0.23590572487E+02 -0.58529674203E+01  0.27718034927E+02  0.00000000000E+00 0. -1.
</event>
<event>
 7    1  0.3223600E-013  0.5930194E+02  0.7816164E-02  0.1266605E+00
        -11   -1    0    0    0    0  0.00000000000E+00  0.00000000000E+00  0.45593999997E+02  0.45594000000E+02  0.51100000000E-03 0.  1.
         11   -1    0    0    0    0 -0.00000000000E+00 -0.00000000000E+00 -0.45593999997E+02  0.45594000000E+02  0.51100000000E-03 0. -1.
    9900012    2    1    2    0    0  0.29758572845E+02  0.31427744215E+01 -0.11012303963E+02  0.59301944624E+02  0.50000001088E+02 0.  0.
         12    1    1    2    0    0 -0.29758572845E+02 -0.31427744215E+01  0.11012303963E+02  0.31886055376E+02  0.00000000000E+00 0. -1.
         11    1    3    3    0    0  0.11325607555E+02 -0.45407644419E+01 -0.12672616786E+02  0.17592133034E+02  0.51100000000E-03 0. -1.
        -11    1    3    3    0    0  0.22789433614E+02  0.73985409565E+01 -0.12405992332E+02  0.26981574060E+02  0.51100000000E-03 0.  1.
        -12    1    3    3    0    0 -0.43564683241E+01  0.28499790700E+00  0.14066305155E+02  0.14728237531E+02  0.00000000000E+00 0.  1.
</event>
<event>
 7    1  0.3223600E-013  0.5930195E+02  0.7816164E-02  0.1266605E+00
        -11   -1    0    0    0    0  0.00000000000E+00  0.00000000000E+00  0.45593999997E+02  0.45594000000E+02  0.51100000000E-03 0.  1.
         11   -1    0    0    0    0 -0.00000000000E+00 -0.00000000000E+00 -0.45593999997E+02  0.45594000000E+02  0.51100000000E-03 0. -1.
    9900012    2    1    2    0    0  0.12357811052E+02  0.25034086096E+02  0.15404525569E+02  0.59301947114E+02  0.50000005628E+02 0.  0.
         12    1    1    2    0    0 -0.12357811052E+02 -0.25034086096E+02 -0.15404525569E+02  0.31886052886E+02  0.00000000000E+00 0. -1.
         11    1    3    3    0    0  0.56065893071E+01  0.31856520171E+00  0.84008228651E+01  0.10104907348E+02  0.51100000000E-03 0. -1.
        -11    1    3    3    0    0 -0.14290251150E+02  0.10354328863E+02  0.14282103363E+02  0.22702464202E+02  0.51100000000E-03 0.  1.
         12    1    3    3    0    0  0.21041472895E+02  0.14361192031E+02 -0.72784006588E+01  0.26494575563E+02  0.00000000000E+00 0. -1.
</event>
<event>
 7    1  0.3223600E-013  0.5930193E+02  0.7816164E-02  0.1266605E+00
        -11   -1    0    0    0    0  0.00000000000E+00  0.00000000000E+00  0.45593999997E+02  0.45594000000E+02  0.51100000000E-03 0.  1.
         11   -1    0    0    0    0 -0.00000000000E+00 -0.00000000000E+00 -0.45593999997E+02  0.45594000000E+02  0.51100000000E-03 0. -1.
    9900012    2    1    2    0    0 -0.25215454931E+02  0.45446534201E+01  0.18980214510E+02  0.59301928042E+02  0.49999970845E+02 0.  0.
         12    1    1    2    0    0  0.25215454931E+02 -0.45446534201E+01 -0.18980214510E+02  0.31886071958E+02  0.00000000000E+00 0. -1.
         11    1    3    3    0    0 -0.10696004071E+02  0.20643075396E+02 -0.19192539188E+01  0.23328621921E+02  0.51100000000E-03 0. -1.
        -11    1    3    3    0    0 -0.13494705653E+02 -0.60295236125E+00  0.74318812996E+01  0.15417635750E+02  0.51100000000E-03 0.  1.
        -12    1    3    3    0    0 -0.10247452074E+01 -0.15495469614E+02  0.13467587129E+02  0.20555670371E+02  0.00000000000E+00 0.  1.
</event>
<event>
 7    1  0.3223600E-013  0.5930198E+02  0.7816164E-02  0.1266605E+00
        -11   -1    0    0    0    0  0.00000000000E+00  0.00000000000E+00  0.45593999997E+02  0.45594000000E+02  0.51100000000E-03 0.  1.
         11   -1    0    0    0    0 -0.00000000000E+00 -0.00000000000E+00 -0.45593999997E+02  0.45594000000E+02  0.51100000000E-03 0. -1.
    9900012    2    1    2    0    0 -0.25642937897E+02 -0.16036353707E+02  0.10099185811E+02  0.59301977071E+02  0.50000060263E+02 0.  0.
         12    1    1    2    0    0  0.25642937897E+02  0.16036353707E+02 -0.10099185811E+02  0.31886022929E+02  0.00000000000E+00 0. -1.
         11    1    3    3    0    0 -0.19470770801E+02  0.10289820785E+02  0.49532076575E+01  0.22572673606E+02  0.51100000000E-03 0. -1.
        -11    1    3    3    0    0 -0.13727288107E+01 -0.12284046018E+02  0.14603375697E+02  0.19132191536E+02  0.51100000000E-03 0.  1.
         12    1    3    3    0    0 -0.47994382852E+01 -0.14042128475E+02 -0.94573975432E+01  0.17597111929E+02  0.00000000000E+00 0. -1.
</event>
<event>
 7    1  0.3223600E-013  0.5930196E+02  0.7816164E-02  0.1266605E+00
        -11   -1    0    0    0    0  0.00000000000E+00  0.00000000000E+00  0.45593999997E+02  0.45594000000E+02  0.51100000000E-03 0.  1.
         11   -1    0    0    0    0 -0.00000000000E+00 -0.00000000000E+00 -0.45593999997E+02  0.45594000000E+02  0.51100000000E-03 0. -1.
    9900012    2    1    2    0    0 -0.16461226743E+02  0.21337599250E+01  0.27224891904E+02  0.59301958281E+02  0.50000025995E+02 0.  0.
         12    1    1    2    0    0  0.16461226743E+02 -0.21337599250E+01 -0.27224891904E+02  0.31886041719E+02  0.00000000000E+00 0. -1.
         11    1    3    3    0    0  0.89779266138E+01  0.17514633355E+01  0.69699764122E+01  0.11500059198E+02  0.51100000000E-03 0. -1.
        -11    1    3    3    0    0 -0.19439623935E+02 -0.19116991926E+01  0.30197830525E+02  0.35964740249E+02  0.51100000000E-03 0.  1.
         12    1    3    3    0    0 -0.59995294213E+01  0.22939957821E+01 -0.99429150328E+01  0.11837158835E+02  0.00000000000E+00 0. -1.
</event>
<event>
 7    1  0.3223600E-013  0.5930198E+02  0.7816164E-02  0.1266605E+00
        -11   -1    0    0    0    0  0.00000000000E+00  0.00000000000E+00  0.45593999997E+02  0.45594000000E+02  0.51100000000E-03 0. -1.
         11   -1    0    0    0    0 -0.00000000000E+00 -0.00000000000E+00 -0.45593999997E+02  0.45594000000E+02  0.51100000000E-03 0.  1.
    9900012    2    1    2    0    0  0.13095453333E+02  0.26752842391E+02  0.11380382218E+02  0.59301975265E+02  0.50000056969E+02 0.  0.
         12    1    1    2    0    0 -0.13095453333E+02 -0.26752842391E+02 -0.11380382218E+02  0.31886024735E+02  0.00000000000E+00 0. -1.
         11    1    3    3    0    0  0.11800500332E+02  0.69471541878E+00  0.13999473071E+02  0.18322654942E+02  0.51100000000E-03 0. -1.
        -11    1    3    3    0    0  0.10108079910E+02  0.24611936450E+02  0.73415703043E+01  0.27601075162E+02  0.51100000000E-03 0.  1.
         12    1    3    3    0    0 -0.88131269076E+01  0.14461905217E+01 -0.99606611574E+01  0.13378245162E+02  0.00000000000E+00 0. -1.
</event>
<event>
 7    1  0.3223600E-013  0.5930193E+02  0.7816164E-02  0.1266605E+00
        -11   -1    0    0    0    0  0.00000000000E+00  0.00000000000E+00  0.45593999997E+02  0.45594000000E+02  0.51100000000E-03 0. -1.
         11   -1    0    0    0    0 -0.00000000000E+00 -0.00000000000E+00 -0.45593999997E+02  0.45594000000E+02  0.51100000000E-03 0.  1.
    9900012    2    1    2    0    0  0.11594617016E+02  0.24221025157E+02 -0.17193841387E+02  0.59301931176E+02  0.49999976561E+02 0.  0.
         12    1    1    2    0    0 -0.11594617016E+02 -0.24221025157E+02  0.17193841387E+02  0.31886068824E+02  0.00000000000E+00 0. -1.
         11    1    3    3    0    0  0.14597060991E+02  0.14331024521E+02  0.32247464071E+01  0.20708728667E+02  0.51100000000E-03 0. -1.
        -11    1    3    3    0    0  0.13597610482E+02  0.35642090097E+00 -0.87835294171E+01  0.16191739744E+02  0.51100000000E-03 0.  1.
        -12    1    3    3    0    0 -0.16600054456E+02  0.95335797359E+01 -0.11635058377E+02  0.22401462764E+02  0.00000000000E+00 0.  1.
</event>
<event>
 7    1  0.3223600E-013  0.5930192E+02  0.7816164E-02  0.1266605E+00
        -11   -1    0    0    0    0  0.00000000000E+00  0.00000000000E+00  0.45593999997E+02  0.45594000000E+02  0.51100000000E-03 0.  1.
         11   -1    0    0    0    0 -0.00000000000E+00 -0.00000000000E+00 -0.45593999997E+02  0.45594000000E+02  0.51100000000E-03 0. -1.
    9900012    2    1    2    0    0 -0.79899646282E+01  0.39527670739E+01  0.30614669228E+02  0.59301923505E+02  0.49999962571E+02 0.  0.
         12    1    1    2    0    0  0.79899646282E+01 -0.39527670739E+01 -0.30614669228E+02  0.31886076495E+02  0.00000000000E+00 0. -1.
         11    1    3    3    0    0 -0.24528889599E+01 -0.68859776033E+01 -0.16817238559E+01  0.75007697733E+01  0.51100000000E-03 0. -1.
        -11    1    3    3    0    0  0.16686792630E+01  0.23954165793E+02  0.12759795704E+02  0.27191890996E+02  0.51100000000E-03 0.  1.
         12    1    3    3    0    0 -0.72057549314E+01 -0.13115421115E+02  0.19536597380E+02  0.24609262735E+02  0.00000000000E+00 0. -1.
</event>
<event>
 7    1  0.3223600E-013  0.5930194E+02  0.7816164E-02  0.1266605E+00
        -11   -1    0    0    0    0  0.00000000000E+00  0.00000000000E+00  0.45593999997E+02  0.45594000000E+02  0.51100000000E-03 0.  1.
         11   -1    0    0    0    0 -0.00000000000E+00 -0.00000000000E+00 -0.45593999997E+02  0.45594000000E+02  0.51100000000E-03 0. -1.
    9900012    2    1    2    0    0  0.17846570168E+02 -0.69770912969E+01  0.25486096486E+02  0.59301937467E+02  0.49999988035E+02 0.  0.
         12    1    1    2    0    0 -0.17846570168E+02  0.69770912969E+01 -0.25486096486E+02  0.31886062533E+02  0.00000000000E+00 0. -1.
         11    1    3    3    0    0  0.72071396830E+01  0.85790804146E+01 -0.39798877907E+00  0.11211684909E+02  0.51100000000E-03 0. -1.
        -11    1    3    3    0    0  0.18718366536E+02 -0.21099309408E+02  0.25898996841E+02  0.38292507634E+02  0.51100000000E-03 0.  1.
         12    1    3    3    0    0 -0.80789360510E+01  0.55431376964E+01 -0.14911575819E-01  0.97977449239E+01  0.00000000000E+00 0. -1.
</event>
<event>
 7    1  0.3223600E-013  0.5930193E+02  0.7816164E-02  0.1266605E+00
        -11   -1    0    0    0    0  0.00000000000E+00  0.00000000000E+00  0.45593999997E+02  0.45594000000E+02  0.51100000000E-03 0. -1.
         11   -1    0    0    0    0 -0.00000000000E+00 -0.00000000000E+00 -0.45593999997E+02  0.45594000000E+02  0.51100000000E-03 0.  1.
    9900012    2    1    2    0    0 -0.20436563040E+02 -0.84243951040E+01 -0.22980376118E+02  0.59301933634E+02  0.49999981044E+02 0.  0.
         12    1    1    2    0    0  0.20436563040E+02  0.84243951040E+01  0.22980376118E+02  0.31886066366E+02  0.00000000000E+00 0. -1.
         11    1    3    3    0    0 -0.14250023238E+02  0.12824171317E+02  0.35665862282E+00  0.19174194582E+02  0.51100000000E-03 0. -1.
        -11    1    3    3    0    0  0.49884073548E+01  0.28580530648E+01 -0.64708519577E+01  0.86558997555E+01  0.51100000000E-03 0.  1.
        -12    1    3    3    0    0 -0.11174947157E+02 -0.24106619486E+02 -0.16866182783E+02  0.31471839296E+02  0.00000000000E+00 0.  1.
</event>
<event>
 7    1  0.3223600E-013  0.5930184E+02  0.7816164E-02  0.1266605E+00
        -11   -1    0    0    0    0  0.00000000000E+00  0.00000000000E+00  0.45593999997E+02  0.45594000000E+02  0.51100000000E-03 0.  1.
         11   -1    0    0    0    0 -0.00000000000E+00 -0.00000000000E+00 -0.45593999997E+02  0.45594000000E+02  0.51100000000E-03 0. -1.
    9900012    2    1    2    0    0  0.31336571837E+02 -0.56250960341E+01  0.17619424986E+01  0.59301844991E+02  0.49999819381E+02 0.  0.
         12    1    1    2    0    0 -0.31336571837E+02  0.56250960341E+01 -0.17619424986E+01  0.31886155009E+02  0.00000000000E+00 0. -1.
         11    1    3    3    0    0 -0.64335172266E+01  0.52620317167E+00 -0.61574001426E+01  0.89207965149E+01  0.51100000000E-03 0. -1.
        -11    1    3    3    0    0  0.18241696788E+01 -0.83853545822E+01 -0.73151198430E+01  0.11276202600E+02  0.51100000000E-03 0.  1.
        -12    1    3    3    0    0  0.35945919385E+02  0.22340553764E+01  0.15234462484E+02  0.39104845877E+02  0.00000000000E+00 0.  1.
</event>
<event>
 7    1  0.3223600E-013  0.5930195E+02  0.7816164E-02  0.1266605E+00
        -11   -1    0    0    0    0  0.00000000000E+00  0.00000000000E+00  0.45593999997E+02  0.45594000000E+02  0.51100000000E-03 0.  1.
         11   -1    0    0    0    0 -0.00000000000E+00 -0.00000000000E+00 -0.45593999997E+02  0.45594000000E+02  0.51100000000E-03 0. -1.
    9900012    2    1    2    0    0 -0.17434073421E+02 -0.25805831371E+02  0.68434349343E+01  0.59301945830E+02  0.50000003287E+02 0.  0.
         12    1    1    2    0    0  0.17434073421E+02  0.25805831371E+02 -0.68434349343E+01  0.31886054170E+02  0.00000000000E+00 0. -1.
         11    1    3    3    0    0  0.31398621548E+01 -0.29627640987E+02 -0.10271668347E+01  0.29811254868E+02  0.51100000000E-03 0.  1.
        -11    1    3    3    0    0 -0.24828143810E+01 -0.55748525639E+01  0.67123644387E+01  0.90718898241E+01  0.51100000000E-03 0. -1.
         12    1    3    3    0    0 -0.18091121195E+02  0.93966621801E+01  0.11582373303E+01  0.20418801138E+02  0.00000000000E+00 0. -1.
</event>
<event>
 7    1  0.3223600E-013  0.5930192E+02  0.7816164E-02  0.1266605E+00
        -11   -1    0    0    0    0  0.00000000000E+00  0.00000000000E+00  0.45593999997E+02  0.45594000000E+02  0.51100000000E-03 0.  1.
         11   -1    0    0    0    0 -0.00000000000E+00 -0.00000000000E+00 -0.45593999997E+02  0.45594000000E+02  0.51100000000E-03 0. -1.
    9900012    2    1    2    0    0 -0.41014383096E+01 -0.31618431086E+02 -0.41883404056E+00  0.59301915222E+02  0.49999947465E+02 0.  0.
         12    1    1    2    0    0  0.41014383096E+01  0.31618431086E+02  0.41883404056E+00  0.31886084778E+02  0.00000000000E+00 0. -1.
         11    1    3    3    0    0 -0.37964000046E+01 -0.66947369287E+01 -0.16949184397E+02  0.18614698696E+02  0.51100000000E-03 0. -1.
        -11    1    3    3    0    0 -0.63224005155E+01  0.41006576467E+01  0.34412529850E+01  0.82843444992E+01  0.51100000000E-03 0.  1.
        -12    1    3    3    0    0  0.60173622104E+01 -0.29024351804E+02  0.13089097372E+02  0.32402872027E+02  0.00000000000E+00 0.  1.
</event>
<event>
 7    1  0.3223600E-013  0.5930194E+02  0.7816164E-02  0.1266605E+00
        -11   -1    0    0    0    0  0.00000000000E+00  0.00000000000E+00  0.45593999997E+02  0.45594000000E+02  0.51100000000E-03 0. -1.
         11   -1    0    0    0    0 -0.00000000000E+00 -0.00000000000E+00 -0.45593999997E+02  0.45594000000E+02  0.51100000000E-03 0.  1.
    9900012    2    1    2    0    0 -0.16893368681E+02 -0.26818693294E+02  0.34774738192E+01  0.59301936594E+02  0.49999986443E+02 0.  0.
         12    1    1    2    0    0  0.16893368681E+02  0.26818693294E+02 -0.34774738192E+01  0.31886063406E+02  0.00000000000E+00 0. -1.
         11    1    3    3    0    0  0.63084838052E+01 -0.89224232563E+01 -0.38039150235E+01  0.11570495860E+02  0.51100000000E-03 0. -1.
        -11    1    3    3    0    0  0.24768360082E+01  0.65669217745E+01 -0.66107339032E+01  0.96416275185E+01  0.51100000000E-03 0.  1.
         12    1    3    3    0    0 -0.25678688494E+02 -0.24463191812E+02  0.13892122746E+02  0.38089813215E+02  0.00000000000E+00 0. -1.
</event>
<event>
 7    1  0.3223600E-013  0.5930194E+02  0.7816164E-02  0.1266605E+00
        -11   -1    0    0    0    0  0.00000000000E+00  0.00000000000E+00  0.45593999997E+02  0.45594000000E+02  0.51100000000E-03 0.  1.
         11   -1    0    0    0    0 -0.00000000000E+00 -0.00000000000E+00 -0.45593999997E+02  0.45594000000E+02  0.51100000000E-03 0. -1.
    9900012    2    1    2    0    0 -0.30727653764E+02 -0.38576300170E+01  0.75928234208E+01  0.59301937485E+02  0.49999988068E+02 0.  0.
         12    1    1    2    0    0  0.30727653764E+02  0.38576300170E+01 -0.75928234208E+01  0.31886062515E+02  0.00000000000E+00 0. -1.
         11    1    3    3    0    0  0.81002668833E+01 -0.44499550244E+01  0.11296321830E+02  0.14595318100E+02  0.51100000000E-03 0. -1.
        -11    1    3    3    0    0 -0.24436225295E+01 -0.67911151483E+01  0.99098938028E+00  0.72850941131E+01  0.51100000000E-03 0.  1.
        -12    1    3    3    0    0 -0.36384298118E+02  0.73834401557E+01 -0.46944877894E+01  0.37421525272E+02  0.00000000000E+00 0.  1.
</event>
<event>
 7    1  0.3223600E-013  0.5930196E+02  0.7816164E-02  0.1266605E+00
        -11   -1    0    0    0    0  0.00000000000E+00  0.00000000000E+00  0.45593999997E+02  0.45594000000E+02  0.51100000000E-03 0.  1.
         11   -1    0    0    0    0 -0.00000000000E+00 -0.00000000000E+00 -0.45593999997E+02  0.45594000000E+02  0.51100000000E-03 0. -1.
    9900012    2    1    2    0    0 -0.13815770827E+01  0.15144695962E+02  0.28025866042E+02  0.59301956996E+02  0.50000023652E+02 0.  0.
         12    1    1    2    0    0  0.13815770827E+01 -0.15144695962E+02 -0.28025866042E+02  0.31886043004E+02  0.00000000000E+00 0. -1.
         11    1    3    3    0    0  0.54559376760E+01 -0.14039392555E+01 -0.53293952351E+00  0.56588272773E+01  0.51100000000E-03 0. -1.
        -11    1    3    3    0    0 -0.11394589196E+02  0.27737038847E+02  0.28776362349E+02  0.41560305788E+02  0.51100000000E-03 0.  1.
         12    1    3    3    0    0  0.45570744378E+01 -0.11188403629E+02 -0.21755678312E+00  0.12082823931E+02  0.00000000000E+00 0. -1.
</event>
<event>
 7    1  0.3223600E-013  0.5930193E+02  0.7816164E-02  0.1266605E+00
        -11   -1    0    0    0    0  0.00000000000E+00  0.00000000000E+00  0.45593999997E+02  0.45594000000E+02  0.51100000000E-03 0.  1.
         11   -1    0    0    0    0 -0.00000000000E+00 -0.00000000000E+00 -0.45593999997E+02  0.45594000000E+02  0.51100000000E-03 0. -1.
    9900012    2    1    2    0    0  0.29116944736E+02  0.11234849507E+02  0.65347667771E+01  0.59301929514E+02  0.49999973531E+02 0.  0.
         12    1    1    2    0    0 -0.29116944736E+02 -0.11234849507E+02 -0.65347667771E+01  0.31886070486E+02  0.00000000000E+00 0. -1.
         11    1    3    3    0    0  0.84703693195E+01  0.59853053153E+01  0.84010842132E+01  0.13347256360E+02  0.51100000000E-03 0. -1.
        -11    1    3    3    0    0  0.22888478786E+02 -0.44744829904E+01  0.14007270849E+02  0.27204909411E+02  0.51100000000E-03 0.  1.
         12    1    3    3    0    0 -0.22419033702E+01  0.97240271819E+01 -0.15873588285E+02  0.18749763743E+02  0.00000000000E+00 0. -1.
</event>
<event>
 7    1  0.3223600E-013  0.5930196E+02  0.7816164E-02  0.1266605E+00
        -11   -1    0    0    0    0  0.00000000000E+00  0.00000000000E+00  0.45593999997E+02  0.45594000000E+02  0.51100000000E-03 0.  1.
         11   -1    0    0    0    0 -0.00000000000E+00 -0.00000000000E+00 -0.45593999997E+02  0.45594000000E+02  0.51100000000E-03 0. -1.
    9900012    2    1    2    0    0  0.57622689743E+01 -0.30694413535E+02 -0.64318769785E+01  0.59301955914E+02  0.50000021677E+02 0.  0.
         12    1    1    2    0    0 -0.57622689743E+01  0.30694413535E+02  0.64318769785E+01  0.31886044086E+02  0.00000000000E+00 0. -1.
         11    1    3    3    0    0 -0.33959832491E+01  0.18291503105E+01 -0.29803847981E+01  0.48745447882E+01  0.51100000000E-03 0. -1.
        -11    1    3    3    0    0  0.16754889795E+02 -0.36262461283E+01 -0.14618710180E+02  0.22529595660E+02  0.51100000000E-03 0.  1.
        -12    1    3    3    0    0 -0.75966375712E+01 -0.28897317717E+02  0.11167217999E+02  0.31897815466E+02  0.00000000000E+00 0.  1.
</event>
<event>
 7    1  0.3223600E-013  0.5930199E+02  0.7816164E-02  0.1266605E+00
        -11   -1    0    0    0    0  0.00000000000E+00  0.00000000000E+00  0.45593999997E+02  0.45594000000E+02  0.51100000000E-03 0. -1.
         11   -1    0    0    0    0 -0.00000000000E+00 -0.00000000000E+00 -0.45593999997E+02  0.45594000000E+02  0.51100000000E-03 0.  1.
    9900012    2    1    2    0    0 -0.85219176306E+01 -0.27674415344E+02 -0.13349966503E+02  0.59301985034E+02  0.50000074786E+02 0.  0.
         12    1    1    2    0    0  0.85219176306E+01  0.27674415344E+02  0.13349966503E+02  0.31886014966E+02  0.00000000000E+00 0. -1.
         11    1    3    3    0    0 -0.90981773895E+01 -0.21884212533E+02 -0.20780411287E+01  0.23791045483E+02  0.51100000000E-03 0. -1.
        -11    1    3    3    0    0 -0.12378954119E+02 -0.23888566584E+01  0.57452734727E+01  0.13854721533E+02  0.51100000000E-03 0.  1.
        -12    1    3    3    0    0  0.12955213878E+02 -0.34013461534E+01 -0.17017198847E+02  0.21656218019E+02  0.00000000000E+00 0.  1.
</event>
<event>
 7    1  0.3223600E-013  0.5930196E+02  0.7816164E-02  0.1266605E+00
        -11   -1    0    0    0    0  0.00000000000E+00  0.00000000000E+00  0.45593999997E+02  0.45594000000E+02  0.51100000000E-03 0. -1.
         11   -1    0    0    0    0 -0.00000000000E+00 -0.00000000000E+00 -0.45593999997E+02  0.45594000000E+02  0.51100000000E-03 0.  1.
    9900012    2    1    2    0    0  0.71461831875E+01 -0.20551258135E+02 -0.23308738736E+02  0.59301961573E+02  0.50000031999E+02 0.  0.
         12    1    1    2    0    0 -0.71461831875E+01  0.20551258135E+02  0.23308738736E+02  0.31886038427E+02  0.00000000000E+00 0. -1.
         11    1    3    3    0    0 -0.60686838323E+01 -0.27945148438E+01 -0.60603907242E+01  0.90203421587E+01  0.51100000000E-03 0. -1.
        -11    1    3    3    0    0 -0.49334710323E+01  0.94011546897E+01 -0.13836225595E+02  0.17440240391E+02  0.51100000000E-03 0.  1.
         12    1    3    3    0    0  0.18148338052E+02 -0.27157897980E+02 -0.34121224170E+01  0.32841379023E+02  0.00000000000E+00 0. -1.
</event>
<event>
 7    1  0.3223600E-013  0.5930193E+02  0.7816164E-02  0.1266605E+00
        -11   -1    0    0    0    0  0.00000000000E+00  0.00000000000E+00  0.45593999997E+02  0.45594000000E+02  0.51100000000E-03 0.  1.
         11   -1    0    0    0    0 -0.00000000000E+00 -0.00000000000E+00 -0.45593999997E+02  0.45594000000E+02  0.51100000000E-03 0. -1.
    9900012    2    1    2    0    0  0.13944141031E+02  0.81891467361E+01  0.27481267859E+02  0.59301932878E+02  0.49999979666E+02 0.  0.
         12    1    1    2    0    0 -0.13944141031E+02 -0.81891467361E+01 -0.27481267859E+02  0.31886067122E+02  0.00000000000E+00 0. -1.
         11    1    3    3    0    0 -0.15507235590E+01 -0.90743703226E+00  0.57692822771E+00  0.18870696768E+01  0.51100000000E-03 0. -1.
        -11    1    3    3    0    0  0.68589484858E+01  0.71488655479E+00  0.39439466754E+02  0.40037829302E+02  0.51100000000E-03 0.  1.
         12    1    3    3    0    0  0.86359161042E+01  0.83816972135E+01 -0.12535127123E+02  0.17377033899E+02  0.00000000000E+00 0. -1.
</event>
<event>
 7    1  0.3223600E-013  0.5930221E+02  0.7816164E-02  0.1266604E+00
        -11   -1    0    0    0    0  0.00000000000E+00  0.00000000000E+00  0.45593999997E+02  0.45594000000E+02  0.51100000000E-03 0. -1.
         11   -1    0    0    0    0 -0.00000000000E+00 -0.00000000000E+00 -0.45593999997E+02  0.45594000000E+02  0.51100000000E-03 0.  1.
    9900012    2    1    2    0    0 -0.14975735186E+02  0.22307681672E+02 -0.17169684898E+02  0.59302213426E+02  0.50000491315E+02 0.  0.
         12    1    1    2    0    0  0.14975735186E+02 -0.22307681672E+02  0.17169684898E+02  0.31885786574E+02  0.00000000000E+00 0. -1.
         11    1    3    3    0    0 -0.50160539990E+01 -0.22407257865E+01  0.36007942932E+01  0.65686657377E+01  0.51100000000E-03 0. -1.
        -11    1    3    3    0    0  0.89295576291E+01  0.16377262278E+02  0.54193164225E+01  0.19424744784E+02  0.51100000000E-03 0.  1.
        -12    1    3    3    0    0 -0.18889238816E+02  0.81711451803E+01 -0.26189795614E+02  0.33308802904E+02  0.00000000000E+00 0.  1.
</event>
<event>
 7    1  0.3223600E-013  0.5930196E+02  0.7816164E-02  0.1266605E+00
        -11   -1    0    0    0    0  0.00000000000E+00  0.00000000000E+00  0.45593999997E+02  0.45594000000E+02  0.51100000000E-03 0. -1.
         11   -1    0    0    0    0 -0.00000000000E+00 -0.00000000000E+00 -0.45593999997E+02  0.45594000000E+02  0.51100000000E-03 0.  1.
    9900012    2    1    2    0    0  0.56149624148E+01  0.30914405641E+02 -0.54305808719E+01  0.59301960929E+02  0.50000030824E+02 0.  0.
         12    1    1    2    0    0 -0.56149624148E+01 -0.30914405641E+02  0.54305808719E+01  0.31886039071E+02  0.00000000000E+00 0. -1.
         11    1    3    3    0    0  0.17581400253E+01 -0.53694635255E+01  0.11320167027E+02  0.12651813177E+02  0.51100000000E-03 0. -1.
        -11    1    3    3    0    0  0.85173941044E+00  0.61682457854E+00 -0.10210009740E+02  0.10264026098E+02  0.51100000000E-03 0.  1.
         12    1    3    3    0    0  0.30050829790E+01  0.35667044588E+02 -0.65407381580E+01  0.36386121653E+02  0.00000000000E+00 0. -1.
</event>
<event>
 7    1  0.3223600E-013  0.5930195E+02  0.7816164E-02  0.1266605E+00
        -11   -1    0    0    0    0  0.00000000000E+00  0.00000000000E+00  0.45593999997E+02  0.45594000000E+02  0.51100000000E-03 0. -1.
         11   -1    0    0    0    0 -0.00000000000E+00 -0.00000000000E+00 -0.45593999997E+02  0.45594000000E+02  0.51100000000E-03 0.  1.
    9900012    2    1    2    0    0  0.21689653210E+02  0.75282034807E+01 -0.22127030870E+02  0.59301946636E+02  0.50000004757E+02 0.  0.
         12    1    1    2    0    0 -0.21689653210E+02 -0.75282034807E+01  0.22127030870E+02  0.31886053364E+02  0.00000000000E+00 0. -1.
         11    1    3    3    0    0  0.10235800354E+02 -0.39592510371E+01 -0.13346775317E+02  0.17279574338E+02  0.51100000000E-03 0. -1.
        -11    1    3    3    0    0 -0.16635752775E+01 -0.53456045100E+01 -0.17944340336E+02  0.18797401965E+02  0.51100000000E-03 0.  1.
         12    1    3    3    0    0  0.13117428133E+02  0.16833059028E+02  0.91640847833E+01  0.23224970333E+02  0.00000000000E+00 0. -1.
</event>
<event>
 7    1  0.3223600E-013  0.5930192E+02  0.7816164E-02  0.1266605E+00
        -11   -1    0    0    0    0  0.00000000000E+00  0.00000000000E+00  0.45593999997E+02  0.45594000000E+02  0.51100000000E-03 0.  1.
         11   -1    0    0    0    0 -0.00000000000E+00 -0.00000000000E+00 -0.45593999997E+02  0.45594000000E+02  0.51100000000E-03 0. -1.
    9900012    2    1    2    0    0  0.47981430110E+01  0.68453444399E+01  0.30770787446E+02  0.59301917191E+02  0.49999951055E+02 0.  0.
         12    1    1    2    0    0 -0.47981430110E+01 -0.68453444399E+01 -0.30770787446E+02  0.31886082809E+02  0.00000000000E+00 0. -1.
         11    1    3    3    0    0 -0.33331612313E+01  0.68514361912E+01 -0.47232560214E+01  0.89644458490E+01  0.51100000000E-03 0. -1.
        -11    1    3    3    0    0 -0.73915601293E+01  0.11635488889E+02  0.60014919253E+01  0.15034549159E+02  0.51100000000E-03 0.  1.
        -12    1    3    3    0    0  0.15522864372E+02 -0.11641580640E+02  0.29492551543E+02  0.35302922182E+02  0.00000000000E+00 0.  1.
</event>
<event>
 7    1  0.3223600E-013  0.5930168E+02  0.7816164E-02  0.1266606E+00
        -11   -1    0    0    0    0  0.00000000000E+00  0.00000000000E+00  0.45593999997E+02  0.45594000000E+02  0.51100000000E-03 0.  1.
         11   -1    0    0    0    0 -0.00000000000E+00 -0.00000000000E+00 -0.45593999997E+02  0.45594000000E+02  0.51100000000E-03 0. -1.
    9900012    2    1    2    0    0 -0.26113461875E+02 -0.14916392074E+02  0.10598386301E+02  0.59301679488E+02  0.49999517541E+02 0.  0.
         12    1    1    2    0    0  0.26113461875E+02  0.14916392074E+02 -0.10598386301E+02  0.31886320512E+02  0.00000000000E+00 0. -1.
         11    1    3    3    0    0 -0.16312963560E+02 -0.22924008122E+01  0.77728026232E+00  0.16491575015E+02  0.51100000000E-03 0. -1.
        -11    1    3    3    0    0 -0.23478579636E+02 -0.12269228332E+02  0.11772218675E+02  0.28989011684E+02  0.51100000000E-03 0.  1.
         12    1    3    3    0    0  0.13678081322E+02 -0.35476292995E+00 -0.19511126365E+01  0.13821092790E+02  0.00000000000E+00 0. -1.
</event>
<event>
 7    1  0.3223600E-013  0.5930194E+02  0.7816164E-02  0.1266605E+00
        -11   -1    0    0    0    0  0.00000000000E+00  0.00000000000E+00  0.45593999997E+02  0.45594000000E+02  0.51100000000E-03 0.  1.
         11   -1    0    0    0    0 -0.00000000000E+00 -0.00000000000E+00 -0.45593999997E+02  0.45594000000E+02  0.51100000000E-03 0. -1.
    9900012    2    1    2    0    0 -0.62786249542E+01 -0.19052744325E+02  0.24784932320E+02  0.59301936151E+02  0.49999985636E+02 0.  0.
         12    1    1    2    0    0  0.62786249542E+01  0.19052744325E+02 -0.24784932320E+02  0.31886063849E+02  0.00000000000E+00 0. -1.
         11    1    3    3    0    0 -0.15196548999E+02  0.35460751106E-01  0.52815952438E+01  0.16088244389E+02  0.51100000000E-03 0. -1.
        -11    1    3    3    0    0 -0.87457619761E+01 -0.50189368045E+01  0.17937414425E+02  0.20577388457E+02  0.51100000000E-03 0.  1.
        -12    1    3    3    0    0  0.17663686021E+02 -0.14069268271E+02  0.15659226513E+01  0.22636303305E+02  0.00000000000E+00 0.  1.
</event>
<event>
 7    1  0.3223600E-013  0.5930193E+02  0.7816164E-02  0.1266605E+00
        -11   -1    0    0    0    0  0.00000000000E+00  0.00000000000E+00  0.45593999997E+02  0.45594000000E+02  0.51100000000E-03 0.  1.
         11   -1    0    0    0    0 -0.00000000000E+00 -0.00000000000E+00 -0.45593999997E+02  0.45594000000E+02  0.51100000000E-03 0. -1.
    9900012    2    1    2    0    0 -0.20733647565E+02 -0.12590848449E+02  0.20695604038E+02  0.59301927296E+02  0.49999969485E+02 0.  0.
         12    1    1    2    0    0  0.20733647565E+02  0.12590848449E+02 -0.20695604038E+02  0.31886072704E+02  0.00000000000E+00 0. -1.
         11    1    3    3    0    0 -0.76961075518E+01 -0.55241128257E+01 -0.74323349497E+01  0.12040992360E+02  0.51100000000E-03 0. -1.
        -11    1    3    3    0    0 -0.17390874868E+02 -0.18569756638E+02  0.21379595052E+02  0.33231994751E+02  0.51100000000E-03 0.  1.
        -12    1    3    3    0    0  0.43533348548E+01  0.11503021015E+02  0.67483439355E+01  0.14028940185E+02  0.00000000000E+00 0.  1.
</event>
<event>
 7    1  0.3223600E-013  0.5930186E+02  0.7816164E-02  0.1266605E+00
        -11   -1    0    0    0    0  0.00000000000E+00  0.00000000000E+00  0.45593999997E+02  0.45594000000E+02  0.51100000000E-03 0.  1.
         11   -1    0    0    0    0 -0.00000000000E+00 -0.00000000000E+00 -0.45593999997E+02  0.45594000000E+02  0.51100000000E-03 0. -1.
    9900012    2    1    2    0    0 -0.42617319494E+01 -0.21870852095E+02  0.22808539368E+02  0.59301858831E+02  0.49999844621E+02 0.  0.
         12    1    1    2    0    0  0.42617319494E+01  0.21870852095E+02 -0.22808539368E+02  0.31886141169E+02  0.00000000000E+00 0. -1.
         11    1    3    3    0    0  0.14504568216E+02  0.38319413219E+01  0.65214306267E+01  0.16358341331E+02  0.51100000000E-03 0. -1.
        -11    1    3    3    0    0  0.21892044986E+01 -0.44778930788E+01 -0.43970199223E+01  0.66466478183E+01  0.51100000000E-03 0.  1.
        -12    1    3    3    0    0 -0.20955504664E+02 -0.21224900338E+02  0.20684128663E+02  0.36296869681E+02  0.00000000000E+00 0.  1.
</event>
<event>
 7    1  0.3223600E-013  0.5930192E+02  0.7816164E-02  0.1266605E+00
        -11   -1    0    0    0    0  0.00000000000E+00  0.00000000000E+00  0.45593999997E+02  0.45594000000E+02  0.51100000000E-03 0.  1.
         11   -1    0    0    0    0 -0.00000000000E+00 -0.00000000000E+00 -0.45593999997E+02  0.45594000000E+02  0.51100000000E-03 0. -1.
    9900012    2    1    2    0    0  0.41092007534E+01  0.30811438532E+02  0.71057801219E+01  0.59301915475E+02  0.49999947926E+02 0.  0.
         12    1    1    2    0    0 -0.41092007534E+01 -0.30811438532E+02 -0.71057801219E+01  0.31886084525E+02  0.00000000000E+00 0. -1.
         11    1    3    3    0    0  0.12788620966E+02  0.22596440575E+02  0.24378109556E+01  0.26078552019E+02  0.51100000000E-03 0. -1.
        -11    1    3    3    0    0 -0.10739414147E+02  0.17113289844E+02 -0.40399366607E+01  0.20603902397E+02  0.51100000000E-03 0.  1.
        -12    1    3    3    0    0  0.20599939343E+01 -0.88982918875E+01  0.87079058269E+01  0.12619461059E+02  0.00000000000E+00 0.  1.
</event>
<event>
 7    1  0.3223600E-013  0.5930213E+02  0.7816164E-02  0.1266604E+00
        -11   -1    0    0    0    0  0.00000000000E+00  0.00000000000E+00  0.45593999997E+02  0.45594000000E+02  0.51100000000E-03 0.  1.
         11   -1    0    0    0    0 -0.00000000000E+00 -0.00000000000E+00 -0.45593999997E+02  0.45594000000E+02  0.51100000000E-03 0. -1.
    9900012    2    1    2    0    0 -0.15322544337E+02 -0.21983189102E+02  0.17282005118E+02  0.59302130576E+02  0.50000340217E+02 0.  0.
         12    1    1    2    0    0  0.15322544337E+02  0.21983189102E+02 -0.17282005118E+02  0.31885869424E+02  0.00000000000E+00 0. -1.
         11    1    3    3    0    0 -0.53146328794E+01 -0.17203788330E+02  0.60171826986E+00  0.18016040649E+02  0.51100000000E-03 0. -1.
        -11    1    3    3    0    0  0.39825935598E+01 -0.17859994281E+02  0.10812557798E+02  0.21254454911E+02  0.51100000000E-03 0.  1.
         12    1    3    3    0    0 -0.13990505018E+02  0.13080593509E+02  0.58677290502E+01  0.20031635015E+02  0.00000000000E+00 0. -1.
</event>
<event>
 7    1  0.3223600E-013  0.5930193E+02  0.7816164E-02  0.1266605E+00
        -11   -1    0    0    0    0  0.00000000000E+00  0.00000000000E+00  0.45593999997E+02  0.45594000000E+02  0.51100000000E-03 0.  1.
         11   -1    0    0    0    0 -0.00000000000E+00 -0.00000000000E+00 -0.45593999997E+02  0.45594000000E+02  0.51100000000E-03 0. -1.
    9900012    2    1    2    0    0  0.29447099766E+02  0.11707413205E+02  0.35392569019E+01  0.59301928621E+02  0.49999971901E+02 0.  0.
         12    1    1    2    0    0 -0.29447099766E+02 -0.11707413205E+02 -0.35392569019E+01  0.31886071379E+02  0.00000000000E+00 0. -1.
         11    1    3    3    0    0  0.58122115121E+01 -0.84840443480E+01 -0.13709502539E+02  0.17138006631E+02  0.51100000000E-03 0. -1.
        -11    1    3    3    0    0  0.93134787105E+01 -0.33455126612E+01  0.47418964266E+00  0.99074818564E+01  0.51100000000E-03 0.  1.
        -12    1    3    3    0    0  0.14321409544E+02  0.23536970214E+02  0.16774569798E+02  0.32256440133E+02  0.00000000000E+00 0.  1.
</event>
<event>
 7    1  0.3223600E-013  0.5930182E+02  0.7816164E-02  0.1266605E+00
        -11   -1    0    0    0    0  0.00000000000E+00  0.00000000000E+00  0.45593999997E+02  0.45594000000E+02  0.51100000000E-03 0. -1.
         11   -1    0    0    0    0 -0.00000000000E+00 -0.00000000000E+00 -0.45593999997E+02  0.45594000000E+02  0.51100000000E-03 0.  1.
    9900012    2    1    2    0    0  0.62861349165E+01  0.91633784297E+01 -0.29887216934E+02  0.59301815962E+02  0.49999766439E+02 0.  0.
         12    1    1    2    0    0 -0.62861349165E+01 -0.91633784297E+01  0.29887216934E+02  0.31886184038E+02  0.00000000000E+00 0. -1.
         11    1    3    3    0    0  0.40748328574E+01 -0.72897834986E+01  0.47073223422E+01  0.95866620973E+01  0.51100000000E-03 0. -1.
        -11    1    3    3    0    0 -0.18355687500E+01 -0.93109940769E+01 -0.73831553747E+01  0.12023930592E+02  0.51100000000E-03 0.  1.
        -12    1    3    3    0    0  0.40468708091E+01  0.25764156005E+02 -0.27211383901E+02  0.37691223273E+02  0.00000000000E+00 0.  1.
</event>
<event>
 7    1  0.3223600E-013  0.5930193E+02  0.7816164E-02  0.1266605E+00
        -11   -1    0    0    0    0  0.00000000000E+00  0.00000000000E+00  0.45593999997E+02  0.45594000000E+02  0.51100000000E-03 0.  1.
         11   -1    0    0    0    0 -0.00000000000E+00 -0.00000000000E+00 -0.45593999997E+02  0.45594000000E+02  0.51100000000E-03 0. -1.
    9900012    2    1    2    0    0  0.21758473330E+02 -0.22720180613E+02 -0.52041891336E+01  0.59301931674E+02  0.49999977469E+02 0.  0.
         12    1    1    2    0    0 -0.21758473330E+02  0.22720180613E+02  0.52041891336E+01  0.31886068326E+02  0.00000000000E+00 0. -1.
         11    1    3    3    0    0  0.11943174284E+02 -0.13811198957E+02  0.50132318502E+01  0.18934654009E+02  0.51100000000E-03 0. -1.
        -11    1    3    3    0    0  0.43745153709E+01  0.87270518835E+01  0.93158872546E+01  0.13493834700E+02  0.51100000000E-03 0.  1.
         12    1    3    3    0    0  0.54407836753E+01 -0.17636033540E+02 -0.19533308238E+02  0.26873442964E+02  0.00000000000E+00 0. -1.
</event>
<event>
 7    1  0.3223600E-013  0.5930191E+02  0.7816164E-02  0.1266605E+00
        -11   -1    0    0    0    0  0.00000000000E+00  0.00000000000E+00  0.45593999997E+02  0.45594000000E+02  0.51100000000E-03 0.  1.
         11   -1    0    0    0    0 -0.00000000000E+00 -0.00000000000E+00 -0.45593999997E+02  0.45594000000E+02  0.51100000000E-03 0. -1.
    9900012    2    1    2    0    0 -0.68800965299E+01  0.34445536902E+01  0.30943852623E+02  0.59301910658E+02  0.49999939142E+02 0.  0.
         12    1    1    2    0    0  0.68800965299E+01 -0.34445536902E+01 -0.30943852623E+02  0.31886089342E+02  0.00000000000E+00 0. -1.
         11    1    3    3    0    0 -0.16315440932E+02 -0.29272739852E+01  0.83644930518E+01  0.18566833065E+02  0.51100000000E-03 0. -1.
        -11    1    3    3    0    0 -0.45544658066E+01 -0.19053433665E+01  0.23920640058E+02  0.24424793001E+02  0.51100000000E-03 0.  1.
        -12    1    3    3    0    0  0.13989810208E+02  0.82771710419E+01 -0.13412804869E+01  0.16310284592E+02  0.00000000000E+00 0.  1.
</event>
<event>
 7    1  0.3223600E-013  0.5930194E+02  0.7816164E-02  0.1266605E+00
        -11   -1    0    0    0    0  0.00000000000E+00  0.00000000000E+00  0.45593999997E+02  0.45594000000E+02  0.51100000000E-03 0. -1.
         11   -1    0    0    0    0 -0.00000000000E+00 -0.00000000000E+00 -0.45593999997E+02  0.45594000000E+02  0.51100000000E-03 0.  1.
    9900012    2    1    2    0    0  0.16641496520E+02 -0.19388424281E+02 -0.19075382293E+02  0.59301943296E+02  0.49999998665E+02 0.  0.
         12    1    1    2    0    0 -0.16641496520E+02  0.19388424281E+02  0.19075382293E+02  0.31886056704E+02  0.00000000000E+00 0. -1.
         11    1    3    3    0    0  0.42576289073E+00 -0.16191824935E+02  0.20633035955E+01  0.16328309489E+02  0.51100000000E-03 0. -1.
        -11    1    3    3    0    0 -0.12443574895E+01 -0.11022276923E+02 -0.21102247407E+02  0.23839963507E+02  0.51100000000E-03 0.  1.
        -12    1    3    3    0    0  0.17460091119E+02  0.78256775772E+01 -0.36438481547E-01  0.19133670301E+02  0.00000000000E+00 0.  1.
</event>
<event>
 7    1  0.3223600E-013  0.5930194E+02  0.7816164E-02  0.1266605E+00
        -11   -1    0    0    0    0  0.00000000000E+00  0.00000000000E+00  0.45593999997E+02  0.45594000000E+02  0.51100000000E-03 0.  1.
         11   -1    0    0    0    0 -0.00000000000E+00 -0.00000000000E+00 -0.45593999997E+02  0.45594000000E+02  0.51100000000E-03 0. -1.
    9900012    2    1    2    0    0  0.96357433761E+01  0.63655407029E+01  0.29721256419E+02  0.59301941259E+02  0.49999994951E+02 0.  0.
         12    1    1    2    0    0 -0.96357433761E+01 -0.63655407029E+01 -0.29721256419E+02  0.31886058741E+02  0.00000000000E+00 0. -1.
         11    1    3    3    0    0  0.13846228888E+02  0.28850210714E+01  0.42546681298E+01  0.14769685242E+02  0.51100000000E-03 0. -1.
        -11    1    3    3    0    0 -0.42797614143E+01 -0.13208479550E+02 -0.23617900404E+00  0.13886542787E+02  0.51100000000E-03 0.  1.
         12    1    3    3    0    0  0.69275902235E-01  0.16688999182E+02  0.25702767294E+02  0.30645713230E+02  0.00000000000E+00 0. -1.
</event>
<event>
 7    1  0.3223600E-013  0.5930193E+02  0.7816164E-02  0.1266605E+00
        -11   -1    0    0    0    0  0.00000000000E+00  0.00000000000E+00  0.45593999997E+02  0.45594000000E+02  0.51100000000E-03 0. -1.
         11   -1    0    0    0    0 -0.00000000000E+00 -0.00000000000E+00 -0.45593999997E+02  0.45594000000E+02  0.51100000000E-03 0.  1.
    9900012    2    1    2    0    0 -0.46547303239E+01  0.12823250746E+02 -0.28820464119E+02  0.59301930532E+02  0.49999975387E+02 0.  0.
         12    1    1    2    0    0  0.46547303239E+01 -0.12823250746E+02  0.28820464119E+02  0.31886069468E+02  0.00000000000E+00 0. -1.
         11    1    3    3    0    0  0.10031492349E+02  0.11336971148E+02 -0.13515956301E+02  0.20293812569E+02  0.51100000000E-03 0. -1.
        -11    1    3    3    0    0 -0.97555578645E+01  0.15946817152E+02 -0.20947192256E+01  0.18811159864E+02  0.51100000000E-03 0.  1.
         12    1    3    3    0    0 -0.49306648086E+01 -0.14460537555E+02 -0.13209788592E+02  0.20196958100E+02  0.00000000000E+00 0. -1.
</event>
<event>
 7    1  0.3223600E-013  0.5930194E+02  0.7816164E-02  0.1266605E+00
        -11   -1    0    0    0    0  0.00000000000E+00  0.00000000000E+00  0.45593999997E+02  0.45594000000E+02  0.51100000000E-03 0. -1.
         11   -1    0    0    0    0 -0.00000000000E+00 -0.00000000000E+00 -0.45593999997E+02  0.45594000000E+02  0.51100000000E-03 0.  1.
    9900012    2    1    2    0    0 -0.28635647447E+01  0.13822785272E+02 -0.28591103936E+02  0.59301943173E+02  0.49999998440E+02 0.  0.
         12    1    1    2    0    0  0.28635647447E+01 -0.13822785272E+02  0.28591103936E+02  0.31886056827E+02  0.00000000000E+00 0. -1.
         11    1    3    3    0    0 -0.10676100306E+02 -0.45124445135E+01  0.57001816643E+01  0.12916398279E+02  0.51100000000E-03 0. -1.
        -11    1    3    3    0    0 -0.47698447918E-01 -0.55342080408E+01 -0.31462225592E+01  0.63661959154E+01  0.51100000000E-03 0.  1.
        -12    1    3    3    0    0  0.78602340090E+01  0.23869437827E+02 -0.31145063041E+02  0.40019348978E+02  0.00000000000E+00 0.  1.
</event>
<event>
 7    1  0.3223600E-013  0.5930194E+02  0.7816164E-02  0.1266605E+00
        -11   -1    0    0    0    0  0.00000000000E+00  0.00000000000E+00  0.45593999997E+02  0.45594000000E+02  0.51100000000E-03 0.  1.
         11   -1    0    0    0    0 -0.00000000000E+00 -0.00000000000E+00 -0.45593999997E+02  0.45594000000E+02  0.51100000000E-03 0. -1.
    9900012    2    1    2    0    0  0.39547513101E+01  0.31484027458E+02 -0.31363224300E+01  0.59301944093E+02  0.50000000120E+02 0.  0.
         12    1    1    2    0    0 -0.39547513101E+01 -0.31484027458E+02  0.31363224300E+01  0.31886055907E+02  0.00000000000E+00 0. -1.
         11    1    3    3    0    0  0.26216659590E+01  0.24331174211E+01  0.25734298335E+01  0.44063288750E+01  0.51100000000E-03 0. -1.
        -11    1    3    3    0    0  0.62842104213E+01  0.52427814535E+01  0.18717071610E+02  0.20428089188E+02  0.51100000000E-03 0.  1.
         12    1    3    3    0    0 -0.49511250702E+01  0.23808128583E+02 -0.24426823873E+02  0.34467526030E+02  0.00000000000E+00 0. -1.
</event>
<event>
 7    1  0.3223600E-013  0.5930194E+02  0.7816164E-02  0.1266605E+00
        -11   -1    0    0    0    0  0.00000000000E+00  0.00000000000E+00  0.45593999997E+02  0.45594000000E+02  0.51100000000E-03 0. -1.
         11   -1    0    0    0    0 -0.00000000000E+00 -0.00000000000E+00 -0.45593999997E+02  0.45594000000E+02  0.51100000000E-03 0.  1.
    9900012    2    1    2    0    0  0.12697085826E+02  0.16922493959E+02 -0.23856528711E+02  0.59301941096E+02  0.49999994653E+02 0.  0.
         12    1    1    2    0    0 -0.12697085826E+02 -0.16922493959E+02  0.23856528711E+02  0.31886058904E+02  0.00000000000E+00 0. -1.
         11    1    3    3    0    0  0.21208645308E+02  0.85577732184E+01 -0.12418733455E+02  0.26024355115E+02  0.51100000000E-03 0.  1.
        -11    1    3    3    0    0  0.39480722990E+01  0.57528892975E+01  0.76372603045E+01  0.10344600300E+02  0.51100000000E-03 0. -1.
        -12    1    3    3    0    0 -0.12459631781E+02  0.26118314436E+01 -0.19075055560E+02  0.22932985681E+02  0.00000000000E+00 0.  1.
</event>
<event>
 7    1  0.3223600E-013  0.5930195E+02  0.7816164E-02  0.1266605E+00
        -11   -1    0    0    0    0  0.00000000000E+00  0.00000000000E+00  0.45593999997E+02  0.45594000000E+02  0.51100000000E-03 0. -1.
         11   -1    0    0    0    0 -0.00000000000E+00 -0.00000000000E+00 -0.45593999997E+02  0.45594000000E+02  0.51100000000E-03 0.  1.
    9900012    2    1    2    0    0  0.18913349933E+02 -0.19600656436E+01 -0.25596157156E+02  0.59301954083E+02  0.50000018339E+02 0.  0.
         12    1    1    2    0    0 -0.18913349933E+02  0.19600656436E+01  0.25596157156E+02  0.31886045917E+02  0.00000000000E+00 0. -1.
         11    1    3    3    0    0  0.53972940393E+01  0.16485570225E+02 -0.62547875700E+01  0.18439825823E+02  0.51100000000E-03 0. -1.
        -11    1    3    3    0    0  0.11054478306E+02  0.47745087074E+01 -0.10218909222E+02  0.15793148197E+02  0.51100000000E-03 0.  1.
         12    1    3    3    0    0  0.24615775879E+01 -0.23220144576E+02 -0.91224603646E+01  0.25068980064E+02  0.00000000000E+00 0. -1.
</event>
<event>
 7    1  0.3223600E-013  0.5930192E+02  0.7816164E-02  0.1266605E+00
        -11   -1    0    0    0    0  0.00000000000E+00  0.00000000000E+00  0.45593999997E+02  0.45594000000E+02  0.51100000000E-03 0.  1.
         11   -1    0    0    0    0 -0.00000000000E+00 -0.00000000000E+00 -0.45593999997E+02  0.45594000000E+02  0.51100000000E-03 0. -1.
    9900012    2    1    2    0    0 -0.15457235006E+01 -0.87964732751E+01  0.30609719883E+02  0.59301919110E+02  0.49999954556E+02 0.  0.
         12    1    1    2    0    0  0.15457235006E+01  0.87964732751E+01 -0.30609719883E+02  0.31886080890E+02  0.00000000000E+00 0. -1.
         11    1    3    3    0    0 -0.99758892761E+01 -0.52082521288E+00  0.10959471451E+02  0.14829013470E+02  0.51100000000E-03 0. -1.
        -11    1    3    3    0    0 -0.48864247269E+01 -0.19058920997E+01  0.27333006581E+02  0.27831687342E+02  0.51100000000E-03 0.  1.
         12    1    3    3    0    0  0.13316590502E+02 -0.63697559625E+01 -0.76827581492E+01  0.16641218297E+02  0.00000000000E+00 0. -1.
</event>
<event>
 7    1  0.3223600E-013  0.5930193E+02  0.7816164E-02  0.1266605E+00
        -11   -1    0    0    0    0  0.00000000000E+00  0.00000000000E+00  0.45593999997E+02  0.45594000000E+02  0.51100000000E-03 0.  1.
         11   -1    0    0    0    0 -0.00000000000E+00 -0.00000000000E+00 -0.45593999997E+02  0.45594000000E+02  0.51100000000E-03 0. -1.
    9900012    2    1    2    0    0 -0.49395316044E+01  0.25731808862E+02  0.18171303450E+02  0.59301933625E+02  0.49999981028E+02 0.  0.
         12    1    1    2    0    0  0.49395316044E+01 -0.25731808862E+02 -0.18171303450E+02  0.31886066375E+02  0.00000000000E+00 0. -1.
         11    1    3    3    0    0 -0.14988784740E+01  0.64716596781E+01 -0.89167151153E+01  0.11119209701E+02  0.51100000000E-03 0. -1.
        -11    1    3    3    0    0 -0.10185316326E+02  0.13383600663E+02 -0.27417318496E+01  0.17040496740E+02  0.51100000000E-03 0.  1.
         12    1    3    3    0    0  0.67446631954E+01  0.58765485213E+01  0.29829750415E+02  0.31142227183E+02  0.00000000000E+00 0. -1.
</event>
<event>
 7    1  0.3223600E-013  0.5930194E+02  0.7816164E-02  0.1266605E+00
        -11   -1    0    0    0    0  0.00000000000E+00  0.00000000000E+00  0.45593999997E+02  0.45594000000E+02  0.51100000000E-03 0.  1.
         11   -1    0    0    0    0 -0.00000000000E+00 -0.00000000000E+00 -0.45593999997E+02  0.45594000000E+02  0.51100000000E-03 0. -1.
    9900012    2    1    2    0    0 -0.23796487251E+02 -0.13750995929E+02  0.16166578557E+02  0.59301937892E+02  0.49999988809E+02 0.  0.
         12    1    1    2    0    0  0.23796487251E+02  0.13750995929E+02 -0.16166578557E+02  0.31886062108E+02  0.00000000000E+00 0. -1.
         11    1    3    3    0    0  0.23587703374E+01  0.72960723872E+01 -0.87283368410E+01  0.11618103720E+02  0.51100000000E-03 0. -1.
        -11    1    3    3    0    0  0.30333307080E+00 -0.93954272249E+01  0.13842618921E+02  0.16732727289E+02  0.51100000000E-03 0.  1.
        -12    1    3    3    0    0 -0.26458590659E+02 -0.11651641092E+02  0.11052296477E+02  0.30951106882E+02  0.00000000000E+00 0.  1.
</event>
<event>
 7    1  0.3223600E-013  0.5930196E+02  0.7816164E-02  0.1266605E+00
        -11   -1    0    0    0    0  0.00000000000E+00  0.00000000000E+00  0.45593999997E+02  0.45594000000E+02  0.51100000000E-03 0. -1.
         11   -1    0    0    0    0 -0.00000000000E+00 -0.00000000000E+00 -0.45593999997E+02  0.45594000000E+02  0.51100000000E-03 0.  1.
    9900012    2    1    2    0    0  0.18268132720E+02  0.22102302264E+02 -0.13945725114E+02  0.59301957796E+02  0.50000025111E+02 0.  0.
         12    1    1    2    0    0 -0.18268132720E+02 -0.22102302264E+02  0.13945725114E+02  0.31886042204E+02  0.00000000000E+00 0. -1.
         11    1    3    3    0    0 -0.53825870480E+01  0.86263721727E+01  0.54484683211E+01  0.11535698830E+02  0.51100000000E-03 0. -1.
        -11    1    3    3    0    0  0.18520216274E+01 -0.66267336189E+01 -0.16614916731E+02  0.17983298941E+02  0.51100000000E-03 0.  1.
        -12    1    3    3    0    0  0.21798698140E+02  0.20102663711E+02 -0.27792767038E+01  0.29782960025E+02  0.00000000000E+00 0.  1.
</event>
<event>
 7    1  0.3223600E-013  0.5930194E+02  0.7816164E-02  0.1266605E+00
        -11   -1    0    0    0    0  0.00000000000E+00  0.00000000000E+00  0.45593999997E+02  0.45594000000E+02  0.51100000000E-03 0.  1.
         11   -1    0    0    0    0 -0.00000000000E+00 -0.00000000000E+00 -0.45593999997E+02  0.45594000000E+02  0.51100000000E-03 0. -1.
    9900012    2    1    2    0    0 -0.16509250909E+02 -0.33967925478E+01  0.27067088241E+02  0.59301939863E+02  0.49999992405E+02 0.  0.
         12    1    1    2    0    0  0.16509250909E+02  0.33967925478E+01 -0.27067088241E+02  0.31886060137E+02  0.00000000000E+00 0. -1.
         11    1    3    3    0    0 -0.79044448659E+00 -0.61531855811E+01 -0.68675854627E+01  0.92547407111E+01  0.51100000000E-03 0. -1.
        -11    1    3    3    0    0 -0.10755196411E+01  0.16598534686E+02  0.15100431561E+02  0.22465331732E+02  0.51100000000E-03 0.  1.
         12    1    3    3    0    0 -0.14643286782E+02 -0.13842141653E+02  0.18834242142E+02  0.27581867420E+02  0.00000000000E+00 0. -1.
</event>
<event>
 7    1  0.3223600E-013  0.5930184E+02  0.7816164E-02  0.1266605E+00
        -11   -1    0    0    0    0  0.00000000000E+00  0.00000000000E+00  0.45593999997E+02  0.45594000000E+02  0.51100000000E-03 0.  1.
         11   -1    0    0    0    0 -0.00000000000E+00 -0.00000000000E+00 -0.45593999997E+02  0.45594000000E+02  0.51100000000E-03 0. -1.
    9900012    2    1    2    0    0  0.18131438170E+01 -0.57040740086E+01  0.31319379067E+02  0.59301835979E+02  0.49999802945E+02 0.  0.
         12    1    1    2    0    0 -0.18131438170E+01  0.57040740086E+01 -0.31319379067E+02  0.31886164021E+02  0.00000000000E+00 0. -1.
         11    1    3    3    0    0 -0.15932282750E+02 -0.15493487694E+02  0.28874037939E+02  0.36436188902E+02  0.51100000000E-03 0.  1.
        -11    1    3    3    0    0  0.22292075426E+01  0.40478184094E+01 -0.29278690032E+01  0.54705225806E+01  0.51100000000E-03 0. -1.
        -12    1    3    3    0    0  0.15516219024E+02  0.57415952765E+01  0.53732101316E+01  0.17395124496E+02  0.00000000000E+00 0.  1.
</event>
<event>
 7    1  0.3223600E-013  0.5930195E+02  0.7816164E-02  0.1266605E+00
        -11   -1    0    0    0    0  0.00000000000E+00  0.00000000000E+00  0.45593999997E+02  0.45594000000E+02  0.51100000000E-03 0.  1.
         11   -1    0    0    0    0 -0.00000000000E+00 -0.00000000000E+00 -0.45593999997E+02  0.45594000000E+02  0.51100000000E-03 0. -1.
    9900012    2    1    2    0    0 -0.23161891254E+02 -0.27913202966E+01 -0.21736038164E+02  0.59301952416E+02  0.50000015299E+02 0.  0.
         12    1    1    2    0    0  0.23161891254E+02  0.27913202966E+01  0.21736038164E+02  0.31886047584E+02  0.00000000000E+00 0. -1.
         11    1    3    3    0    0 -0.26384794059E+02  0.11766869692E+02 -0.15946882915E+02  0.32998782626E+02  0.51100000000E-03 0. -1.
        -11    1    3    3    0    0 -0.30164767074E+01  0.39168390990E+00  0.56877279625E+01  0.64500230734E+01  0.51100000000E-03 0.  1.
        -12    1    3    3    0    0  0.62393795121E+01 -0.14949873899E+02 -0.11476883212E+02  0.19853146717E+02  0.00000000000E+00 0.  1.
</event>
<event>
 7    1  0.3223600E-013  0.5930172E+02  0.7816164E-02  0.1266606E+00
        -11   -1    0    0    0    0  0.00000000000E+00  0.00000000000E+00  0.45593999997E+02  0.45594000000E+02  0.51100000000E-03 0.  1.
         11   -1    0    0    0    0 -0.00000000000E+00 -0.00000000000E+00 -0.45593999997E+02  0.45594000000E+02  0.51100000000E-03 0. -1.
    9900012    2    1    2    0    0 -0.11727710885E+02  0.24682319145E+02  0.16431029633E+02  0.59301720572E+02  0.49999592469E+02 0.  0.
         12    1    1    2    0    0  0.11727710885E+02 -0.24682319145E+02 -0.16431029633E+02  0.31886279428E+02  0.00000000000E+00 0. -1.
         11    1    3    3    0    0  0.95929713410E+01 -0.14514967405E+01 -0.46157583654E+01  0.10744168999E+02  0.51100000000E-03 0. -1.
        -11    1    3    3    0    0 -0.13383951155E+02 -0.12449530933E+00 -0.91775214908E+00  0.13415957546E+02  0.51100000000E-03 0.  1.
        -12    1    3    3    0    0 -0.79367310708E+01  0.26258311194E+02  0.21964540148E+02  0.35141594027E+02  0.00000000000E+00 0.  1.
</event>
<event>
 7    1  0.3223600E-013  0.5930196E+02  0.7816164E-02  0.1266605E+00
        -11   -1    0    0    0    0  0.00000000000E+00  0.00000000000E+00  0.45593999997E+02  0.45594000000E+02  0.51100000000E-03 0.  1.
         11   -1    0    0    0    0 -0.00000000000E+00 -0.00000000000E+00 -0.45593999997E+02  0.45594000000E+02  0.51100000000E-03 0. -1.
    9900012    2    1    2    0    0  0.89833540599E+01  0.30589188507E+02  0.56619947277E+00  0.59301957826E+02  0.50000025165E+02 0.  0.
         12    1    1    2    0    0 -0.89833540599E+01 -0.30589188507E+02 -0.56619947277E+00  0.31886042174E+02  0.00000000000E+00 0. -1.
         11    1    3    3    0    0  0.51350917431E+01  0.10101584395E+01 -0.34596382775E+01  0.62736500185E+01  0.51100000000E-03 0. -1.
        -11    1    3    3    0    0  0.19367964562E+02  0.53285272914E+01  0.11680424401E+02  0.23236685840E+02  0.51100000000E-03 0.  1.
         12    1    3    3    0    0 -0.15519702245E+02  0.24250502776E+02 -0.76545866504E+01  0.29791621968E+02  0.00000000000E+00 0. -1.
</event>
<event>
 7    1  0.3223600E-013  0.5930199E+02  0.7816164E-02  0.1266605E+00
        -11   -1    0    0    0    0  0.00000000000E+00  0.00000000000E+00  0.45593999997E+02  0.45594000000E+02  0.51100000000E-03 0. -1.
         11   -1    0    0    0    0 -0.00000000000E+00 -0.00000000000E+00 -0.45593999997E+02  0.45594000000E+02  0.51100000000E-03 0.  1.
    9900012    2    1    2    0    0  0.59529404015E+01 -0.30805978174E+02  0.56808522972E+01  0.59301986240E+02  0.50000076984E+02 0.  0.
         12    1    1    2    0    0 -0.59529404015E+01  0.30805978174E+02 -0.56808522972E+01  0.31886013760E+02  0.00000000000E+00 0. -1.
         11    1    3    3    0    0  0.53164195197E+01 -0.10260085086E+02  0.37704601550E+01  0.12155247119E+02  0.51100000000E-03 0. -1.
        -11    1    3    3    0    0  0.84886833841E+01 -0.55937668069E+01 -0.18223652368E+02  0.20867426256E+02  0.51100000000E-03 0.  1.
         12    1    3    3    0    0 -0.78521625024E+01 -0.14952126282E+02  0.20134044510E+02  0.26279312865E+02  0.00000000000E+00 0. -1.
</event>
<event>
 7    1  0.3223600E-013  0.5930195E+02  0.7816164E-02  0.1266605E+00
        -11   -1    0    0    0    0  0.00000000000E+00  0.00000000000E+00  0.45593999997E+02  0.45594000000E+02  0.51100000000E-03 0.  1.
         11   -1    0    0    0    0 -0.00000000000E+00 -0.00000000000E+00 -0.45593999997E+02  0.45594000000E+02  0.51100000000E-03 0. -1.
    9900012    2    1    2    0    0  0.26496219663E+02 -0.10830642186E+02  0.14048753458E+02  0.59301953830E+02  0.50000017878E+02 0.  0.
         12    1    1    2    0    0 -0.26496219663E+02  0.10830642186E+02 -0.14048753458E+02  0.31886046170E+02  0.00000000000E+00 0. -1.
         11    1    3    3    0    0  0.19033077714E+02 -0.22454452242E+01  0.81196661653E+01  0.20814155050E+02  0.51100000000E-03 0. -1.
        -11    1    3    3    0    0 -0.12639475203E+01 -0.11265392516E+01  0.20144566152E+02  0.20215592985E+02  0.51100000000E-03 0.  1.
         12    1    3    3    0    0  0.87270894693E+01 -0.74586577104E+01 -0.14215478859E+02  0.18272205796E+02  0.00000000000E+00 0. -1.
</event>
<event>
 7    1  0.3223600E-013  0.5930192E+02  0.7816164E-02  0.1266605E+00
        -11   -1    0    0    0    0  0.00000000000E+00  0.00000000000E+00  0.45593999997E+02  0.45594000000E+02  0.51100000000E-03 0.  1.
         11   -1    0    0    0    0 -0.00000000000E+00 -0.00000000000E+00 -0.45593999997E+02  0.45594000000E+02  0.51100000000E-03 0. -1.
    9900012    2    1    2    0    0  0.10572730639E+02  0.18325201020E+02  0.23856366918E+02  0.59301923601E+02  0.49999962747E+02 0.  0.
         12    1    1    2    0    0 -0.10572730639E+02 -0.18325201020E+02 -0.23856366918E+02  0.31886076399E+02  0.00000000000E+00 0. -1.
         11    1    3    3    0    0  0.49144712391E+01  0.14760457796E+02  0.96810557757E+01  0.18323372591E+02  0.51100000000E-03 0.  1.
        -11    1    3    3    0    0  0.11753433495E+02  0.14522860347E+02 -0.37962986077E+01  0.19064851296E+02  0.51100000000E-03 0. -1.
        -12    1    3    3    0    0 -0.60951740951E+01 -0.10958117123E+02  0.17971609750E+02  0.21913699714E+02  0.00000000000E+00 0.  1.
</event>
<event>
 7    1  0.3223600E-013  0.5930194E+02  0.7816164E-02  0.1266605E+00
        -11   -1    0    0    0    0  0.00000000000E+00  0.00000000000E+00  0.45593999997E+02  0.45594000000E+02  0.51100000000E-03 0.  1.
         11   -1    0    0    0    0 -0.00000000000E+00 -0.00000000000E+00 -0.45593999997E+02  0.45594000000E+02  0.51100000000E-03 0. -1.
    9900012    2    1    2    0    0  0.28836273069E+02 -0.59078438946E+00  0.13595634585E+02  0.59301937991E+02  0.49999988990E+02 0.  0.
         12    1    1    2    0    0 -0.28836273069E+02  0.59078438946E+00 -0.13595634585E+02  0.31886062009E+02  0.00000000000E+00 0. -1.
         11    1    3    3    0    0  0.33589105930E+02 -0.50444459340E+01  0.48059250837E+01  0.34304101623E+02  0.51100000000E-03 0. -1.
        -11    1    3    3    0    0  0.21584650914E+01 -0.64782941806E+01  0.98893298904E+01  0.12017741592E+02  0.51100000000E-03 0.  1.
         12    1    3    3    0    0 -0.69112979532E+01  0.10931955725E+02 -0.10996203886E+01  0.12980094775E+02  0.00000000000E+00 0. -1.
</event>
<event>
 7    1  0.3223600E-013  0.5930198E+02  0.7816164E-02  0.1266605E+00
        -11   -1    0    0    0    0  0.00000000000E+00  0.00000000000E+00  0.45593999997E+02  0.45594000000E+02  0.51100000000E-03 0.  1.
         11   -1    0    0    0    0 -0.00000000000E+00 -0.00000000000E+00 -0.45593999997E+02  0.45594000000E+02  0.51100000000E-03 0. -1.
    9900012    2    1    2    0    0  0.36084685117E+01 -0.81688668794E+01  0.30609912882E+02  0.59301981155E+02  0.50000067712E+02 0.  0.
         12    1    1    2    0    0 -0.36084685117E+01  0.81688668794E+01 -0.30609912882E+02  0.31886018845E+02  0.00000000000E+00 0. -1.
         11    1    3    3    0    0 -0.31867247725E+01 -0.51777578749E+01  0.71306360368E+01  0.93707183256E+01  0.51100000000E-03 0. -1.
        -11    1    3    3    0    0  0.45915458531E+01  0.11297366611E+02  0.31230568545E+02  0.33527021901E+02  0.51100000000E-03 0.  1.
         12    1    3    3    0    0  0.22036474311E+01 -0.14288475616E+02 -0.77512916993E+01  0.16404240928E+02  0.00000000000E+00 0. -1.
</event>
<event>
 7    1  0.3223600E-013  0.5930195E+02  0.7816164E-02  0.1266605E+00
        -11   -1    0    0    0    0  0.00000000000E+00  0.00000000000E+00  0.45593999997E+02  0.45594000000E+02  0.51100000000E-03 0.  1.
         11   -1    0    0    0    0 -0.00000000000E+00 -0.00000000000E+00 -0.45593999997E+02  0.45594000000E+02  0.51100000000E-03 0. -1.
    9900012    2    1    2    0    0  0.13707892773E+02  0.88398405686E+01  0.27398381784E+02  0.59301946153E+02  0.50000003877E+02 0.  0.
         12    1    1    2    0    0 -0.13707892773E+02 -0.88398405686E+01 -0.27398381784E+02  0.31886053847E+02  0.00000000000E+00 0. -1.
         11    1    3    3    0    0  0.13323623108E+02 -0.51672234078E+01 -0.10091192068E+01  0.14326110858E+02  0.51100000000E-03 0.  1.
        -11    1    3    3    0    0  0.83437546434E+01  0.20725225383E+02  0.11525860666E+02  0.25139583788E+02  0.51100000000E-03 0. -1.
         12    1    3    3    0    0 -0.79594849787E+01 -0.67181614061E+01  0.16881640325E+02  0.19836251507E+02  0.00000000000E+00 0. -1.
</event>
<event>
 7    1  0.3223600E-013  0.5930197E+02  0.7816164E-02  0.1266605E+00
        -11   -1    0    0    0    0  0.00000000000E+00  0.00000000000E+00  0.45593999997E+02  0.45594000000E+02  0.51100000000E-03 0.  1.
         11   -1    0    0    0    0 -0.00000000000E+00 -0.00000000000E+00 -0.45593999997E+02  0.45594000000E+02  0.51100000000E-03 0. -1.
    9900012    2    1    2    0    0  0.16056151059E+02 -0.16203691214E+02  0.22279129400E+02  0.59301965399E+02  0.50000038976E+02 0.  0.
         12    1    1    2    0    0 -0.16056151059E+02  0.16203691214E+02 -0.22279129400E+02  0.31886034601E+02  0.00000000000E+00 0. -1.
         11    1    3    3    0    0  0.11334149106E+02 -0.12561539222E+02  0.14119668593E+02  0.22036792984E+02  0.51100000000E-03 0. -1.
        -11    1    3    3    0    0 -0.38505358118E+01  0.41073488288E+01  0.19965856413E+02  0.20744453789E+02  0.51100000000E-03 0.  1.
         12    1    3    3    0    0  0.85725377645E+01 -0.77495008204E+01 -0.11806395606E+02  0.16520718625E+02  0.00000000000E+00 0. -1.
</event>
<event>
 7    1  0.3223600E-013  0.5930191E+02  0.7816164E-02  0.1266605E+00
        -11   -1    0    0    0    0  0.00000000000E+00  0.00000000000E+00  0.45593999997E+02  0.45594000000E+02  0.51100000000E-03 0.  1.
         11   -1    0    0    0    0 -0.00000000000E+00 -0.00000000000E+00 -0.45593999997E+02  0.45594000000E+02  0.51100000000E-03 0. -1.
    9900012    2    1    2    0    0  0.30327357300E+02  0.92736388535E+01 -0.33126274181E+01  0.59301914025E+02  0.49999945282E+02 0.  0.
         12    1    1    2    0    0 -0.30327357300E+02 -0.92736388535E+01  0.33126274181E+01  0.31886085975E+02  0.00000000000E+00 0. -1.
         11    1    3    3    0    0 -0.18898031493E+00  0.52809047652E+01 -0.49073954280E+01  0.72115323508E+01  0.51100000000E-03 0. -1.
        -11    1    3    3    0    0  0.14505326921E+01  0.17249914054E+02  0.86839434073E+01  0.19366839013E+02  0.51100000000E-03 0.  1.
         12    1    3    3    0    0  0.29065804923E+02 -0.13257179966E+02 -0.70891753974E+01  0.32723542661E+02  0.00000000000E+00 0. -1.
</event>
<event>
 7    1  0.3223600E-013  0.5930195E+02  0.7816164E-02  0.1266605E+00
        -11   -1    0    0    0    0  0.00000000000E+00  0.00000000000E+00  0.45593999997E+02  0.45594000000E+02  0.51100000000E-03 0.  1.
         11   -1    0    0    0    0 -0.00000000000E+00 -0.00000000000E+00 -0.45593999997E+02  0.45594000000E+02  0.51100000000E-03 0. -1.
    9900012    2    1    2    0    0  0.12288426986E+02 -0.19791554476E+01  0.29356394055E+02  0.59301947156E+02  0.50000005706E+02 0.  0.
         12    1    1    2    0    0 -0.12288426986E+02  0.19791554476E+01 -0.29356394055E+02  0.31886052844E+02  0.00000000000E+00 0. -1.
         11    1    3    3    0    0 -0.10298326685E+02  0.81172221904E+01 -0.54320474351E+01  0.14193377618E+02  0.51100000000E-03 0. -1.
        -11    1    3    3    0    0 -0.10377832087E+00 -0.48347225283E+01  0.29680400420E+01  0.56740262440E+01  0.51100000000E-03 0.  1.
        -12    1    3    3    0    0  0.22690531992E+02 -0.52616551097E+01  0.31820401448E+02  0.39434543295E+02  0.00000000000E+00 0.  1.
</event>
<event>
 7    1  0.3223600E-013  0.5930194E+02  0.7816164E-02  0.1266605E+00
        -11   -1    0    0    0    0  0.00000000000E+00  0.00000000000E+00  0.45593999997E+02  0.45594000000E+02  0.51100000000E-03 0. -1.
         11   -1    0    0    0    0 -0.00000000000E+00 -0.00000000000E+00 -0.45593999997E+02  0.45594000000E+02  0.51100000000E-03 0.  1.
    9900012    2    1    2    0    0  0.25499556715E+02  0.90280348951E+01 -0.16881592900E+02  0.59301937441E+02  0.49999987987E+02 0.  0.
         12    1    1    2    0    0 -0.25499556715E+02 -0.90280348951E+01  0.16881592900E+02  0.31886062559E+02  0.00000000000E+00 0. -1.
         11    1    3    3    0    0  0.16574451880E+02 -0.59733173204E+01 -0.23980806061E+01  0.17780432104E+02  0.51100000000E-03 0. -1.
        -11    1    3    3    0    0  0.15285258162E+02  0.15219542302E+02  0.40311626661E+01  0.21943651876E+02  0.51100000000E-03 0.  1.
        -12    1    3    3    0    0 -0.63601533274E+01 -0.21819008663E+00 -0.18514674960E+02  0.19577853461E+02  0.00000000000E+00 0.  1.
</event>
<event>
 7    1  0.3223600E-013  0.5930193E+02  0.7816164E-02  0.1266605E+00
        -11   -1    0    0    0    0  0.00000000000E+00  0.00000000000E+00  0.45593999997E+02  0.45594000000E+02  0.51100000000E-03 0. -1.
         11   -1    0    0    0    0 -0.00000000000E+00 -0.00000000000E+00 -0.45593999997E+02  0.45594000000E+02  0.51100000000E-03 0.  1.
    9900012    2    1    2    0    0 -0.30090060668E+02 -0.10242957574E+02  0.25281714962E+01  0.59301928088E+02  0.49999970930E+02 0.  0.
         12    1    1    2    0    0  0.30090060668E+02  0.10242957574E+02 -0.25281714962E+01  0.31886071912E+02  0.00000000000E+00 0. -1.
         11    1    3    3    0    0 -0.21722669658E+01 -0.11769508100E+02 -0.60045036020E+01  0.13390075745E+02  0.51100000000E-03 0. -1.
        -11    1    3    3    0    0 -0.15057595123E+02 -0.16190296764E+02 -0.77365043070E+00  0.22123639290E+02  0.51100000000E-03 0.  1.
         12    1    3    3    0    0 -0.12860198579E+02  0.17716847290E+02  0.93063255289E+01  0.23788213053E+02  0.00000000000E+00 0. -1.
</event>
<event>
 7    1  0.3223600E-013  0.5930196E+02  0.7816164E-02  0.1266605E+00
        -11   -1    0    0    0    0  0.00000000000E+00  0.00000000000E+00  0.45593999997E+02  0.45594000000E+02  0.51100000000E-03 0.  1.
         11   -1    0    0    0    0 -0.00000000000E+00 -0.00000000000E+00 -0.45593999997E+02  0.45594000000E+02  0.51100000000E-03 0. -1.
    9900012    2    1    2    0    0  0.14715753114E+02  0.12295244243E+01  0.28260472847E+02  0.59301961589E+02  0.50000032027E+02 0.  0.
         12    1    1    2    0    0 -0.14715753114E+02 -0.12295244243E+01 -0.28260472847E+02  0.31886038411E+02  0.00000000000E+00 0. -1.
         11    1    3    3    0    0 -0.31490766067E+01 -0.11000212919E+02  0.16017084737E+02  0.19684216304E+02  0.51100000000E-03 0. -1.
        -11    1    3    3    0    0  0.71378008668E+01 -0.90776616363E+01  0.10650404737E+02  0.15709336820E+02  0.51100000000E-03 0.  1.
        -12    1    3    3    0    0  0.10727028854E+02  0.21307398980E+02  0.15929833731E+01  0.23908408465E+02  0.00000000000E+00 0.  1.
</event>
<event>
 7    1  0.3223600E-013  0.5930167E+02  0.7816164E-02  0.1266606E+00
        -11   -1    0    0    0    0  0.00000000000E+00  0.00000000000E+00  0.45593999997E+02  0.45594000000E+02  0.51100000000E-03 0.  1.
         11   -1    0    0    0    0 -0.00000000000E+00 -0.00000000000E+00 -0.45593999997E+02  0.45594000000E+02  0.51100000000E-03 0. -1.
    9900012    2    1    2    0    0  0.13662445270E+02  0.23401724574E+02  0.16805800974E+02  0.59301669541E+02  0.49999499399E+02 0.  0.
         12    1    1    2    0    0 -0.13662445270E+02 -0.23401724574E+02 -0.16805800974E+02  0.31886330459E+02  0.00000000000E+00 0. -1.
         11    1    3    3    0    0  0.11269281192E+01  0.72238590842E+01 -0.44042238613E+01  0.85352970151E+01  0.51100000000E-03 0. -1.
        -11    1    3    3    0    0 -0.10396294889E+02  0.12418019354E+02  0.22232498894E+02  0.27505893176E+02  0.51100000000E-03 0.  1.
         12    1    3    3    0    0  0.22931812039E+02  0.37598461361E+01 -0.10224740588E+01  0.23260479350E+02  0.00000000000E+00 0. -1.
</event>
<event>
 7    1  0.3223600E-013  0.5930175E+02  0.7816164E-02  0.1266605E+00
        -11   -1    0    0    0    0  0.00000000000E+00  0.00000000000E+00  0.45593999997E+02  0.45594000000E+02  0.51100000000E-03 0.  1.
         11   -1    0    0    0    0 -0.00000000000E+00 -0.00000000000E+00 -0.45593999997E+02  0.45594000000E+02  0.51100000000E-03 0. -1.
    9900012    2    1    2    0    0  0.30550802736E+02  0.78488001801E+01 -0.46666896356E+01  0.59301745842E+02  0.49999638555E+02 0.  0.
         12    1    1    2    0    0 -0.30550802736E+02 -0.78488001801E+01  0.46666896356E+01  0.31886254158E+02  0.00000000000E+00 0. -1.
         11    1    3    3    0    0 -0.30323015241E+01  0.12924974393E+02  0.59719886254E+00  0.13289336414E+02  0.51100000000E-03 0. -1.
        -11    1    3    3    0    0 -0.45182132976E+01  0.18708164196E+01 -0.53966499804E+01  0.72827217955E+01  0.51100000000E-03 0.  1.
        -12    1    3    3    0    0  0.38101317558E+02 -0.69469906325E+01  0.13276148224E+00  0.38729687632E+02  0.00000000000E+00 0.  1.
</event>
<event>
 7    1  0.3223600E-013  0.5930194E+02  0.7816164E-02  0.1266605E+00
        -11   -1    0    0    0    0  0.00000000000E+00  0.00000000000E+00  0.45593999997E+02  0.45594000000E+02  0.51100000000E-03 0. -1.
         11   -1    0    0    0    0 -0.00000000000E+00 -0.00000000000E+00 -0.45593999997E+02  0.45594000000E+02  0.51100000000E-03 0.  1.
    9900012    2    1    2    0    0  0.23911965040E+02  0.18726222593E+01  0.21010289231E+02  0.59301936590E+02  0.49999986435E+02 0.  0.
         12    1    1    2    0    0 -0.23911965040E+02 -0.18726222593E+01 -0.21010289231E+02  0.31886063410E+02  0.00000000000E+00 0. -1.
         11    1    3    3    0    0  0.21016601923E+02 -0.57697981959E+01  0.24244935444E+02  0.32600690523E+02  0.51100000000E-03 0. -1.
        -11    1    3    3    0    0  0.12830591003E+02  0.75475853447E+01 -0.64994207939E+01  0.16242924027E+02  0.51100000000E-03 0.  1.
        -12    1    3    3    0    0 -0.99352278854E+01  0.94835110501E-01  0.32647745807E+01  0.10458322040E+02  0.00000000000E+00 0.  1.
</event>
<event>
 7    1  0.3223600E-013  0.5930194E+02  0.7816164E-02  0.1266605E+00
        -11   -1    0    0    0    0  0.00000000000E+00  0.00000000000E+00  0.45593999997E+02  0.45594000000E+02  0.51100000000E-03 0.  1.
         11   -1    0    0    0    0 -0.00000000000E+00 -0.00000000000E+00 -0.45593999997E+02  0.45594000000E+02  0.51100000000E-03 0. -1.
    9900012    2    1    2    0    0  0.26991909181E+01  0.89741299546E+01  0.30477866907E+02  0.59301937038E+02  0.49999987252E+02 0.  0.
         12    1    1    2    0    0 -0.26991909181E+01 -0.89741299546E+01 -0.30477866907E+02  0.31886062962E+02  0.00000000000E+00 0. -1.
         11    1    3    3    0    0 -0.70575290931E+01 -0.27968271566E+00 -0.11351576036E+01  0.71537068970E+01  0.51100000000E-03 0. -1.
        -11    1    3    3    0    0  0.11289751650E+02 -0.14066391455E+02  0.15238639714E+02  0.23612242618E+02  0.51100000000E-03 0.  1.
         12    1    3    3    0    0 -0.15330316386E+01  0.23320204125E+02  0.16374384796E+02  0.28535987523E+02  0.00000000000E+00 0. -1.
</event>
<event>
 7    1  0.3223600E-013  0.5930195E+02  0.7816164E-02  0.1266605E+00
        -11   -1    0    0    0    0  0.00000000000E+00  0.00000000000E+00  0.45593999997E+02  0.45594000000E+02  0.51100000000E-03 0.  1.
         11   -1    0    0    0    0 -0.00000000000E+00 -0.00000000000E+00 -0.45593999997E+02  0.45594000000E+02  0.51100000000E-03 0. -1.
    9900012    2    1    2    0    0 -0.15118461307E+02  0.28061193175E+02  0.84971480197E+00  0.59301945839E+02  0.50000003303E+02 0.  0.
         12    1    1    2    0    0  0.15118461307E+02 -0.28061193175E+02 -0.84971480197E+00  0.31886054161E+02  0.00000000000E+00 0. -1.
         11    1    3    3    0    0 -0.25320896928E+02  0.15065733627E+02 -0.79795906117E+01  0.30525366788E+02  0.51100000000E-03 0. -1.
        -11    1    3    3    0    0 -0.20438998363E+01  0.14638219768E+01  0.11476291099E+02  0.11748427936E+02  0.51100000000E-03 0.  1.
        -12    1    3    3    0    0  0.12246335457E+02  0.11531637571E+02 -0.26469856849E+01  0.17028151115E+02  0.00000000000E+00 0.  1.
</event>
<event>
 7    1  0.3223600E-013  0.5930194E+02  0.7816164E-02  0.1266605E+00
        -11   -1    0    0    0    0  0.00000000000E+00  0.00000000000E+00  0.45593999997E+02  0.45594000000E+02  0.51100000000E-03 0.  1.
         11   -1    0    0    0    0 -0.00000000000E+00 -0.00000000000E+00 -0.45593999997E+02  0.45594000000E+02  0.51100000000E-03 0. -1.
    9900012    2    1    2    0    0 -0.23436625325E+01 -0.28927276735E+02  0.13207608077E+02  0.59301937143E+02  0.49999987445E+02 0.  0.
         12    1    1    2    0    0  0.23436625325E+01  0.28927276735E+02 -0.13207608077E+02  0.31886062857E+02  0.00000000000E+00 0. -1.
         11    1    3    3    0    0  0.11958035593E+02  0.44200804285E+01 -0.55906296880E+01  0.13920735139E+02  0.51100000000E-03 0. -1.
        -11    1    3    3    0    0 -0.73516873532E+01 -0.12293799628E+00  0.37006975818E+01  0.82314994711E+01  0.51100000000E-03 0.  1.
        -12    1    3    3    0    0 -0.69500107723E+01 -0.33224419167E+02  0.15097540183E+02  0.37149702533E+02  0.00000000000E+00 0.  1.
</event>
<event>
 7    1  0.3223600E-013  0.5930198E+02  0.7816164E-02  0.1266605E+00
        -11   -1    0    0    0    0  0.00000000000E+00  0.00000000000E+00  0.45593999997E+02  0.45594000000E+02  0.51100000000E-03 0. -1.
         11   -1    0    0    0    0 -0.00000000000E+00 -0.00000000000E+00 -0.45593999997E+02  0.45594000000E+02  0.51100000000E-03 0.  1.
    9900012    2    1    2    0    0  0.21180410694E+01  0.12237300636E+02 -0.29368023799E+02  0.59301977252E+02  0.50000060593E+02 0.  0.
         12    1    1    2    0    0 -0.21180410694E+01 -0.12237300636E+02  0.29368023799E+02  0.31886022748E+02  0.00000000000E+00 0. -1.
         11    1    3    3    0    0 -0.12007893135E+02  0.10870275016E+02 -0.23056014829E+02  0.28176802454E+02  0.51100000000E-03 0. -1.
        -11    1    3    3    0    0 -0.11461389257E+01  0.11405981920E+02 -0.57874506202E+01  0.12841520274E+02  0.51100000000E-03 0.  1.
         12    1    3    3    0    0  0.15272073131E+02 -0.10038956300E+02 -0.52455835025E+00  0.18283654524E+02  0.00000000000E+00 0. -1.
</event>
<event>
 7    1  0.3223600E-013  0.5930193E+02  0.7816164E-02  0.1266605E+00
        -11   -1    0    0    0    0  0.00000000000E+00  0.00000000000E+00  0.45593999997E+02  0.45594000000E+02  0.51100000000E-03 0. -1.
         11   -1    0    0    0    0 -0.00000000000E+00 -0.00000000000E+00 -0.45593999997E+02  0.45594000000E+02  0.51100000000E-03 0.  1.
    9900012    2    1    2    0    0 -0.45858824628E+01 -0.30593926857E+02 -0.77267609319E+01  0.59301929169E+02  0.49999972902E+02 0.  0.
         12    1    1    2    0    0  0.45858824628E+01  0.30593926857E+02  0.77267609319E+01  0.31886070831E+02  0.00000000000E+00 0. -1.
         11    1    3    3    0    0 -0.11767907545E+02 -0.34760140672E+01  0.22575539127E+00  0.12272623499E+02  0.51100000000E-03 0. -1.
        -11    1    3    3    0    0 -0.92298976370E+01 -0.27912554236E+02 -0.16979469466E+01  0.29448000245E+02  0.51100000000E-03 0.  1.
         12    1    3    3    0    0  0.16411922719E+02  0.79464144521E+00 -0.62545693766E+01  0.17581305425E+02  0.00000000000E+00 0. -1.
</event>
<event>
 7    1  0.3223600E-013  0.5930191E+02  0.7816164E-02  0.1266605E+00
        -11   -1    0    0    0    0  0.00000000000E+00  0.00000000000E+00  0.45593999997E+02  0.45594000000E+02  0.51100000000E-03 0. -1.
         11   -1    0    0    0    0 -0.00000000000E+00 -0.00000000000E+00 -0.45593999997E+02  0.45594000000E+02  0.51100000000E-03 0.  1.
    9900012    2    1    2    0    0 -0.25663772680E+02 -0.12901139892E+02 -0.13843923527E+02  0.59301908090E+02  0.49999934458E+02 0.  0.
         12    1    1    2    0    0  0.25663772680E+02  0.12901139892E+02  0.13843923527E+02  0.31886091910E+02  0.00000000000E+00 0. -1.
         11    1    3    3    0    0 -0.14234109039E+02  0.69282013703E+00  0.53431264226E+01  0.15219686597E+02  0.51100000000E-03 0. -1.
        -11    1    3    3    0    0 -0.20993215725E+02 -0.11245591115E+02 -0.15298692826E+01  0.23864595666E+02  0.51100000000E-03 0.  1.
         12    1    3    3    0    0  0.95635520835E+01 -0.23483689139E+01 -0.17657180667E+02  0.20217625828E+02  0.00000000000E+00 0. -1.
</event>
<event>
 7    1  0.3223600E-013  0.5930202E+02  0.7816164E-02  0.1266605E+00
        -11   -1    0    0    0    0  0.00000000000E+00  0.00000000000E+00  0.45593999997E+02  0.45594000000E+02  0.51100000000E-03 0.  1.
         11   -1    0    0    0    0 -0.00000000000E+00 -0.00000000000E+00 -0.45593999997E+02  0.45594000000E+02  0.51100000000E-03 0. -1.
    9900012    2    1    2    0    0 -0.22809259537E+02 -0.14355391282E+02  0.17040435224E+02  0.59302015428E+02  0.50000130217E+02 0.  0.
         12    1    1    2    0    0  0.22809259537E+02  0.14355391282E+02 -0.17040435224E+02  0.31885984572E+02  0.00000000000E+00 0. -1.
         11    1    3    3    0    0  0.24790948689E+01  0.59102269163E+01 -0.36448256572E+01  0.73730216264E+01  0.51100000000E-03 0. -1.
        -11    1    3    3    0    0  0.66108778721E+01  0.27694798424E+01 -0.60208605253E+00  0.71927903288E+01  0.51100000000E-03 0.  1.
        -12    1    3    3    0    0 -0.31899232278E+02 -0.23035098041E+02  0.21287346934E+02  0.44736203473E+02  0.00000000000E+00 0.  1.
</event>
<event>
 7    1  0.3223600E-013  0.5930195E+02  0.7816164E-02  0.1266605E+00
        -11   -1    0    0    0    0  0.00000000000E+00  0.00000000000E+00  0.45593999997E+02  0.45594000000E+02  0.51100000000E-03 0.  1.
         11   -1    0    0    0    0 -0.00000000000E+00 -0.00000000000E+00 -0.45593999997E+02  0.45594000000E+02  0.51100000000E-03 0. -1.
    9900012    2    1    2    0    0 -0.47694198699E+01  0.25540677071E+02  0.18483693210E+02  0.59301945590E+02  0.50000002850E+02 0.  0.
         12    1    1    2    0    0  0.47694198699E+01 -0.25540677071E+02 -0.18483693210E+02  0.31886054410E+02  0.00000000000E+00 0. -1.
         11    1    3    3    0    0  0.66817767241E+00 -0.60525636058E+01 -0.43337341471E+01  0.74740376988E+01  0.51100000000E-03 0. -1.
        -11    1    3    3    0    0 -0.92164635593E+01  0.10897460568E+02 -0.65492225739E+01  0.15703189611E+02  0.51100000000E-03 0.  1.
        -12    1    3    3    0    0  0.37788660169E+01  0.20695780109E+02  0.29366649931E+02  0.36124718280E+02  0.00000000000E+00 0.  1.
</event>
<event>
 7    1  0.3223600E-013  0.5930194E+02  0.7816164E-02  0.1266605E+00
        -11   -1    0    0    0    0  0.00000000000E+00  0.00000000000E+00  0.45593999997E+02  0.45594000000E+02  0.51100000000E-03 0.  1.
         11   -1    0    0    0    0 -0.00000000000E+00 -0.00000000000E+00 -0.45593999997E+02  0.45594000000E+02  0.51100000000E-03 0. -1.
    9900012    2    1    2    0    0 -0.28938364945E+02 -0.12267066901E+02 -0.53675546056E+01  0.59301944450E+02  0.50000000771E+02 0.  0.
         12    1    1    2    0    0  0.28938364945E+02  0.12267066901E+02  0.53675546056E+01  0.31886055550E+02  0.00000000000E+00 0. -1.
         11    1    3    3    0    0 -0.11393936424E+02 -0.13956300909E+02  0.62708155587E+01  0.19076772535E+02  0.51100000000E-03 0. -1.
        -11    1    3    3    0    0 -0.11146421282E+02  0.48023702399E+01  0.11070657442E+02  0.16427565972E+02  0.51100000000E-03 0.  1.
         12    1    3    3    0    0 -0.63980072395E+01 -0.31131362314E+01 -0.22709027606E+02  0.23797605944E+02  0.00000000000E+00 0. -1.
</event>
<event>
 7    1  0.3223600E-013  0.5930195E+02  0.7816164E-02  0.1266605E+00
        -11   -1    0    0    0    0  0.00000000000E+00  0.00000000000E+00  0.45593999997E+02  0.45594000000E+02  0.51100000000E-03 0.  1.
         11   -1    0    0    0    0 -0.00000000000E+00 -0.00000000000E+00 -0.45593999997E+02  0.45594000000E+02  0.51100000000E-03 0. -1.
    9900012    2    1    2    0    0  0.16596892282E+02  0.11539993357E+02  0.24659520865E+02  0.59301948984E+02  0.50000009040E+02 0.  0.
         12    1    1    2    0    0 -0.16596892282E+02 -0.11539993357E+02 -0.24659520865E+02  0.31886051016E+02  0.00000000000E+00 0. -1.
         11    1    3    3    0    0  0.27676543424E+01 -0.53554399790E+01  0.57123662369E+00  0.60553248855E+01  0.51100000000E-03 0. -1.
        -11    1    3    3    0    0  0.27693481771E+02  0.53731106981E+01  0.86334448138E+01  0.29501451164E+02  0.51100000000E-03 0.  1.
        -12    1    3    3    0    0 -0.13864243831E+02  0.11522322638E+02  0.15454839427E+02  0.23745172935E+02  0.00000000000E+00 0.  1.
</event>
<event>
 7    1  0.3223600E-013  0.5930193E+02  0.7816164E-02  0.1266605E+00
        -11   -1    0    0    0    0  0.00000000000E+00  0.00000000000E+00  0.45593999997E+02  0.45594000000E+02  0.51100000000E-03 0.  1.
         11   -1    0    0    0    0 -0.00000000000E+00 -0.00000000000E+00 -0.45593999997E+02  0.45594000000E+02  0.51100000000E-03 0. -1.
    9900012    2    1    2    0    0  0.18798004547E+02  0.32009790707E+01  0.25556019618E+02  0.59301931245E+02  0.49999976687E+02 0.  0.
         12    1    1    2    0    0 -0.18798004547E+02 -0.32009790707E+01 -0.25556019618E+02  0.31886068755E+02  0.00000000000E+00 0. -1.
         11    1    3    3    0    0  0.14714895186E+02  0.76441851401E+00 -0.62613148811E+01  0.16009888828E+02  0.51100000000E-03 0. -1.
        -11    1    3    3    0    0  0.12486899267E+02 -0.85237485748E+01  0.12930547589E+02  0.19894119842E+02  0.51100000000E-03 0.  1.
        -12    1    3    3    0    0 -0.84037899051E+01  0.10960309132E+02  0.18886786910E+02  0.23397922575E+02  0.00000000000E+00 0.  1.
</event>
<event>
 7    1  0.3223600E-013  0.5930174E+02  0.7816164E-02  0.1266605E+00
        -11   -1    0    0    0    0  0.00000000000E+00  0.00000000000E+00  0.45593999997E+02  0.45594000000E+02  0.51100000000E-03 0.  1.
         11   -1    0    0    0    0 -0.00000000000E+00 -0.00000000000E+00 -0.45593999997E+02  0.45594000000E+02  0.51100000000E-03 0. -1.
    9900012    2    1    2    0    0  0.15272750786E+02  0.29586672059E+01  0.27833842179E+02  0.59301742793E+02  0.49999632995E+02 0.  0.
         12    1    1    2    0    0 -0.15272750786E+02 -0.29586672059E+01 -0.27833842179E+02  0.31886257207E+02  0.00000000000E+00 0. -1.
         11    1    3    3    0    0  0.55445751829E+01 -0.14575030881E+02 -0.44386864109E+01  0.16213444312E+02  0.51100000000E-03 0. -1.
        -11    1    3    3    0    0 -0.95413499635E+00 -0.13597409401E+00  0.17911451173E+02  0.17937361733E+02  0.51100000000E-03 0.  1.
        -12    1    3    3    0    0  0.10682310599E+02  0.17669672181E+02  0.14361077417E+02  0.25150936748E+02  0.00000000000E+00 0.  1.
</event>
<event>
 7    1  0.3223600E-013  0.5930197E+02  0.7816164E-02  0.1266605E+00
        -11   -1    0    0    0    0  0.00000000000E+00  0.00000000000E+00  0.45593999997E+02  0.45594000000E+02  0.51100000000E-03 0. -1.
         11   -1    0    0    0    0 -0.00000000000E+00 -0.00000000000E+00 -0.45593999997E+02  0.45594000000E+02  0.51100000000E-03 0.  1.
    9900012    2    1    2    0    0 -0.18859975951E+02  0.66073037433E+01 -0.24846803870E+02  0.59301971426E+02  0.50000049969E+02 0.  0.
         12    1    1    2    0    0  0.18859975951E+02 -0.66073037433E+01  0.24846803870E+02  0.31886028574E+02  0.00000000000E+00 0. -1.
         11    1    3    3    0    0 -0.11251303580E+02 -0.95246204606E+01 -0.16859919073E+02  0.22395693751E+02  0.51100000000E-03 0. -1.
        -11    1    3    3    0    0  0.59181703478E+01  0.80060595128E+01 -0.16277638630E+02  0.19080965615E+02  0.51100000000E-03 0.  1.
        -12    1    3    3    0    0 -0.13526842719E+02  0.81258646911E+01  0.82907538331E+01  0.17825312060E+02  0.00000000000E+00 0.  1.
</event>
<event>
 7    1  0.3223600E-013  0.5930193E+02  0.7816164E-02  0.1266605E+00
        -11   -1    0    0    0    0  0.00000000000E+00  0.00000000000E+00  0.45593999997E+02  0.45594000000E+02  0.51100000000E-03 0.  1.
         11   -1    0    0    0    0 -0.00000000000E+00 -0.00000000000E+00 -0.45593999997E+02  0.45594000000E+02  0.51100000000E-03 0. -1.
    9900012    2    1    2    0    0  0.23522234113E+02 -0.36769329591E+01  0.21210996446E+02  0.59301926176E+02  0.49999967443E+02 0.  0.
         12    1    1    2    0    0 -0.23522234113E+02  0.36769329591E+01 -0.21210996446E+02  0.31886073824E+02  0.00000000000E+00 0. -1.
         11    1    3    3    0    0 -0.10185670216E+02  0.10345932795E+02  0.68432802266E+01  0.16050441977E+02  0.51100000000E-03 0. -1.
        -11    1    3    3    0    0  0.35860402566E+01 -0.65472918727E+01 -0.25696695190E+01  0.78949298468E+01  0.51100000000E-03 0.  1.
        -12    1    3    3    0    0  0.30121864072E+02 -0.74755738813E+01  0.16937385738E+02  0.35356554353E+02  0.00000000000E+00 0.  1.
</event>
<event>
 7    1  0.3223600E-013  0.5930200E+02  0.7816164E-02  0.1266605E+00
        -11   -1    0    0    0    0  0.00000000000E+00  0.00000000000E+00  0.45593999997E+02  0.45594000000E+02  0.51100000000E-03 0.  1.
         11   -1    0    0    0    0 -0.00000000000E+00 -0.00000000000E+00 -0.45593999997E+02  0.45594000000E+02  0.51100000000E-03 0. -1.
    9900012    2    1    2    0    0  0.60059547154E+01  0.21964205044E+01  0.31238135880E+02  0.59302001689E+02  0.50000105160E+02 0.  0.
         12    1    1    2    0    0 -0.60059547154E+01 -0.21964205044E+01 -0.31238135880E+02  0.31885998311E+02  0.00000000000E+00 0. -1.
         11    1    3    3    0    0  0.97068300240E+01  0.73263100458E+01 -0.87339248133E+01  0.14972602009E+02  0.51100000000E-03 0. -1.
        -11    1    3    3    0    0 -0.10744397959E+01 -0.10515858406E+02  0.13282068386E+02  0.16975012217E+02  0.51100000000E-03 0.  1.
        -12    1    3    3    0    0 -0.26264355128E+01  0.53859688651E+01  0.26689992307E+02  0.27354387463E+02  0.00000000000E+00 0.  1.
</event>
<event>
 7    1  0.3223600E-013  0.5930170E+02  0.7816164E-02  0.1266606E+00
        -11   -1    0    0    0    0  0.00000000000E+00  0.00000000000E+00  0.45593999997E+02  0.45594000000E+02  0.51100000000E-03 0. -1.
         11   -1    0    0    0    0 -0.00000000000E+00 -0.00000000000E+00 -0.45593999997E+02  0.45594000000E+02  0.51100000000E-03 0.  1.
    9900012    2    1    2    0    0 -0.20560083456E+01 -0.12778429950E+02 -0.29141387989E+02  0.59301703002E+02  0.49999560425E+02 0.  0.
         12    1    1    2    0    0  0.20560083456E+01  0.12778429950E+02  0.29141387989E+02  0.31886296998E+02  0.00000000000E+00 0. -1.
         11    1    3    3    0    0 -0.26704050818E+00  0.28323263062E+01  0.80576596464E+01  0.85451309045E+01  0.51100000000E-03 0. -1.
        -11    1    3    3    0    0 -0.93830054775E+01 -0.22207437922E+02 -0.22726848525E+02  0.33131868872E+02  0.51100000000E-03 0.  1.
        -12    1    3    3    0    0  0.75940376400E+01  0.65966816658E+01 -0.14472199111E+02  0.17624703226E+02  0.00000000000E+00 0.  1.
</event>
<event>
 7    1  0.3223600E-013  0.5930193E+02  0.7816164E-02  0.1266605E+00
        -11   -1    0    0    0    0  0.00000000000E+00  0.00000000000E+00  0.45593999997E+02  0.45594000000E+02  0.51100000000E-03 0. -1.
         11   -1    0    0    0    0 -0.00000000000E+00 -0.00000000000E+00 -0.45593999997E+02  0.45594000000E+02  0.51100000000E-03 0.  1.
    9900012    2    1    2    0    0  0.89416843950E+01  0.15965040668E+02 -0.26112927726E+02  0.59301933485E+02  0.49999980773E+02 0.  0.
         12    1    1    2    0    0 -0.89416843950E+01 -0.15965040668E+02  0.26112927726E+02  0.31886066515E+02  0.00000000000E+00 0. -1.
         11    1    3    3    0    0 -0.21838840297E+01 -0.47533052206E+01 -0.62170258216E+01  0.81249412492E+01  0.51100000000E-03 0. -1.
        -11    1    3    3    0    0  0.81289054323E+01 -0.43792649383E+01 -0.23867212790E+02  0.25591031858E+02  0.51100000000E-03 0.  1.
         12    1    3    3    0    0  0.29966629924E+01  0.25097610827E+02  0.39713108860E+01  0.25585960378E+02  0.00000000000E+00 0. -1.
</event>
<event>
 7    1  0.3223600E-013  0.5930205E+02  0.7816164E-02  0.1266604E+00
        -11   -1    0    0    0    0  0.00000000000E+00  0.00000000000E+00  0.45593999997E+02  0.45594000000E+02  0.51100000000E-03 0.  1.
         11   -1    0    0    0    0 -0.00000000000E+00 -0.00000000000E+00 -0.45593999997E+02  0.45594000000E+02  0.51100000000E-03 0. -1.
    9900012    2    1    2    0    0  0.29449180035E+02  0.10027602922E+02  0.69933516619E+01  0.59302047097E+02  0.50000187973E+02 0.  0.
         12    1    1    2    0    0 -0.29449180035E+02 -0.10027602922E+02 -0.69933516619E+01  0.31885952903E+02  0.00000000000E+00 0. -1.
         11    1    3    3    0    0  0.38951324984E+01  0.53965823193E+01  0.83710273747E+01  0.10694356338E+02  0.51100000000E-03 0. -1.
        -11    1    3    3    0    0  0.23467290811E+02  0.20797146562E+02  0.36044133232E+01  0.31563061302E+02  0.51100000000E-03 0.  1.
         12    1    3    3    0    0  0.20867567255E+01 -0.16166125959E+02 -0.49820890360E+01  0.17044629457E+02  0.00000000000E+00 0. -1.
</event>
<event>
 7    1  0.3223600E-013  0.5930199E+02  0.7816164E-02  0.1266605E+00
        -11   -1    0    0    0    0  0.00000000000E+00  0.00000000000E+00  0.45593999997E+02  0.45594000000E+02  0.51100000000E-03 0. -1.
         11   -1    0    0    0    0 -0.00000000000E+00 -0.00000000000E+00 -0.45593999997E+02  0.45594000000E+02  0.51100000000E-03 0.  1.
    9900012    2    1    2    0    0  0.63806996952E+01 -0.24397734998E+02 -0.19512941614E+02  0.59301989085E+02  0.50000082174E+02 0.  0.
         12    1    1    2    0    0 -0.63806996952E+01  0.24397734998E+02  0.19512941614E+02  0.31886010915E+02  0.00000000000E+00 0. -1.
         11    1    3    3    0    0  0.11520247175E+02 -0.12469677456E+02  0.56955926971E+01  0.17906667118E+02  0.51100000000E-03 0. -1.
        -11    1    3    3    0    0  0.37552192318E+01 -0.59736205966E+00 -0.26648683860E+02  0.26918597004E+02  0.51100000000E-03 0.  1.
         12    1    3    3    0    0 -0.88947667112E+01 -0.11330695482E+02  0.14401495495E+01  0.14476724964E+02  0.00000000000E+00 0. -1.
</event>
<event>
 7    1  0.3223600E-013  0.5930195E+02  0.7816164E-02  0.1266605E+00
        -11   -1    0    0    0    0  0.00000000000E+00  0.00000000000E+00  0.45593999997E+02  0.45594000000E+02  0.51100000000E-03 0. -1.
         11   -1    0    0    0    0 -0.00000000000E+00 -0.00000000000E+00 -0.45593999997E+02  0.45594000000E+02  0.51100000000E-03 0.  1.
    9900012    2    1    2    0    0 -0.31728969397E+01 -0.26017464890E+02 -0.18158868708E+02  0.59301948707E+02  0.50000008535E+02 0.  0.
         12    1    1    2    0    0  0.31728969397E+01  0.26017464890E+02  0.18158868708E+02  0.31886051293E+02  0.00000000000E+00 0. -1.
         11    1    3    3    0    0  0.17141150957E+01 -0.55205057006E+01  0.94354776033E+01  0.11065369927E+02  0.51100000000E-03 0. -1.
        -11    1    3    3    0    0  0.11105730817E+02  0.12751898257E+01 -0.14233353569E+02  0.18098389988E+02  0.51100000000E-03 0.  1.
        -12    1    3    3    0    0 -0.15992742852E+02 -0.21772149015E+02 -0.13360992742E+02  0.30138188793E+02  0.00000000000E+00 0.  1.
</event>
<event>
 7    1  0.3223600E-013  0.5930193E+02  0.7816164E-02  0.1266605E+00
        -11   -1    0    0    0    0  0.00000000000E+00  0.00000000000E+00  0.45593999997E+02  0.45594000000E+02  0.51100000000E-03 0. -1.
         11   -1    0    0    0    0 -0.00000000000E+00 -0.00000000000E+00 -0.45593999997E+02  0.45594000000E+02  0.51100000000E-03 0.  1.
    9900012    2    1    2    0    0  0.23080931256E+02  0.14605206777E+01 -0.21951280528E+02  0.59301933684E+02  0.49999981136E+02 0.  0.
         12    1    1    2    0    0 -0.23080931256E+02 -0.14605206777E+01  0.21951280528E+02  0.31886066316E+02  0.00000000000E+00 0. -1.
         11    1    3    3    0    0  0.93534020385E+01  0.81977813463E+01  0.53616577813E+01  0.13543896157E+02  0.51100000000E-03 0. -1.
        -11    1    3    3    0    0  0.98419657866E+01 -0.19609107693E+02 -0.10773153069E+02  0.24442631249E+02  0.51100000000E-03 0.  1.
         12    1    3    3    0    0  0.38855634306E+01  0.12871847025E+02 -0.16539785240E+02  0.21315406278E+02  0.00000000000E+00 0. -1.
</event>
<event>
 7    1  0.3223600E-013  0.5930190E+02  0.7816164E-02  0.1266605E+00
        -11   -1    0    0    0    0  0.00000000000E+00  0.00000000000E+00  0.45593999997E+02  0.45594000000E+02  0.51100000000E-03 0.  1.
         11   -1    0    0    0    0 -0.00000000000E+00 -0.00000000000E+00 -0.45593999997E+02  0.45594000000E+02  0.51100000000E-03 0. -1.
    9900012    2    1    2    0    0 -0.77719263269E+01 -0.12265914121E+02  0.28387817820E+02  0.59301895054E+02  0.49999910683E+02 0.  0.
         12    1    1    2    0    0  0.77719263269E+01  0.12265914121E+02 -0.28387817820E+02  0.31886104946E+02  0.00000000000E+00 0. -1.
         11    1    3    3    0    0  0.55989730143E+01  0.13549064313E+01  0.13110413395E+02  0.14320167943E+02  0.51100000000E-03 0. -1.
        -11    1    3    3    0    0  0.10775382032E+02 -0.13676083884E+02  0.10607889168E+02  0.20388022003E+02  0.51100000000E-03 0.  1.
         12    1    3    3    0    0 -0.24146281374E+02  0.55263330740E-01  0.46695152566E+01  0.24593705108E+02  0.00000000000E+00 0. -1.
</event>
<event>
 7    1  0.3223600E-013  0.5930194E+02  0.7816164E-02  0.1266605E+00
        -11   -1    0    0    0    0  0.00000000000E+00  0.00000000000E+00  0.45593999997E+02  0.45594000000E+02  0.51100000000E-03 0.  1.
         11   -1    0    0    0    0 -0.00000000000E+00 -0.00000000000E+00 -0.45593999997E+02  0.45594000000E+02  0.51100000000E-03 0. -1.
    9900012    2    1    2    0    0 -0.10636494366E+02  0.25494116405E+02  0.15925943590E+02  0.59301942500E+02  0.49999997214E+02 0.  0.
         12    1    1    2    0    0  0.10636494366E+02 -0.25494116405E+02 -0.15925943590E+02  0.31886057500E+02  0.00000000000E+00 0. -1.
         11    1    3    3    0    0 -0.15985820450E+02  0.15443163434E+02 -0.20517206248E+01  0.22321454032E+02  0.51100000000E-03 0. -1.
        -11    1    3    3    0    0  0.83845674978E+01  0.13749898790E+02 -0.21900721681E+01  0.16252910669E+02  0.51100000000E-03 0.  1.
         12    1    3    3    0    0 -0.30352414140E+01 -0.36989458189E+01  0.20167736383E+02  0.20727577799E+02  0.00000000000E+00 0. -1.
</event>
<event>
 7    1  0.3223600E-013  0.5930194E+02  0.7816164E-02  0.1266605E+00
        -11   -1    0    0    0    0  0.00000000000E+00  0.00000000000E+00  0.45593999997E+02  0.45594000000E+02  0.51100000000E-03 0.  1.
         11   -1    0    0    0    0 -0.00000000000E+00 -0.00000000000E+00 -0.45593999997E+02  0.45594000000E+02  0.51100000000E-03 0. -1.
    9900012    2    1    2    0    0 -0.96681309148E+01 -0.13805521832E+02  0.27067617430E+02  0.59301935618E+02  0.49999984663E+02 0.  0.
         12    1    1    2    0    0  0.96681309148E+01  0.13805521832E+02 -0.27067617430E+02  0.31886064382E+02  0.00000000000E+00 0. -1.
         11    1    3    3    0    0  0.66240578588E+01 -0.91198210884E+01  0.15608193343E+02  0.19252661605E+02  0.51100000000E-03 0. -1.
        -11    1    3    3    0    0 -0.40271769738E+01  0.58453128756E+01  0.20383332231E+02  0.21583930830E+02  0.51100000000E-03 0.  1.
        -12    1    3    3    0    0 -0.12265011800E+02 -0.10531013619E+02 -0.89239081441E+01  0.18465343183E+02  0.00000000000E+00 0.  1.
</event>
<event>
 7    1  0.3223600E-013  0.5930194E+02  0.7816164E-02  0.1266605E+00
        -11   -1    0    0    0    0  0.00000000000E+00  0.00000000000E+00  0.45593999997E+02  0.45594000000E+02  0.51100000000E-03 0.  1.
         11   -1    0    0    0    0 -0.00000000000E+00 -0.00000000000E+00 -0.45593999997E+02  0.45594000000E+02  0.51100000000E-03 0. -1.
    9900012    2    1    2    0    0  0.11584798787E+02 -0.88479403598E+01  0.28358902637E+02  0.59301937679E+02  0.49999988421E+02 0.  0.
         12    1    1    2    0    0 -0.11584798787E+02  0.88479403598E+01 -0.28358902637E+02  0.31886062321E+02  0.00000000000E+00 0. -1.
         11    1    3    3    0    0  0.21519485257E+02 -0.11231159113E+00  0.29124234476E+02  0.36212178803E+02  0.51100000000E-03 0. -1.
        -11    1    3    3    0    0 -0.37044482666E+01 -0.39334530119E+01  0.90323159715E+01  0.10525099602E+02  0.51100000000E-03 0.  1.
        -12    1    3    3    0    0 -0.62302382027E+01 -0.48021757568E+01 -0.97976478102E+01  0.12564659274E+02  0.00000000000E+00 0.  1.
</event>
<event>
 7    1  0.3223600E-013  0.5930193E+02  0.7816164E-02  0.1266605E+00
        -11   -1    0    0    0    0  0.00000000000E+00  0.00000000000E+00  0.45593999997E+02  0.45594000000E+02  0.51100000000E-03 0.  1.
         11   -1    0    0    0    0 -0.00000000000E+00 -0.00000000000E+00 -0.45593999997E+02  0.45594000000E+02  0.51100000000E-03 0. -1.
    9900012    2    1    2    0    0 -0.21843617948E+02  0.22480558191E+02 -0.58482774045E+01  0.59301929526E+02  0.49999973553E+02 0.  0.
         12    1    1    2    0    0  0.21843617948E+02 -0.22480558191E+02  0.58482774045E+01  0.31886070474E+02  0.00000000000E+00 0. -1.
         11    1    3    3    0    0  0.91999046182E+01  0.12981492154E+02  0.46556988070E+01  0.16578085389E+02  0.51100000000E-03 0. -1.
        -11    1    3    3    0    0 -0.46862280825E+01 -0.51863640132E+01 -0.10424925922E+02  0.12551421675E+02  0.51100000000E-03 0.  1.
        -12    1    3    3    0    0 -0.26357294484E+02  0.14685430051E+02 -0.79050289282E-01  0.30172422462E+02  0.00000000000E+00 0.  1.
</event>
<event>
 7    1  0.3223600E-013  0.5930197E+02  0.7816164E-02  0.1266605E+00
        -11   -1    0    0    0    0  0.00000000000E+00  0.00000000000E+00  0.45593999997E+02  0.45594000000E+02  0.51100000000E-03 0. -1.
         11   -1    0    0    0    0 -0.00000000000E+00 -0.00000000000E+00 -0.45593999997E+02  0.45594000000E+02  0.51100000000E-03 0.  1.
    9900012    2    1    2    0    0 -0.85948978582E+00  0.27446856119E+02 -0.16206489113E+02  0.59301969785E+02  0.50000046975E+02 0.  0.
         12    1    1    2    0    0  0.85948978582E+00 -0.27446856119E+02  0.16206489113E+02  0.31886030215E+02  0.00000000000E+00 0. -1.
         11    1    3    3    0    0  0.84946068524E+01  0.10969771089E+02  0.41042175750E+01  0.14468546074E+02  0.51100000000E-03 0. -1.
        -11    1    3    3    0    0  0.61088546488E+01 -0.59593018840E+01 -0.14723114661E+02  0.17017681677E+02  0.51100000000E-03 0.  1.
        -12    1    3    3    0    0 -0.15462951287E+02  0.22436386913E+02 -0.55875920270E+01  0.27815742034E+02  0.00000000000E+00 0.  1.
</event>
<event>
 7    1  0.3223600E-013  0.5930194E+02  0.7816164E-02  0.1266605E+00
        -11   -1    0    0    0    0  0.00000000000E+00  0.00000000000E+00  0.45593999997E+02  0.45594000000E+02  0.51100000000E-03 0. -1.
         11   -1    0    0    0    0 -0.00000000000E+00 -0.00000000000E+00 -0.45593999997E+02  0.45594000000E+02  0.51100000000E-03 0.  1.
    9900012    2    1    2    0    0  0.23482552392E+02 -0.13235213206E+02  0.17032893187E+02  0.59301943709E+02  0.49999999419E+02 0.  0.
         12    1    1    2    0    0 -0.23482552392E+02  0.13235213206E+02 -0.17032893187E+02  0.31886056291E+02  0.00000000000E+00 0. -1.
         11    1    3    3    0    0  0.92818601387E+01 -0.36916324092E+01 -0.14405524052E+02  0.17529980061E+02  0.51100000000E-03 0. -1.
        -11    1    3    3    0    0  0.52613337494E+00 -0.75937643485E+01  0.19848902230E+00  0.76145565505E+01  0.51100000000E-03 0.  1.
         12    1    3    3    0    0  0.13674558878E+02 -0.19498164483E+01  0.31239928216E+02  0.34157407098E+02  0.00000000000E+00 0. -1.
</event>
<event>
 7    1  0.3223600E-013  0.5930194E+02  0.7816164E-02  0.1266605E+00
        -11   -1    0    0    0    0  0.00000000000E+00  0.00000000000E+00  0.45593999997E+02  0.45594000000E+02  0.51100000000E-03 0.  1.
         11   -1    0    0    0    0 -0.00000000000E+00 -0.00000000000E+00 -0.45593999997E+02  0.45594000000E+02  0.51100000000E-03 0. -1.
    9900012    2    1    2    0    0  0.13957932416E+02  0.24962089449E+02  0.14099334517E+02  0.59301936888E+02  0.49999986978E+02 0.  0.
         12    1    1    2    0    0 -0.13957932416E+02 -0.24962089449E+02 -0.14099334517E+02  0.31886063112E+02  0.00000000000E+00 0. -1.
         11    1    3    3    0    0  0.26789575989E+01  0.14293360528E+02 -0.63329474449E+01  0.15861374234E+02  0.51100000000E-03 0. -1.
        -11    1    3    3    0    0  0.97179701976E+01  0.20311588871E+02  0.20320784987E+01  0.22608160706E+02  0.51100000000E-03 0.  1.
        -12    1    3    3    0    0  0.15610046199E+01 -0.96428599496E+01  0.18400203463E+02  0.20832401947E+02  0.00000000000E+00 0.  1.
</event>
<event>
 7    1  0.3223600E-013  0.5930193E+02  0.7816164E-02  0.1266605E+00
        -11   -1    0    0    0    0  0.00000000000E+00  0.00000000000E+00  0.45593999997E+02  0.45594000000E+02  0.51100000000E-03 0. -1.
         11   -1    0    0    0    0 -0.00000000000E+00 -0.00000000000E+00 -0.45593999997E+02  0.45594000000E+02  0.51100000000E-03 0.  1.
    9900012    2    1    2    0    0  0.19286874733E+02  0.19423954797E+02 -0.16353828579E+02  0.59301933041E+02  0.49999979963E+02 0.  0.
         12    1    1    2    0    0 -0.19286874733E+02 -0.19423954797E+02  0.16353828579E+02  0.31886066959E+02  0.00000000000E+00 0. -1.
         11    1    3    3    0    0 -0.93161761469E+01  0.14467507036E+02  0.47549828162E+01  0.17852444082E+02  0.51100000000E-03 0. -1.
        -11    1    3    3    0    0  0.25964742005E+01 -0.66902213744E+01 -0.42669358054E+01  0.83491006546E+01  0.51100000000E-03 0.  1.
         12    1    3    3    0    0  0.26006576680E+02  0.11646669135E+02 -0.16841875590E+02  0.33100388305E+02  0.00000000000E+00 0. -1.
</event>
<event>
 7    1  0.3223600E-013  0.5930194E+02  0.7816164E-02  0.1266605E+00
        -11   -1    0    0    0    0  0.00000000000E+00  0.00000000000E+00  0.45593999997E+02  0.45594000000E+02  0.51100000000E-03 0.  1.
         11   -1    0    0    0    0 -0.00000000000E+00 -0.00000000000E+00 -0.45593999997E+02  0.45594000000E+02  0.51100000000E-03 0. -1.
    9900012    2    1    2    0    0 -0.28249020902E+02 -0.13289932398E+02  0.64877861303E+01  0.59301939504E+02  0.49999991750E+02 0.  0.
         12    1    1    2    0    0  0.28249020902E+02  0.13289932398E+02 -0.64877861303E+01  0.31886060496E+02  0.00000000000E+00 0. -1.
         11    1    3    3    0    0 -0.28487506618E+01  0.11995667000E+02  0.61571353915E+01  0.13781209076E+02  0.51100000000E-03 0.  1.
        -11    1    3    3    0    0  0.45763363484E+01 -0.56208104733E+01 -0.56295294517E+01  0.91775795752E+01  0.51100000000E-03 0. -1.
         12    1    3    3    0    0 -0.29976606588E+02 -0.19664788925E+02  0.59601801905E+01  0.36343150853E+02  0.00000000000E+00 0. -1.
</event>
<event>
 7    1  0.3223600E-013  0.5930190E+02  0.7816164E-02  0.1266605E+00
        -11   -1    0    0    0    0  0.00000000000E+00  0.00000000000E+00  0.45593999997E+02  0.45594000000E+02  0.51100000000E-03 0.  1.
         11   -1    0    0    0    0 -0.00000000000E+00 -0.00000000000E+00 -0.45593999997E+02  0.45594000000E+02  0.51100000000E-03 0. -1.
    9900012    2    1    2    0    0  0.10411298788E+02  0.77640116962E+01  0.29121271639E+02  0.59301898295E+02  0.49999916595E+02 0.  0.
         12    1    1    2    0    0 -0.10411298788E+02 -0.77640116962E+01 -0.29121271639E+02  0.31886101705E+02  0.00000000000E+00 0. -1.
         11    1    3    3    0    0  0.12680050211E+02  0.21365000493E+02  0.85233113233E+01  0.26265828668E+02  0.51100000000E-03 0. -1.
        -11    1    3    3    0    0  0.74220487758E+01  0.17471573184E+01  0.51535926272E+01  0.92031996585E+01  0.51100000000E-03 0.  1.
        -12    1    3    3    0    0 -0.96908001989E+01 -0.15348146115E+02  0.15444367688E+02  0.23832869969E+02  0.00000000000E+00 0.  1.
</event>
<event>
 7    1  0.3223600E-013  0.5930195E+02  0.7816164E-02  0.1266605E+00
        -11   -1    0    0    0    0  0.00000000000E+00  0.00000000000E+00  0.45593999997E+02  0.45594000000E+02  0.51100000000E-03 0. -1.
         11   -1    0    0    0    0 -0.00000000000E+00 -0.00000000000E+00 -0.45593999997E+02  0.45594000000E+02  0.51100000000E-03 0.  1.
    9900012    2    1    2    0    0 -0.28896797492E+02  0.99265729230E+01  0.91191292650E+01  0.59301948600E+02  0.50000008340E+02 0.  0.
         12    1    1    2    0    0  0.28896797492E+02 -0.99265729230E+01 -0.91191292650E+01  0.31886051400E+02  0.00000000000E+00 0. -1.
         11    1    3    3    0    0 -0.92974500305E+01 -0.58875059906E+01  0.29261855146E+01  0.11387179887E+02  0.51100000000E-03 0. -1.
        -11    1    3    3    0    0 -0.70726394547E+00  0.32551088387E+00 -0.15334035783E+02  0.15353788890E+02  0.51100000000E-03 0.  1.
         12    1    3    3    0    0 -0.18892083516E+02  0.15488568030E+02  0.21526979534E+02  0.32560979823E+02  0.00000000000E+00 0. -1.
</event>
<event>
 7    1  0.3223600E-013  0.5930195E+02  0.7816164E-02  0.1266605E+00
        -11   -1    0    0    0    0  0.00000000000E+00  0.00000000000E+00  0.45593999997E+02  0.45594000000E+02  0.51100000000E-03 0. -1.
         11   -1    0    0    0    0 -0.00000000000E+00 -0.00000000000E+00 -0.45593999997E+02  0.45594000000E+02  0.51100000000E-03 0.  1.
    9900012    2    1    2    0    0 -0.28164302737E+02 -0.13341858113E+02 -0.67443917337E+01  0.59301953735E+02  0.50000017704E+02 0.  0.
         12    1    1    2    0    0  0.28164302737E+02  0.13341858113E+02  0.67443917337E+01  0.31886046265E+02  0.00000000000E+00 0. -1.
         11    1    3    3    0    0 -0.14699654135E+02 -0.22331985344E+01  0.64157646973E+01  0.16193487713E+02  0.51100000000E-03 0.  1.
        -11    1    3    3    0    0  0.29718201403E+01  0.10998954610E+02  0.21459414421E+01  0.11593695804E+02  0.51100000000E-03 0. -1.
         12    1    3    3    0    0 -0.16436468741E+02 -0.22107614189E+02 -0.15306097873E+02  0.31514770218E+02  0.00000000000E+00 0. -1.
</event>
<event>
 7    1  0.3223600E-013  0.5930194E+02  0.7816164E-02  0.1266605E+00
        -11   -1    0    0    0    0  0.00000000000E+00  0.00000000000E+00  0.45593999997E+02  0.45594000000E+02  0.51100000000E-03 0.  1.
         11   -1    0    0    0    0 -0.00000000000E+00 -0.00000000000E+00 -0.45593999997E+02  0.45594000000E+02  0.51100000000E-03 0. -1.
    9900012    2    1    2    0    0 -0.27723503227E+02  0.14166774546E+02 -0.68870051360E+01  0.59301937653E+02  0.49999988374E+02 0.  0.
         12    1    1    2    0    0  0.27723503227E+02 -0.14166774546E+02  0.68870051360E+01  0.31886062347E+02  0.00000000000E+00 0. -1.
         11    1    3    3    0    0 -0.16306216196E+02  0.19036290032E+02 -0.74988068067E+01  0.26163048917E+02  0.51100000000E-03 0. -1.
        -11    1    3    3    0    0 -0.11768593131E+02  0.92394221765E+01  0.82555114780E+01  0.17088597850E+02  0.51100000000E-03 0.  1.
        -12    1    3    3    0    0  0.35130610046E+00 -0.14108937662E+02 -0.76437098073E+01  0.16050290887E+02  0.00000000000E+00 0.  1.
</event>
<event>
 7    1  0.3223600E-013  0.5930194E+02  0.7816164E-02  0.1266605E+00
        -11   -1    0    0    0    0  0.00000000000E+00  0.00000000000E+00  0.45593999997E+02  0.45594000000E+02  0.51100000000E-03 0.  1.
         11   -1    0    0    0    0 -0.00000000000E+00 -0.00000000000E+00 -0.45593999997E+02  0.45594000000E+02  0.51100000000E-03 0. -1.
    9900012    2    1    2    0    0 -0.11136300483E+02  0.20620816287E+02  0.21621408872E+02  0.59301943887E+02  0.49999999744E+02 0.  0.
         12    1    1    2    0    0  0.11136300483E+02 -0.20620816287E+02 -0.21621408872E+02  0.31886056113E+02  0.00000000000E+00 0. -1.
         11    1    3    3    0    0 -0.10747607565E+01  0.25694467388E+01 -0.14876343902E+02  0.15134819965E+02  0.51100000000E-03 0. -1.
        -11    1    3    3    0    0 -0.23729093449E+00  0.10680528490E+02  0.87018626383E+01  0.13778694040E+02  0.51100000000E-03 0.  1.
        -12    1    3    3    0    0 -0.98242487919E+01  0.73708410587E+01  0.27795890136E+02  0.30388429882E+02  0.00000000000E+00 0.  1.
</event>
<event>
 7    1  0.3223600E-013  0.5930198E+02  0.7816164E-02  0.1266605E+00
        -11   -1    0    0    0    0  0.00000000000E+00  0.00000000000E+00  0.45593999997E+02  0.45594000000E+02  0.51100000000E-03 0.  1.
         11   -1    0    0    0    0 -0.00000000000E+00 -0.00000000000E+00 -0.45593999997E+02  0.45594000000E+02  0.51100000000E-03 0. -1.
    9900012    2    1    2    0    0  0.19744733180E+02  0.24620225044E+02  0.45506712905E+01  0.59301975181E+02  0.50000056817E+02 0.  0.
         12    1    1    2    0    0 -0.19744733180E+02 -0.24620225044E+02 -0.45506712905E+01  0.31886024819E+02  0.00000000000E+00 0. -1.
         11    1    3    3    0    0  0.11305260406E+02  0.52567010975E+00 -0.64175070908E+01  0.13010366614E+02  0.51100000000E-03 0. -1.
        -11    1    3    3    0    0  0.71498040607E+01 -0.38668104563E+01  0.15911367879E+02  0.17867387869E+02  0.51100000000E-03 0.  1.
         12    1    3    3    0    0  0.12896687131E+01  0.27961365390E+02 -0.49431894980E+01  0.28424220698E+02  0.00000000000E+00 0. -1.
</event>
<event>
 7    1  0.3223600E-013  0.5930198E+02  0.7816164E-02  0.1266605E+00
        -11   -1    0    0    0    0  0.00000000000E+00  0.00000000000E+00  0.45593999997E+02  0.45594000000E+02  0.51100000000E-03 0.  1.
         11   -1    0    0    0    0 -0.00000000000E+00 -0.00000000000E+00 -0.45593999997E+02  0.45594000000E+02  0.51100000000E-03 0. -1.
    9900012    2    1    2    0    0  0.62011683336E+01 -0.29532969618E+02  0.10298912321E+02  0.59301978327E+02  0.50000062553E+02 0.  0.
         12    1    1    2    0    0 -0.62011683336E+01  0.29532969618E+02 -0.10298912321E+02  0.31886021673E+02  0.00000000000E+00 0. -1.
         11    1    3    3    0    0 -0.61145449393E+00  0.28593415066E+01 -0.60593283424E+00  0.29861120727E+01  0.51100000000E-03 0. -1.
        -11    1    3    3    0    0 -0.29409715155E+01  0.57321128826E+00  0.20425205977E+02  0.20643810794E+02  0.51100000000E-03 0.  1.
        -12    1    3    3    0    0  0.97535943430E+01 -0.32965522413E+02 -0.95203608217E+01  0.35672055460E+02  0.00000000000E+00 0.  1.
</event>
<event>
 7    1  0.3223600E-013  0.5930193E+02  0.7816164E-02  0.1266605E+00
        -11   -1    0    0    0    0  0.00000000000E+00  0.00000000000E+00  0.45593999997E+02  0.45594000000E+02  0.51100000000E-03 0.  1.
         11   -1    0    0    0    0 -0.00000000000E+00 -0.00000000000E+00 -0.45593999997E+02  0.45594000000E+02  0.51100000000E-03 0. -1.
    9900012    2    1    2    0    0  0.25979104412E+02  0.10342531621E+02  0.15324484390E+02  0.59301927049E+02  0.49999969036E+02 0.  0.
         12    1    1    2    0    0 -0.25979104412E+02 -0.10342531621E+02 -0.15324484390E+02  0.31886072951E+02  0.00000000000E+00 0. -1.
         11    1    3    3    0    0  0.30665133139E+02  0.53865471205E+01  0.61081658286E+01  0.31728141616E+02  0.51100000000E-03 0. -1.
        -11    1    3    3    0    0  0.49779492464E+01  0.11749156101E+02  0.28267511437E+00  0.12763328455E+02  0.51100000000E-03 0.  1.
         12    1    3    3    0    0 -0.96639779737E+01 -0.67931716002E+01  0.89336434473E+01  0.14810456978E+02  0.00000000000E+00 0. -1.
</event>
<event>
 7    1  0.3223600E-013  0.5930195E+02  0.7816164E-02  0.1266605E+00
        -11   -1    0    0    0    0  0.00000000000E+00  0.00000000000E+00  0.45593999997E+02  0.45594000000E+02  0.51100000000E-03 0.  1.
         11   -1    0    0    0    0 -0.00000000000E+00 -0.00000000000E+00 -0.45593999997E+02  0.45594000000E+02  0.51100000000E-03 0. -1.
    9900012    2    1    2    0    0  0.39106442322E+01 -0.18605533076E+01  0.31590594072E+02  0.59301946141E+02  0.50000003853E+02 0.  0.
         12    1    1    2    0    0 -0.39106442322E+01  0.18605533076E+01 -0.31590594072E+02  0.31886053859E+02  0.00000000000E+00 0. -1.
         11    1    3    3    0    0  0.64320165016E+01 -0.27974970474E+01  0.58198361528E+01  0.91141274466E+01  0.51100000000E-03 0. -1.
        -11    1    3    3    0    0  0.86223400125E+01 -0.24671647216E+01  0.34488519973E+02  0.35635511211E+02  0.51100000000E-03 0.  1.
         12    1    3    3    0    0 -0.11143712282E+02  0.34041084613E+01 -0.87177620545E+01  0.14552307483E+02  0.00000000000E+00 0. -1.
</event>
<event>
 7    1  0.3223600E-013  0.5930195E+02  0.7816164E-02  0.1266605E+00
        -11   -1    0    0    0    0  0.00000000000E+00  0.00000000000E+00  0.45593999997E+02  0.45594000000E+02  0.51100000000E-03 0.  1.
         11   -1    0    0    0    0 -0.00000000000E+00 -0.00000000000E+00 -0.45593999997E+02  0.45594000000E+02  0.51100000000E-03 0. -1.
    9900012    2    1    2    0    0  0.24203838652E+02  0.20550814934E+02 -0.29254671059E+01  0.59301950422E+02  0.50000011661E+02 0.  0.
         12    1    1    2    0    0 -0.24203838652E+02 -0.20550814934E+02  0.29254671059E+01  0.31886049578E+02  0.00000000000E+00 0. -1.
         11    1    3    3    0    0 -0.47445835286E+01  0.80838960611E+01 -0.19190749907E+02  0.21357559098E+02  0.51100000000E-03 0. -1.
        -11    1    3    3    0    0  0.11137685568E+02  0.15055160465E+01 -0.33409341656E+00  0.11243942238E+02  0.51100000000E-03 0.  1.
        -12    1    3    3    0    0  0.17810736612E+02  0.10961402826E+02  0.16599376217E+02  0.26700449086E+02  0.00000000000E+00 0.  1.
</event>
<event>
 7    1  0.3223600E-013  0.5930194E+02  0.7816164E-02  0.1266605E+00
        -11   -1    0    0    0    0  0.00000000000E+00  0.00000000000E+00  0.45593999997E+02  0.45594000000E+02  0.51100000000E-03 0.  1.
         11   -1    0    0    0    0 -0.00000000000E+00 -0.00000000000E+00 -0.45593999997E+02  0.45594000000E+02  0.51100000000E-03 0. -1.
    9900012    2    1    2    0    0 -0.14969240743E+02 -0.19903967474E+02  0.19911668012E+02  0.59301943288E+02  0.49999998651E+02 0.  0.
         12    1    1    2    0    0  0.14969240743E+02  0.19903967474E+02 -0.19911668012E+02  0.31886056712E+02  0.00000000000E+00 0. -1.
         11    1    3    3    0    0  0.17185291204E+01 -0.13461926777E+01  0.19008227589E+02  0.19133172591E+02  0.51100000000E-03 0.  1.
        -11    1    3    3    0    0  0.64446136493E+00 -0.20306527694E+02 -0.63687191580E+01  0.21291570666E+02  0.51100000000E-03 0. -1.
         12    1    3    3    0    0 -0.17332231228E+02  0.17487528981E+01  0.72721595817E+01  0.18877200031E+02  0.00000000000E+00 0. -1.
</event>
<event>
 7    1  0.3223600E-013  0.5930197E+02  0.7816164E-02  0.1266605E+00
        -11   -1    0    0    0    0  0.00000000000E+00  0.00000000000E+00  0.45593999997E+02  0.45594000000E+02  0.51100000000E-03 0.  1.
         11   -1    0    0    0    0 -0.00000000000E+00 -0.00000000000E+00 -0.45593999997E+02  0.45594000000E+02  0.51100000000E-03 0. -1.
    9900012    2    1    2    0    0  0.12870644883E+02 -0.20758245134E+02 -0.20497823375E+02  0.59301968515E+02  0.50000044659E+02 0.  0.
         12    1    1    2    0    0 -0.12870644883E+02  0.20758245134E+02  0.20497823375E+02  0.31886031485E+02  0.00000000000E+00 0. -1.
         11    1    3    3    0    0 -0.48641682012E+01 -0.91400199043E+01 -0.17977658071E+02  0.20745994459E+02  0.51100000000E-03 0. -1.
        -11    1    3    3    0    0  0.17432506340E+02  0.78752068490E+00 -0.13440054460E+02  0.22026064793E+02  0.51100000000E-03 0.  1.
        -12    1    3    3    0    0  0.30230674366E+00 -0.12405745914E+02  0.10919889156E+02  0.16529909263E+02  0.00000000000E+00 0.  1.
</event>
<event>
 7    1  0.3223600E-013  0.5930194E+02  0.7816164E-02  0.1266605E+00
        -11   -1    0    0    0    0  0.00000000000E+00  0.00000000000E+00  0.45593999997E+02  0.45594000000E+02  0.51100000000E-03 0.  1.
         11   -1    0    0    0    0 -0.00000000000E+00 -0.00000000000E+00 -0.45593999997E+02  0.45594000000E+02  0.51100000000E-03 0. -1.
    9900012    2    1    2    0    0 -0.44922953253E+01  0.27325254659E+02  0.15807296400E+02  0.59301939112E+02  0.49999991035E+02 0.  0.
         12    1    1    2    0    0  0.44922953253E+01 -0.27325254659E+02 -0.15807296400E+02  0.31886060888E+02  0.00000000000E+00 0. -1.
         11    1    3    3    0    0  0.10322316148E+02  0.28633815115E+01  0.12799067133E+02  0.16690275135E+02  0.51100000000E-03 0. -1.
        -11    1    3    3    0    0  0.20574280928E+01  0.13378814359E+02  0.14127209481E+02  0.19565370734E+02  0.51100000000E-03 0.  1.
         12    1    3    3    0    0 -0.16872039566E+02  0.11083058789E+02 -0.11118980214E+02  0.23046293243E+02  0.00000000000E+00 0. -1.
</event>
<event>
 7    1  0.3223600E-013  0.5930193E+02  0.7816164E-02  0.1266605E+00
        -11   -1    0    0    0    0  0.00000000000E+00  0.00000000000E+00  0.45593999997E+02  0.45594000000E+02  0.51100000000E-03 0. -1.
         11   -1    0    0    0    0 -0.00000000000E+00 -0.00000000000E+00 -0.45593999997E+02  0.45594000000E+02  0.51100000000E-03 0.  1.
    9900012    2    1    2    0    0  0.13197548384E+02 -0.28236819803E+01 -0.28888982478E+02  0.59301925110E+02  0.49999965499E+02 0.  0.
         12    1    1    2    0    0 -0.13197548384E+02  0.28236819803E+01  0.28888982478E+02  0.31886074890E+02  0.00000000000E+00 0. -1.
         11    1    3    3    0    0 -0.45228969484E+01  0.13662996335E+02 -0.15011490102E+02  0.20796127067E+02  0.51100000000E-03 0. -1.
        -11    1    3    3    0    0 -0.17279445954E-01  0.54761417922E+00 -0.13902433755E+02  0.13913225523E+02  0.51100000000E-03 0.  1.
        -12    1    3    3    0    0  0.17737724778E+02 -0.17034292495E+02  0.24941378964E-01  0.24592572520E+02  0.00000000000E+00 0.  1.
</event>
<event>
 7    1  0.3223600E-013  0.5930196E+02  0.7816164E-02  0.1266605E+00
        -11   -1    0    0    0    0  0.00000000000E+00  0.00000000000E+00  0.45593999997E+02  0.45594000000E+02  0.51100000000E-03 0.  1.
         11   -1    0    0    0    0 -0.00000000000E+00 -0.00000000000E+00 -0.45593999997E+02  0.45594000000E+02  0.51100000000E-03 0. -1.
    9900012    2    1    2    0    0  0.22927393433E+02  0.84124434197E+01  0.20500854225E+02  0.59301959200E+02  0.50000027671E+02 0.  0.
         12    1    1    2    0    0 -0.22927393433E+02 -0.84124434197E+01 -0.20500854225E+02  0.31886040800E+02  0.00000000000E+00 0. -1.
         11    1    3    3    0    0  0.14026756280E+02 -0.10795522407E+02  0.88456167991E+01  0.19787322522E+02  0.51100000000E-03 0. -1.
        -11    1    3    3    0    0 -0.27624661104E+01 -0.48091582324E+01 -0.54743745873E+01  0.77928171607E+01  0.51100000000E-03 0.  1.
        -12    1    3    3    0    0  0.11663103263E+02  0.24017124059E+02  0.17129612013E+02  0.31721819517E+02  0.00000000000E+00 0.  1.
</event>
<event>
 7    1  0.3223600E-013  0.5930193E+02  0.7816164E-02  0.1266605E+00
        -11   -1    0    0    0    0  0.00000000000E+00  0.00000000000E+00  0.45593999997E+02  0.45594000000E+02  0.51100000000E-03 0. -1.
         11   -1    0    0    0    0 -0.00000000000E+00 -0.00000000000E+00 -0.45593999997E+02  0.45594000000E+02  0.51100000000E-03 0.  1.
    9900012    2    1    2    0    0 -0.21923467602E+02  0.12913129552E+02 -0.19218071594E+02  0.59301927455E+02  0.49999969775E+02 0.  0.
         12    1    1    2    0    0  0.21923467602E+02 -0.12913129552E+02  0.19218071594E+02  0.31886072545E+02  0.00000000000E+00 0. -1.
         11    1    3    3    0    0 -0.14487675076E+02  0.33526684685E+01 -0.11107749445E+01  0.14911972915E+02  0.51100000000E-03 0. -1.
        -11    1    3    3    0    0 -0.49237632345E+01  0.18730246386E+02  0.44845053236E+01  0.19879043295E+02  0.51100000000E-03 0.  1.
         12    1    3    3    0    0 -0.25120292914E+01 -0.91697853025E+01 -0.22591801973E+02  0.24510911245E+02  0.00000000000E+00 0. -1.
</event>
<event>
 7    1  0.3223600E-013  0.5930193E+02  0.7816164E-02  0.1266605E+00
        -11   -1    0    0    0    0  0.00000000000E+00  0.00000000000E+00  0.45593999997E+02  0.45594000000E+02  0.51100000000E-03 0. -1.
         11   -1    0    0    0    0 -0.00000000000E+00 -0.00000000000E+00 -0.45593999997E+02  0.45594000000E+02  0.51100000000E-03 0.  1.
    9900012    2    1    2    0    0  0.27576177823E+00  0.12777274870E+02 -0.29212779755E+02  0.59301932530E+02  0.49999979032E+02 0.  0.
         12    1    1    2    0    0 -0.27576177823E+00 -0.12777274870E+02  0.29212779755E+02  0.31886067470E+02  0.00000000000E+00 0. -1.
         11    1    3    3    0    0  0.13814839399E+02  0.18339302651E+01 -0.27551302323E+02  0.30875351784E+02  0.51100000000E-03 0. -1.
        -11    1    3    3    0    0  0.60647127830E+01  0.58625492121E+00 -0.14081152122E+01  0.62535769513E+01  0.51100000000E-03 0.  1.
        -12    1    3    3    0    0 -0.19603790403E+02  0.10357089684E+02 -0.25336221988E+00  0.22173003795E+02  0.00000000000E+00 0.  1.
</event>
<event>
 7    1  0.3223600E-013  0.5930194E+02  0.7816164E-02  0.1266605E+00
        -11   -1    0    0    0    0  0.00000000000E+00  0.00000000000E+00  0.45593999997E+02  0.45594000000E+02  0.51100000000E-03 0.  1.
         11   -1    0    0    0    0 -0.00000000000E+00 -0.00000000000E+00 -0.45593999997E+02  0.45594000000E+02  0.51100000000E-03 0. -1.
    9900012    2    1    2    0    0  0.18696403891E+01 -0.24333939397E+02 -0.20520354217E+02  0.59301935662E+02  0.49999984743E+02 0.  0.
         12    1    1    2    0    0 -0.18696403891E+01  0.24333939397E+02  0.20520354217E+02  0.31886064338E+02  0.00000000000E+00 0. -1.
         11    1    3    3    0    0 -0.23217901736E+01 -0.69288362298E+01 -0.23647744820E+02  0.24751066976E+02  0.51100000000E-03 0. -1.
        -11    1    3    3    0    0  0.85137918616E+01 -0.19099179659E+02 -0.80818419328E+01  0.22418284609E+02  0.51100000000E-03 0.  1.
        -12    1    3    3    0    0 -0.43223612989E+01  0.16940764921E+01  0.11209232535E+02  0.12132584077E+02  0.00000000000E+00 0.  1.
</event>
<event>
 7    1  0.3223600E-013  0.5930201E+02  0.7816164E-02  0.1266605E+00
        -11   -1    0    0    0    0  0.00000000000E+00  0.00000000000E+00  0.45593999997E+02  0.45594000000E+02  0.51100000000E-03 0. -1.
         11   -1    0    0    0    0 -0.00000000000E+00 -0.00000000000E+00 -0.45593999997E+02  0.45594000000E+02  0.51100000000E-03 0.  1.
    9900012    2    1    2    0    0 -0.25832487881E+02  0.13567129042E+02 -0.12858147279E+02  0.59302009785E+02  0.50000119925E+02 0.  0.
         12    1    1    2    0    0  0.25832487881E+02 -0.13567129042E+02  0.12858147279E+02  0.31885990215E+02  0.00000000000E+00 0. -1.
         11    1    3    3    0    0 -0.51073480539E+01  0.25185554012E+02 -0.94821284845E+01  0.27391748682E+02  0.51100000000E-03 0. -1.
        -11    1    3    3    0    0 -0.74968043432E+01 -0.29761126202E+00 -0.10661048961E+02  0.13036434061E+02  0.51100000000E-03 0.  1.
         12    1    3    3    0    0 -0.13228335484E+02 -0.11320813707E+02  0.72850301670E+01  0.18873827042E+02  0.00000000000E+00 0. -1.
</event>
<event>
 7    1  0.3223600E-013  0.5930194E+02  0.7816164E-02  0.1266605E+00
        -11   -1    0    0    0    0  0.00000000000E+00  0.00000000000E+00  0.45593999997E+02  0.45594000000E+02  0.51100000000E-03 0. -1.
         11   -1    0    0    0    0 -0.00000000000E+00 -0.00000000000E+00 -0.45593999997E+02  0.45594000000E+02  0.51100000000E-03 0.  1.
    9900012    2    1    2    0    0  0.30973003649E+01 -0.41917854243E+01 -0.31457214046E+02  0.59301942700E+02  0.49999997579E+02 0.  0.
         12    1    1    2    0    0 -0.30973003649E+01  0.41917854243E+01  0.31457214046E+02  0.31886057300E+02  0.00000000000E+00 0. -1.
         11    1    3    3    0    0 -0.15876428090E+01  0.55544972024E+01 -0.20421960805E+01  0.61272843865E+01  0.51100000000E-03 0. -1.
        -11    1    3    3    0    0  0.16099906745E+02  0.48358365893E+00 -0.33620792681E+02  0.37280002026E+02  0.51100000000E-03 0.  1.
         12    1    3    3    0    0 -0.11414963571E+02 -0.10229866286E+02  0.42057747156E+01  0.15894656288E+02  0.00000000000E+00 0. -1.
</event>
<event>
 7    1  0.3223600E-013  0.5930192E+02  0.7816164E-02  0.1266605E+00
        -11   -1    0    0    0    0  0.00000000000E+00  0.00000000000E+00  0.45593999997E+02  0.45594000000E+02  0.51100000000E-03 0.  1.
         11   -1    0    0    0    0 -0.00000000000E+00 -0.00000000000E+00 -0.45593999997E+02  0.45594000000E+02  0.51100000000E-03 0. -1.
    9900012    2    1    2    0    0  0.25368269216E+02  0.19283259779E+02  0.11526681201E+01  0.59301924128E+02  0.49999963708E+02 0.  0.
         12    1    1    2    0    0 -0.25368269216E+02 -0.19283259779E+02 -0.11526681201E+01  0.31886075872E+02  0.00000000000E+00 0. -1.
         11    1    3    3    0    0  0.30018485276E+00  0.12945552679E+02 -0.92540319283E+01  0.15915858516E+02  0.51100000000E-03 0. -1.
        -11    1    3    3    0    0 -0.47957145214E+00 -0.90243321526E+01  0.10128577111E+02  0.13574116330E+02  0.51100000000E-03 0.  1.
         12    1    3    3    0    0  0.25547655815E+02  0.15362039253E+02  0.27812293705E+00  0.29811949283E+02  0.00000000000E+00 0. -1.
</event>
<event>
 7    1  0.3223600E-013  0.5930194E+02  0.7816164E-02  0.1266605E+00
        -11   -1    0    0    0    0  0.00000000000E+00  0.00000000000E+00  0.45593999997E+02  0.45594000000E+02  0.51100000000E-03 0. -1.
         11   -1    0    0    0    0 -0.00000000000E+00 -0.00000000000E+00 -0.45593999997E+02  0.45594000000E+02  0.51100000000E-03 0.  1.
    9900012    2    1    2    0    0  0.14908779112E+02 -0.12109397227E+02 -0.25452146880E+02  0.59301937580E+02  0.49999988242E+02 0.  0.
         12    1    1    2    0    0 -0.14908779112E+02  0.12109397227E+02  0.25452146880E+02  0.31886062420E+02  0.00000000000E+00 0. -1.
         11    1    3    3    0    0  0.15657401684E+02  0.90268511783E+01 -0.81116357524E+01  0.19810020306E+02  0.51100000000E-03 0. -1.
        -11    1    3    3    0    0  0.11505656154E+02 -0.19447576775E+02 -0.79231596252E+01  0.23945037579E+02  0.51100000000E-03 0.  1.
        -12    1    3    3    0    0 -0.12254278725E+02 -0.16886716304E+01 -0.94173515023E+01  0.15546879696E+02  0.00000000000E+00 0.  1.
</event>
<event>
 7    1  0.3223600E-013  0.5930193E+02  0.7816164E-02  0.1266605E+00
        -11   -1    0    0    0    0  0.00000000000E+00  0.00000000000E+00  0.45593999997E+02  0.45594000000E+02  0.51100000000E-03 0. -1.
         11   -1    0    0    0    0 -0.00000000000E+00 -0.00000000000E+00 -0.45593999997E+02  0.45594000000E+02  0.51100000000E-03 0.  1.
    9900012    2    1    2    0    0  0.21376702046E+01  0.10839703542E+02 -0.29910744841E+02  0.59301929942E+02  0.49999974311E+02 0.  0.
         12    1    1    2    0    0 -0.21376702046E+01 -0.10839703542E+02  0.29910744841E+02  0.31886070058E+02  0.00000000000E+00 0. -1.
         11    1    3    3    0    0  0.93543243126E+01  0.22378608275E+02 -0.32303449002E+01  0.24469176939E+02  0.51100000000E-03 0. -1.
        -11    1    3    3    0    0  0.54035541984E+01 -0.49007632604E+01 -0.13835764513E+02  0.15641107967E+02  0.51100000000E-03 0.  1.
        -12    1    3    3    0    0 -0.12620208306E+02 -0.66381414719E+01 -0.12844635428E+02  0.19191645036E+02  0.00000000000E+00 0.  1.
</event>
<event>
 7    1  0.3223600E-013  0.5930197E+02  0.7816164E-02  0.1266605E+00
        -11   -1    0    0    0    0  0.00000000000E+00  0.00000000000E+00  0.45593999997E+02  0.45594000000E+02  0.51100000000E-03 0.  1.
         11   -1    0    0    0    0 -0.00000000000E+00 -0.00000000000E+00 -0.45593999997E+02  0.45594000000E+02  0.51100000000E-03 0. -1.
    9900012    2    1    2    0    0 -0.20389415533E+02 -0.16293992760E+02  0.18316556853E+02  0.59301972954E+02  0.50000052754E+02 0.  0.
         12    1    1    2    0    0  0.20389415533E+02  0.16293992760E+02 -0.18316556853E+02  0.31886027046E+02  0.00000000000E+00 0. -1.
         11    1    3    3    0    0 -0.28308982098E+01 -0.49419446934E+01  0.23321586614E+01  0.61543290707E+01  0.51100000000E-03 0. -1.
        -11    1    3    3    0    0 -0.33371324289E+02 -0.77420540983E+01  0.13081395879E+02  0.36670255042E+02  0.51100000000E-03 0.  1.
        -12    1    3    3    0    0  0.15812806966E+02 -0.36099939685E+01  0.29030023123E+01  0.16477388841E+02  0.00000000000E+00 0.  1.
</event>
<event>
 7    1  0.3223600E-013  0.5930203E+02  0.7816164E-02  0.1266604E+00
        -11   -1    0    0    0    0  0.00000000000E+00  0.00000000000E+00  0.45593999997E+02  0.45594000000E+02  0.51100000000E-03 0. -1.
         11   -1    0    0    0    0 -0.00000000000E+00 -0.00000000000E+00 -0.45593999997E+02  0.45594000000E+02  0.51100000000E-03 0.  1.
    9900012    2    1    2    0    0  0.58016647570E+01  0.16339206824E+02 -0.26759786189E+02  0.59302028940E+02  0.50000154859E+02 0.  0.
         12    1    1    2    0    0 -0.58016647570E+01 -0.16339206824E+02  0.26759786189E+02  0.31885971060E+02  0.00000000000E+00 0. -1.
         11    1    3    3    0    0  0.20513439865E+02  0.29238845696E+01 -0.13627446778E+00  0.20721218281E+02  0.51100000000E-03 0. -1.
        -11    1    3    3    0    0  0.25207555806E+01 -0.15016911606E+01 -0.98614037201E+01  0.10288662140E+02  0.51100000000E-03 0.  1.
        -12    1    3    3    0    0 -0.17232530689E+02  0.14917013415E+02 -0.16762108001E+02  0.28292148518E+02  0.00000000000E+00 0.  1.
</event>
<event>
 7    1  0.3223600E-013  0.5930195E+02  0.7816164E-02  0.1266605E+00
        -11   -1    0    0    0    0  0.00000000000E+00  0.00000000000E+00  0.45593999997E+02  0.45594000000E+02  0.51100000000E-03 0. -1.
         11   -1    0    0    0    0 -0.00000000000E+00 -0.00000000000E+00 -0.45593999997E+02  0.45594000000E+02  0.51100000000E-03 0.  1.
    9900012    2    1    2    0    0  0.81089194990E+01 -0.27102583041E+02  0.14711075446E+02  0.59301947818E+02  0.50000006913E+02 0.  0.
         12    1    1    2    0    0 -0.81089194990E+01  0.27102583041E+02 -0.14711075446E+02  0.31886052182E+02  0.00000000000E+00 0. -1.
         11    1    3    3    0    0  0.18206774446E+02 -0.33039765976E+01  0.16326978740E+01  0.18576022171E+02  0.51100000000E-03 0.  1.
        -11    1    3    3    0    0  0.26857697185E+01  0.56787777352E+01  0.81236534288E+00  0.63341781833E+01  0.51100000000E-03 0. -1.
         12    1    3    3    0    0 -0.12783624666E+02 -0.29477384178E+02  0.12266012230E+02  0.34391747464E+02  0.00000000000E+00 0. -1.
</event>
<event>
 7    1  0.3223600E-013  0.5930194E+02  0.7816164E-02  0.1266605E+00
        -11   -1    0    0    0    0  0.00000000000E+00  0.00000000000E+00  0.45593999997E+02  0.45594000000E+02  0.51100000000E-03 0. -1.
         11   -1    0    0    0    0 -0.00000000000E+00 -0.00000000000E+00 -0.45593999997E+02  0.45594000000E+02  0.51100000000E-03 0.  1.
    9900012    2    1    2    0    0 -0.92150745473E+01  0.28419053364E+02 -0.11142731800E+02  0.59301942467E+02  0.49999997154E+02 0.  0.
         12    1    1    2    0    0  0.92150745473E+01 -0.28419053364E+02  0.11142731800E+02  0.31886057533E+02  0.00000000000E+00 0. -1.
         11    1    3    3    0    0  0.60365947698E+01 -0.38276690504E+01  0.43943988216E+01  0.83906059399E+01  0.51100000000E-03 0. -1.
        -11    1    3    3    0    0 -0.18530033790E+01  0.34466789234E+02 -0.13983071714E+02  0.37241367811E+02  0.51100000000E-03 0.  1.
        -12    1    3    3    0    0 -0.13398665938E+02 -0.22200668194E+01 -0.15540589076E+01  0.13669968716E+02  0.00000000000E+00 0.  1.
</event>
<event>
 7    1  0.3223600E-013  0.5930194E+02  0.7816164E-02  0.1266605E+00
        -11   -1    0    0    0    0  0.00000000000E+00  0.00000000000E+00  0.45593999997E+02  0.45594000000E+02  0.51100000000E-03 0.  1.
         11   -1    0    0    0    0 -0.00000000000E+00 -0.00000000000E+00 -0.45593999997E+02  0.45594000000E+02  0.51100000000E-03 0. -1.
    9900012    2    1    2    0    0 -0.23282682416E+02  0.21678908207E+02  0.21593453304E+01  0.59301935116E+02  0.49999983747E+02 0.  0.
         12    1    1    2    0    0  0.23282682416E+02 -0.21678908207E+02 -0.21593453304E+01  0.31886064884E+02  0.00000000000E+00 0. -1.
         11    1    3    3    0    0 -0.15356115009E+00  0.33142216400E+01 -0.14018270735E+02  0.14405539239E+02  0.51100000000E-03 0. -1.
        -11    1    3    3    0    0 -0.18011357776E+02 -0.27903149742E+01  0.79415444608E+00  0.18243507013E+02  0.51100000000E-03 0.  1.
        -12    1    3    3    0    0 -0.51177634896E+01  0.21155001542E+02  0.15383461620E+02  0.26652888863E+02  0.00000000000E+00 0.  1.
</event>
<event>
 7    1  0.3223600E-013  0.5930196E+02  0.7816164E-02  0.1266605E+00
        -11   -1    0    0    0    0  0.00000000000E+00  0.00000000000E+00  0.45593999997E+02  0.45594000000E+02  0.51100000000E-03 0. -1.
         11   -1    0    0    0    0 -0.00000000000E+00 -0.00000000000E+00 -0.45593999997E+02  0.45594000000E+02  0.51100000000E-03 0.  1.
    9900012    2    1    2    0    0 -0.24697526169E+02  0.13694788181E+01 -0.20121545054E+02  0.59301955302E+02  0.50000020562E+02 0.  0.
         12    1    1    2    0    0  0.24697526169E+02 -0.13694788181E+01  0.20121545054E+02  0.31886044698E+02  0.00000000000E+00 0. -1.
         11    1    3    3    0    0  0.10836321869E+01 -0.11258850781E+02 -0.15272494156E+02  0.19004869313E+02  0.51100000000E-03 0. -1.
        -11    1    3    3    0    0  0.53680115151E+01  0.27059704536E+01  0.29381313008E+01  0.66910716275E+01  0.51100000000E-03 0.  1.
        -12    1    3    3    0    0 -0.31149169871E+02  0.99223591457E+01 -0.77871821992E+01  0.33606014361E+02  0.00000000000E+00 0.  1.
</event>
<event>
 7    1  0.3223600E-013  0.5930194E+02  0.7816164E-02  0.1266605E+00
        -11   -1    0    0    0    0  0.00000000000E+00  0.00000000000E+00  0.45593999997E+02  0.45594000000E+02  0.51100000000E-03 0.  1.
         11   -1    0    0    0    0 -0.00000000000E+00 -0.00000000000E+00 -0.45593999997E+02  0.45594000000E+02  0.51100000000E-03 0. -1.
    9900012    2    1    2    0    0 -0.47730922977E+01 -0.47325309920E-01  0.31526755233E+02  0.59301938072E+02  0.49999989137E+02 0.  0.
         12    1    1    2    0    0  0.47730922977E+01  0.47325309920E-01 -0.31526755233E+02  0.31886061928E+02  0.00000000000E+00 0. -1.
         11    1    3    3    0    0 -0.92804545401E+01 -0.20127821277E+02  0.11599301142E+02  0.25015991147E+02  0.51100000000E-03 0. -1.
        -11    1    3    3    0    0  0.43540549576E+01 -0.18308104421E+01  0.83642993114E-01  0.47240510010E+01  0.51100000000E-03 0.  1.
        -12    1    3    3    0    0  0.15330728475E+00  0.21911306409E+02  0.19843811098E+02  0.29561895923E+02  0.00000000000E+00 0.  1.
</event>
<event>
 7    1  0.3223600E-013  0.5930193E+02  0.7816164E-02  0.1266605E+00
        -11   -1    0    0    0    0  0.00000000000E+00  0.00000000000E+00  0.45593999997E+02  0.45594000000E+02  0.51100000000E-03 0. -1.
         11   -1    0    0    0    0 -0.00000000000E+00 -0.00000000000E+00 -0.45593999997E+02  0.45594000000E+02  0.51100000000E-03 0.  1.
    9900012    2    1    2    0    0  0.83259887762E+01 -0.12013289041E+02 -0.28338674703E+02  0.59301926447E+02  0.49999967937E+02 0.  0.
         12    1    1    2    0    0 -0.83259887762E+01  0.12013289041E+02  0.28338674703E+02  0.31886073553E+02  0.00000000000E+00 0. -1.
         11    1    3    3    0    0  0.10686135093E+02 -0.20262207152E+01 -0.11587874050E+02  0.15892698917E+02  0.51100000000E-03 0. -1.
        -11    1    3    3    0    0 -0.19759671650E-01 -0.24922913232E+02 -0.10792945456E+02  0.27159522571E+02  0.51100000000E-03 0.  1.
         12    1    3    3    0    0 -0.23403866453E+01  0.14935844906E+02 -0.59578551979E+01  0.16249704959E+02  0.00000000000E+00 0. -1.
</event>
<event>
 7    1  0.3223600E-013  0.5930195E+02  0.7816164E-02  0.1266605E+00
        -11   -1    0    0    0    0  0.00000000000E+00  0.00000000000E+00  0.45593999997E+02  0.45594000000E+02  0.51100000000E-03 0. -1.
         11   -1    0    0    0    0 -0.00000000000E+00 -0.00000000000E+00 -0.45593999997E+02  0.45594000000E+02  0.51100000000E-03 0.  1.
    9900012    2    1    2    0    0 -0.31528952537E+02  0.47495861871E+01  0.29408631399E+00  0.59301954403E+02  0.50000018923E+02 0.  0.
         12    1    1    2    0    0  0.31528952537E+02 -0.47495861871E+01 -0.29408631399E+00  0.31886045597E+02  0.00000000000E+00 0. -1.
         11    1    3    3    0    0 -0.32795805083E+02 -0.15064148601E+02 -0.37002724906E+01  0.36279269851E+02  0.51100000000E-03 0.  1.
        -11    1    3    3    0    0  0.23966205937E+01  0.62886643044E+01  0.63439770264E+01  0.92486287511E+01  0.51100000000E-03 0. -1.
        -12    1    3    3    0    0 -0.11297680476E+01  0.13525070484E+02 -0.23496182218E+01  0.13774055802E+02  0.00000000000E+00 0.  1.
</event>
<event>
 7    1  0.3223600E-013  0.5930193E+02  0.7816164E-02  0.1266605E+00
        -11   -1    0    0    0    0  0.00000000000E+00  0.00000000000E+00  0.45593999997E+02  0.45594000000E+02  0.51100000000E-03 0. -1.
         11   -1    0    0    0    0 -0.00000000000E+00 -0.00000000000E+00 -0.45593999997E+02  0.45594000000E+02  0.51100000000E-03 0.  1.
    9900012    2    1    2    0    0 -0.27121771485E+02 -0.36293380066E+01 -0.16369457688E+02  0.59301925800E+02  0.49999966757E+02 0.  0.
         12    1    1    2    0    0  0.27121771485E+02  0.36293380066E+01  0.16369457688E+02  0.31886074200E+02  0.00000000000E+00 0. -1.
         11    1    3    3    0    0  0.21426022196E+01 -0.14695301736E+02 -0.50939310195E+01  0.15700024550E+02  0.51100000000E-03 0. -1.
        -11    1    3    3    0    0 -0.90794165100E+01  0.22627338696E+01 -0.18244738355E+02  0.20504298248E+02  0.51100000000E-03 0.  1.
        -12    1    3    3    0    0 -0.20184957195E+02  0.88032298596E+01  0.69692116865E+01  0.23097603002E+02  0.00000000000E+00 0.  1.
</event>
<event>
 7    1  0.3223600E-013  0.5930195E+02  0.7816164E-02  0.1266605E+00
        -11   -1    0    0    0    0  0.00000000000E+00  0.00000000000E+00  0.45593999997E+02  0.45594000000E+02  0.51100000000E-03 0.  1.
         11   -1    0    0    0    0 -0.00000000000E+00 -0.00000000000E+00 -0.45593999997E+02  0.45594000000E+02  0.51100000000E-03 0. -1.
    9900012    2    1    2    0    0 -0.23533660808E+02  0.40279803144E+01  0.21134392502E+02  0.59301947205E+02  0.50000005795E+02 0.  0.
         12    1    1    2    0    0  0.23533660808E+02 -0.40279803144E+01 -0.21134392502E+02  0.31886052795E+02  0.00000000000E+00 0. -1.
         11    1    3    3    0    0 -0.12866738148E+02 -0.14568895627E+02  0.19673439028E+02  0.27655919327E+02  0.51100000000E-03 0. -1.
        -11    1    3    3    0    0 -0.42438403731E+01 -0.52842604402E+01 -0.74371488329E+00  0.68181156929E+01  0.51100000000E-03 0.  1.
        -12    1    3    3    0    0 -0.64230822869E+01  0.23881136381E+02  0.22046683567E+01  0.24827912185E+02  0.00000000000E+00 0.  1.
</event>
<event>
 7    1  0.3223600E-013  0.5930195E+02  0.7816164E-02  0.1266605E+00
        -11   -1    0    0    0    0  0.00000000000E+00  0.00000000000E+00  0.45593999997E+02  0.45594000000E+02  0.51100000000E-03 0.  1.
         11   -1    0    0    0    0 -0.00000000000E+00 -0.00000000000E+00 -0.45593999997E+02  0.45594000000E+02  0.51100000000E-03 0. -1.
    9900012    2    1    2    0    0  0.13149358084E+02  0.25968724210E+02  0.13016900470E+02  0.59301953633E+02  0.50000017517E+02 0.  0.
         12    1    1    2    0    0 -0.13149358084E+02 -0.25968724210E+02 -0.13016900470E+02  0.31886046367E+02  0.00000000000E+00 0. -1.
         11    1    3    3    0    0  0.31726062867E+01  0.79317903684E-01 -0.63778544335E+01  0.71238156501E+01  0.51100000000E-03 0. -1.
        -11    1    3    3    0    0 -0.27921371102E+01  0.24138733241E+02 -0.47958139246E+01  0.24768413425E+02  0.51100000000E-03 0.  1.
        -12    1    3    3    0    0  0.12768888907E+02  0.17506730647E+01  0.24190568828E+02  0.27409724558E+02  0.00000000000E+00 0.  1.
</event>
<event>
 7    1  0.3223600E-013  0.5930192E+02  0.7816164E-02  0.1266605E+00
        -11   -1    0    0    0    0  0.00000000000E+00  0.00000000000E+00  0.45593999997E+02  0.45594000000E+02  0.51100000000E-03 0. -1.
         11   -1    0    0    0    0 -0.00000000000E+00 -0.00000000000E+00 -0.45593999997E+02  0.45594000000E+02  0.51100000000E-03 0.  1.
    9900012    2    1    2    0    0 -0.96734099483E+01 -0.26565631741E+02 -0.14744984322E+02  0.59301918201E+02  0.49999952898E+02 0.  0.
         12    1    1    2    0    0  0.96734099483E+01  0.26565631741E+02  0.14744984322E+02  0.31886081799E+02  0.00000000000E+00 0. -1.
         11    1    3    3    0    0  0.11470590653E+01 -0.85478935081E+01 -0.61198262355E+01  0.10575183277E+02  0.51100000000E-03 0. -1.
        -11    1    3    3    0    0 -0.13092502901E+02 -0.31194492672E+02 -0.22276309522E+01  0.33903869177E+02  0.51100000000E-03 0.  1.
         12    1    3    3    0    0  0.22720338871E+01  0.13176754439E+02 -0.63975271343E+01  0.14822865747E+02  0.00000000000E+00 0. -1.
</event>
<event>
 7    1  0.3223600E-013  0.5930193E+02  0.7816164E-02  0.1266605E+00
        -11   -1    0    0    0    0  0.00000000000E+00  0.00000000000E+00  0.45593999997E+02  0.45594000000E+02  0.51100000000E-03 0. -1.
         11   -1    0    0    0    0 -0.00000000000E+00 -0.00000000000E+00 -0.45593999997E+02  0.45594000000E+02  0.51100000000E-03 0.  1.
    9900012    2    1    2    0    0 -0.13233176821E+02 -0.25736619254E+02  0.13387723097E+02  0.59301926722E+02  0.49999968438E+02 0.  0.
         12    1    1    2    0    0  0.13233176821E+02  0.25736619254E+02 -0.13387723097E+02  0.31886073278E+02  0.00000000000E+00 0. -1.
         11    1    3    3    0    0  0.53980313908E+01 -0.20888652664E+02 -0.92272627803E+00  0.21594582123E+02  0.51100000000E-03 0. -1.
        -11    1    3    3    0    0  0.52743316252E+01 -0.40017338882E+01  0.11961855590E+02  0.13671811790E+02  0.51100000000E-03 0.  1.
        -12    1    3    3    0    0 -0.23905539837E+02 -0.84623270154E+00  0.23485937853E+01  0.24035532810E+02  0.00000000000E+00 0.  1.
</event>
<event>
 7    1  0.3223600E-013  0.5930196E+02  0.7816164E-02  0.1266605E+00
        -11   -1    0    0    0    0  0.00000000000E+00  0.00000000000E+00  0.45593999997E+02  0.45594000000E+02  0.51100000000E-03 0.  1.
         11   -1    0    0    0    0 -0.00000000000E+00 -0.00000000000E+00 -0.45593999997E+02  0.45594000000E+02  0.51100000000E-03 0. -1.
    9900012    2    1    2    0    0  0.31722340344E+02 -0.13527974511E+01 -0.29296526343E+01  0.59301955993E+02  0.50000021822E+02 0.  0.
         12    1    1    2    0    0 -0.31722340344E+02  0.13527974511E+01  0.29296526343E+01  0.31886044007E+02  0.00000000000E+00 0. -1.
         11    1    3    3    0    0  0.11381549971E+02 -0.17519067056E+02 -0.74028225292E+00  0.20904674318E+02  0.51100000000E-03 0. -1.
        -11    1    3    3    0    0  0.17257670367E+02  0.12279289466E+02  0.11312963442E+02  0.24012315140E+02  0.51100000000E-03 0.  1.
        -12    1    3    3    0    0  0.30831200065E+01  0.38869801390E+01 -0.13502333823E+02  0.14384966536E+02  0.00000000000E+00 0.  1.
</event>
<event>
 7    1  0.3223600E-013  0.5930193E+02  0.7816164E-02  0.1266605E+00
        -11   -1    0    0    0    0  0.00000000000E+00  0.00000000000E+00  0.45593999997E+02  0.45594000000E+02  0.51100000000E-03 0. -1.
         11   -1    0    0    0    0 -0.00000000000E+00 -0.00000000000E+00 -0.45593999997E+02  0.45594000000E+02  0.51100000000E-03 0.  1.
    9900012    2    1    2    0    0 -0.22350496378E+02  0.19069422357E+02 -0.12390877923E+02  0.59301930736E+02  0.49999975759E+02 0.  0.
         12    1    1    2    0    0  0.22350496378E+02 -0.19069422357E+02  0.12390877923E+02  0.31886069264E+02  0.00000000000E+00 0. -1.
         11    1    3    3    0    0  0.36304859705E+01 -0.51587454993E+01 -0.23086027365E+01  0.67173454849E+01  0.51100000000E-03 0. -1.
        -11    1    3    3    0    0 -0.22210599228E+01 -0.42982756203E+00 -0.17418677190E+02  0.17564970089E+02  0.51100000000E-03 0.  1.
         12    1    3    3    0    0 -0.23759922426E+02  0.24657995418E+02  0.73364020033E+01  0.35019615162E+02  0.00000000000E+00 0. -1.
</event>
<event>
 7    1  0.3223600E-013  0.5930195E+02  0.7816164E-02  0.1266605E+00
        -11   -1    0    0    0    0  0.00000000000E+00  0.00000000000E+00  0.45593999997E+02  0.45594000000E+02  0.51100000000E-03 0.  1.
         11   -1    0    0    0    0 -0.00000000000E+00 -0.00000000000E+00 -0.45593999997E+02  0.45594000000E+02  0.51100000000E-03 0. -1.
    9900012    2    1    2    0    0 -0.12255728472E+02 -0.27251607233E+02  0.11129565458E+02  0.59301949689E+02  0.50000010325E+02 0.  0.
         12    1    1    2    0    0  0.12255728472E+02  0.27251607233E+02 -0.11129565458E+02  0.31886050311E+02  0.00000000000E+00 0. -1.
         11    1    3    3    0    0 -0.18107850317E+02  0.13692640316E+01  0.11650985795E+02  0.21575787294E+02  0.51100000000E-03 0. -1.
        -11    1    3    3    0    0 -0.90117368039E+01 -0.12226929014E+02  0.24942885107E+01  0.15392552380E+02  0.51100000000E-03 0.  1.
         12    1    3    3    0    0  0.14863858650E+02 -0.16393942250E+02 -0.30157088474E+01  0.22333610015E+02  0.00000000000E+00 0. -1.
</event>
<event>
 7    1  0.3223600E-013  0.5930195E+02  0.7816164E-02  0.1266605E+00
        -11   -1    0    0    0    0  0.00000000000E+00  0.00000000000E+00  0.45593999997E+02  0.45594000000E+02  0.51100000000E-03 0.  1.
         11   -1    0    0    0    0 -0.00000000000E+00 -0.00000000000E+00 -0.45593999997E+02  0.45594000000E+02  0.51100000000E-03 0. -1.
    9900012    2    1    2    0    0  0.39359284055E+01  0.99141186937E+00  0.31626664626E+02  0.59301947481E+02  0.50000006297E+02 0.  0.
         12    1    1    2    0    0 -0.39359284055E+01 -0.99141186937E+00 -0.31626664626E+02  0.31886052519E+02  0.00000000000E+00 0. -1.
         11    1    3    3    0    0  0.15741131025E+02  0.67068096079E+01  0.38185441620E+02  0.41843666821E+02  0.51100000000E-03 0. -1.
        -11    1    3    3    0    0 -0.13023961078E+01 -0.28010862054E+01 -0.57517823025E+01  0.65288068947E+01  0.51100000000E-03 0.  1.
        -12    1    3    3    0    0 -0.10502806512E+02 -0.29143115331E+01 -0.80699469174E+00  0.10929473765E+02  0.00000000000E+00 0.  1.
</event>
<event>
 7    1  0.3223600E-013  0.5930196E+02  0.7816164E-02  0.1266605E+00
        -11   -1    0    0    0    0  0.00000000000E+00  0.00000000000E+00  0.45593999997E+02  0.45594000000E+02  0.51100000000E-03 0.  1.
         11   -1    0    0    0    0 -0.00000000000E+00 -0.00000000000E+00 -0.45593999997E+02  0.45594000000E+02  0.51100000000E-03 0. -1.
    9900012    2    1    2    0    0 -0.80954544143E+01  0.28479128546E+02  0.11837331390E+02  0.59301959805E+02  0.50000028774E+02 0.  0.
         12    1    1    2    0    0  0.80954544143E+01 -0.28479128546E+02 -0.11837331390E+02  0.31886040195E+02  0.00000000000E+00 0. -1.
         11    1    3    3    0    0 -0.56310165643E+01  0.18884382921E+02 -0.63661590977E+00  0.19716326887E+02  0.51100000000E-03 0. -1.
        -11    1    3    3    0    0  0.70913615783E+01  0.15310131018E+02 -0.60903160601E+01  0.17938212587E+02  0.51100000000E-03 0.  1.
        -12    1    3    3    0    0 -0.95557994283E+01 -0.57153853931E+01  0.18564263360E+02  0.21647420331E+02  0.00000000000E+00 0.  1.
</event>
<event>
 7    1  0.3223600E-013  0.5930194E+02  0.7816164E-02  0.1266605E+00
        -11   -1    0    0    0    0  0.00000000000E+00  0.00000000000E+00  0.45593999997E+02  0.45594000000E+02  0.51100000000E-03 0. -1.
         11   -1    0    0    0    0 -0.00000000000E+00 -0.00000000000E+00 -0.45593999997E+02  0.45594000000E+02  0.51100000000E-03 0.  1.
    9900012    2    1    2    0    0  0.29767894196E+02 -0.97185643263E+01 -0.60119084866E+01  0.59301936256E+02  0.49999985826E+02 0.  0.
         12    1    1    2    0    0 -0.29767894196E+02  0.97185643263E+01  0.60119084866E+01  0.31886063744E+02  0.00000000000E+00 0. -1.
         11    1    3    3    0    0  0.10412703842E+02 -0.24009910134E+02  0.18291386938E+01  0.26234441762E+02  0.51100000000E-03 0. -1.
        -11    1    3    3    0    0 -0.49121710587E+00  0.93865695041E+01 -0.84150398184E+01  0.12615937409E+02  0.51100000000E-03 0.  1.
         12    1    3    3    0    0  0.19846407460E+02  0.49047763033E+01  0.57399263806E+00  0.20451557085E+02  0.00000000000E+00 0. -1.
</event>
<event>
 7    1  0.3223600E-013  0.5930193E+02  0.7816164E-02  0.1266605E+00
        -11   -1    0    0    0    0  0.00000000000E+00  0.00000000000E+00  0.45593999997E+02  0.45594000000E+02  0.51100000000E-03 0. -1.
         11   -1    0    0    0    0 -0.00000000000E+00 -0.00000000000E+00 -0.45593999997E+02  0.45594000000E+02  0.51100000000E-03 0.  1.
    9900012    2    1    2    0    0 -0.30149726682E+02  0.68174097689E+01 -0.78254781892E+01  0.59301934017E+02  0.49999981743E+02 0.  0.
         12    1    1    2    0    0  0.30149726682E+02 -0.68174097689E+01  0.78254781892E+01  0.31886065983E+02  0.00000000000E+00 0. -1.
         11    1    3    3    0    0 -0.12000293578E+02  0.17103100186E+02  0.68366639620E+00  0.20904317304E+02  0.51100000000E-03 0. -1.
        -11    1    3    3    0    0  0.64702461833E+01  0.37628126651E+01 -0.66141125780E+01  0.99884598553E+01  0.51100000000E-03 0.  1.
        -12    1    3    3    0    0 -0.24619679287E+02 -0.14048503082E+02 -0.18950320074E+01  0.28409156858E+02  0.00000000000E+00 0.  1.
</event>
<event>
 7    1  0.3223600E-013  0.5930194E+02  0.7816164E-02  0.1266605E+00
        -11   -1    0    0    0    0  0.00000000000E+00  0.00000000000E+00  0.45593999997E+02  0.45594000000E+02  0.51100000000E-03 0. -1.
         11   -1    0    0    0    0 -0.00000000000E+00 -0.00000000000E+00 -0.45593999997E+02  0.45594000000E+02  0.51100000000E-03 0.  1.
    9900012    2    1    2    0    0 -0.13288618684E+02  0.16750910659E+02 -0.23654601692E+02  0.59301943868E+02  0.49999999709E+02 0.  0.
         12    1    1    2    0    0  0.13288618684E+02 -0.16750910659E+02  0.23654601692E+02  0.31886056132E+02  0.00000000000E+00 0. -1.
         11    1    3    3    0    0 -0.10795000256E+02 -0.77229245177E+01 -0.15575423663E+02  0.20463856337E+02  0.51100000000E-03 0. -1.
        -11    1    3    3    0    0  0.42644781844E+01 -0.51757449997E+01  0.16561694328E+01  0.69077498462E+01  0.51100000000E-03 0.  1.
        -12    1    3    3    0    0 -0.67580966123E+01  0.29649580177E+02 -0.97353474609E+01  0.31930337685E+02  0.00000000000E+00 0.  1.
</event>
<event>
 7    1  0.3223600E-013  0.5930195E+02  0.7816164E-02  0.1266605E+00
        -11   -1    0    0    0    0  0.00000000000E+00  0.00000000000E+00  0.45593999997E+02  0.45594000000E+02  0.51100000000E-03 0.  1.
         11   -1    0    0    0    0 -0.00000000000E+00 -0.00000000000E+00 -0.45593999997E+02  0.45594000000E+02  0.51100000000E-03 0. -1.
    9900012    2    1    2    0    0 -0.13545549026E+02 -0.13768763865E+02  0.25370445897E+02  0.59301948476E+02  0.50000008112E+02 0.  0.
         12    1    1    2    0    0  0.13545549026E+02  0.13768763865E+02 -0.25370445897E+02  0.31886051524E+02  0.00000000000E+00 0. -1.
         11    1    3    3    0    0 -0.83486670213E+01 -0.13246171457E+02 -0.96440900148E+00  0.15687300096E+02  0.51100000000E-03 0. -1.
        -11    1    3    3    0    0  0.11423559476E+02 -0.96414164893E+01  0.68969039126E+01  0.16462742993E+02  0.51100000000E-03 0.  1.
        -12    1    3    3    0    0 -0.16620441480E+02  0.91188240817E+01  0.19437950986E+02  0.27151905387E+02  0.00000000000E+00 0.  1.
</event>
<event>
 7    1  0.3223600E-013  0.5930174E+02  0.7816164E-02  0.1266605E+00
        -11   -1    0    0    0    0  0.00000000000E+00  0.00000000000E+00  0.45593999997E+02  0.45594000000E+02  0.51100000000E-03 0.  1.
         11   -1    0    0    0    0 -0.00000000000E+00 -0.00000000000E+00 -0.45593999997E+02  0.45594000000E+02  0.51100000000E-03 0. -1.
    9900012    2    1    2    0    0  0.23193866428E+02  0.73741989878E+01  0.20600962072E+02  0.59301735107E+02  0.49999618976E+02 0.  0.
         12    1    1    2    0    0 -0.23193866428E+02 -0.73741989878E+01 -0.20600962072E+02  0.31886264893E+02  0.00000000000E+00 0. -1.
         11    1    3    3    0    0  0.10589685963E+01  0.16454787196E+02  0.18773967300E+02  0.24986862240E+02  0.51100000000E-03 0. -1.
        -11    1    3    3    0    0  0.42393720130E+01  0.76714956216E+01 -0.31276682057E+01  0.93062575079E+01  0.51100000000E-03 0.  1.
         12    1    3    3    0    0  0.17895525818E+02 -0.16752083830E+02  0.49546629772E+01  0.25008615359E+02  0.00000000000E+00 0. -1.
</event>
<event>
 7    1  0.3223600E-013  0.5930194E+02  0.7816164E-02  0.1266605E+00
        -11   -1    0    0    0    0  0.00000000000E+00  0.00000000000E+00  0.45593999997E+02  0.45594000000E+02  0.51100000000E-03 0.  1.
         11   -1    0    0    0    0 -0.00000000000E+00 -0.00000000000E+00 -0.45593999997E+02  0.45594000000E+02  0.51100000000E-03 0. -1.
    9900012    2    1    2    0    0 -0.52195699790E+01 -0.17162794638E+02  0.26361248415E+02  0.59301939589E+02  0.49999991905E+02 0.  0.
         12    1    1    2    0    0  0.52195699790E+01  0.17162794638E+02 -0.26361248415E+02  0.31886060411E+02  0.00000000000E+00 0. -1.
         11    1    3    3    0    0  0.17853483442E+01  0.48639805568E+01  0.33731691071E+02  0.34127302242E+02  0.51100000000E-03 0.  1.
        -11    1    3    3    0    0 -0.79824804545E+00 -0.13146784253E+02 -0.49724069749E+01  0.14078351022E+02  0.51100000000E-03 0. -1.
        -12    1    3    3    0    0 -0.62066702777E+01 -0.88799909418E+01 -0.23980356816E+01  0.11096286324E+02  0.00000000000E+00 0.  1.
</event>
<event>
 7    1  0.3223600E-013  0.5930194E+02  0.7816164E-02  0.1266605E+00
        -11   -1    0    0    0    0  0.00000000000E+00  0.00000000000E+00  0.45593999997E+02  0.45594000000E+02  0.51100000000E-03 0. -1.
         11   -1    0    0    0    0 -0.00000000000E+00 -0.00000000000E+00 -0.45593999997E+02  0.45594000000E+02  0.51100000000E-03 0.  1.
    9900012    2    1    2    0    0  0.27304149161E+02 -0.16360563163E+02 -0.18804404490E+01  0.59301942785E+02  0.49999997734E+02 0.  0.
         12    1    1    2    0    0 -0.27304149161E+02  0.16360563163E+02  0.18804404490E+01  0.31886057215E+02  0.00000000000E+00 0. -1.
         11    1    3    3    0    0  0.19211580806E+02 -0.23071746105E+01  0.78950165567E+01  0.20898305635E+02  0.51100000000E-03 0. -1.
        -11    1    3    3    0    0  0.35995363252E+01  0.79752555233E+01 -0.13021591570E+02  0.15688314431E+02  0.51100000000E-03 0.  1.
         12    1    3    3    0    0  0.44930320301E+01 -0.22028644075E+02  0.32461345639E+01  0.22715322719E+02  0.00000000000E+00 0. -1.
</event>
<event>
 7    1  0.3223600E-013  0.5930195E+02  0.7816164E-02  0.1266605E+00
        -11   -1    0    0    0    0  0.00000000000E+00  0.00000000000E+00  0.45593999997E+02  0.45594000000E+02  0.51100000000E-03 0.  1.
         11   -1    0    0    0    0 -0.00000000000E+00 -0.00000000000E+00 -0.45593999997E+02  0.45594000000E+02  0.51100000000E-03 0. -1.
    9900012    2    1    2    0    0  0.12629183995E+02 -0.24464844390E+02  0.16084016089E+02  0.59301945479E+02  0.50000002646E+02 0.  0.
         12    1    1    2    0    0 -0.12629183995E+02  0.24464844390E+02 -0.16084016089E+02  0.31886054521E+02  0.00000000000E+00 0. -1.
         11    1    3    3    0    0 -0.25714998273E+01 -0.11298949523E+02 -0.69456389291E+01  0.13510024873E+02  0.51100000000E-03 0. -1.
        -11    1    3    3    0    0  0.12373534063E+02 -0.20670931469E+02  0.30760233057E+01  0.24286903315E+02  0.51100000000E-03 0.  1.
         12    1    3    3    0    0  0.28271497600E+01  0.75050366023E+01  0.19953631712E+02  0.21505017291E+02  0.00000000000E+00 0. -1.
</event>
<event>
 7    1  0.3223600E-013  0.5930194E+02  0.7816164E-02  0.1266605E+00
        -11   -1    0    0    0    0  0.00000000000E+00  0.00000000000E+00  0.45593999997E+02  0.45594000000E+02  0.51100000000E-03 0.  1.
         11   -1    0    0    0    0 -0.00000000000E+00 -0.00000000000E+00 -0.45593999997E+02  0.45594000000E+02  0.51100000000E-03 0. -1.
    9900012    2    1    2    0    0 -0.27365258368E+02  0.98162799666E+01  0.13095948075E+02  0.59301943896E+02  0.49999999759E+02 0.  0.
         12    1    1    2    0    0  0.27365258368E+02 -0.98162799666E+01 -0.13095948075E+02  0.31886056104E+02  0.00000000000E+00 0. -1.
         11    1    3    3    0    0  0.48942072135E+01 -0.29924459134E+01 -0.52317158438E+01  0.77639453710E+01  0.51100000000E-03 0. -1.
        -11    1    3    3    0    0 -0.12148132080E+02 -0.10063895962E+02  0.13372810441E+02  0.20680695692E+02  0.51100000000E-03 0.  1.
         12    1    3    3    0    0 -0.20111333501E+02  0.22872621842E+02  0.49548534777E+01  0.30857302832E+02  0.00000000000E+00 0. -1.
</event>
<event>
 7    1  0.3223600E-013  0.5930189E+02  0.7816164E-02  0.1266605E+00
        -11   -1    0    0    0    0  0.00000000000E+00  0.00000000000E+00  0.45593999997E+02  0.45594000000E+02  0.51100000000E-03 0.  1.
         11   -1    0    0    0    0 -0.00000000000E+00 -0.00000000000E+00 -0.45593999997E+02  0.45594000000E+02  0.51100000000E-03 0. -1.
    9900012    2    1    2    0    0 -0.19577407339E+02 -0.12745069811E+02  0.21702813902E+02  0.59301893090E+02  0.49999907102E+02 0.  0.
         12    1    1    2    0    0  0.19577407339E+02  0.12745069811E+02 -0.21702813902E+02  0.31886106910E+02  0.00000000000E+00 0. -1.
         11    1    3    3    0    0  0.12028897883E+02 -0.71649498606E+01  0.89040023645E+00  0.14029387143E+02  0.51100000000E-03 0. -1.
        -11    1    3    3    0    0 -0.14030819737E+02 -0.14561510305E+02  0.13032535061E+02  0.24057191341E+02  0.51100000000E-03 0.  1.
         12    1    3    3    0    0 -0.17575485484E+02  0.89813903541E+01  0.77798786050E+01  0.21215314606E+02  0.00000000000E+00 0. -1.
</event>
<event>
 7    1  0.3223600E-013  0.5930195E+02  0.7816164E-02  0.1266605E+00
        -11   -1    0    0    0    0  0.00000000000E+00  0.00000000000E+00  0.45593999997E+02  0.45594000000E+02  0.51100000000E-03 0.  1.
         11   -1    0    0    0    0 -0.00000000000E+00 -0.00000000000E+00 -0.45593999997E+02  0.45594000000E+02  0.51100000000E-03 0. -1.
    9900012    2    1    2    0    0  0.16699972691E+02 -0.21820676515E+02  0.16176810008E+02  0.59301949860E+02  0.50000010637E+02 0.  0.
         12    1    1    2    0    0 -0.16699972691E+02  0.21820676515E+02 -0.16176810008E+02  0.31886050140E+02  0.00000000000E+00 0. -1.
         11    1    3    3    0    0  0.41280745567E+01 -0.15769494448E+02  0.10519906299E+02  0.19400679975E+02  0.51100000000E-03 0. -1.
        -11    1    3    3    0    0  0.32050880014E+01 -0.18935598893E+02 -0.60470239097E+01  0.20134447918E+02  0.51100000000E-03 0.  1.
         12    1    3    3    0    0  0.93668101329E+01  0.12884416825E+02  0.11703927619E+02  0.19766821967E+02  0.00000000000E+00 0. -1.
</event>
<event>
 7    1  0.3223600E-013  0.5930197E+02  0.7816164E-02  0.1266605E+00
        -11   -1    0    0    0    0  0.00000000000E+00  0.00000000000E+00  0.45593999997E+02  0.45594000000E+02  0.51100000000E-03 0.  1.
         11   -1    0    0    0    0 -0.00000000000E+00 -0.00000000000E+00 -0.45593999997E+02  0.45594000000E+02  0.51100000000E-03 0. -1.
    9900012    2    1    2    0    0  0.76509196969E+01 -0.30347118678E+02 -0.61020191254E+01  0.59301971372E+02  0.50000049869E+02 0.  0.
         12    1    1    2    0    0 -0.76509196969E+01  0.30347118678E+02  0.61020191254E+01  0.31886028628E+02  0.00000000000E+00 0. -1.
         11    1    3    3    0    0 -0.27258906606E+01 -0.28730922385E+02 -0.38179096837E+01  0.29111386357E+02  0.51100000000E-03 0.  1.
        -11    1    3    3    0    0 -0.89999477117E+01 -0.27760285823E+01  0.33199949976E+01  0.99863787505E+01  0.51100000000E-03 0. -1.
         12    1    3    3    0    0  0.19376758069E+02  0.11598322892E+01 -0.56041044393E+01  0.20204206264E+02  0.00000000000E+00 0. -1.
</event>
<event>
 7    1  0.3223600E-013  0.5930195E+02  0.7816164E-02  0.1266605E+00
        -11   -1    0    0    0    0  0.00000000000E+00  0.00000000000E+00  0.45593999997E+02  0.45594000000E+02  0.51100000000E-03 0.  1.
         11   -1    0    0    0    0 -0.00000000000E+00 -0.00000000000E+00 -0.45593999997E+02  0.45594000000E+02  0.51100000000E-03 0. -1.
    9900012    2    1    2    0    0  0.61046415350E+01 -0.28521300674E+02  0.12883664448E+02  0.59301952110E+02  0.50000014740E+02 0.  0.
         12    1    1    2    0    0 -0.61046415350E+01  0.28521300674E+02 -0.12883664448E+02  0.31886047890E+02  0.00000000000E+00 0. -1.
         11    1    3    3    0    0 -0.29946614898E+01  0.74200467091E+01 -0.72235402113E+00  0.80341076789E+01  0.51100000000E-03 0. -1.
        -11    1    3    3    0    0  0.20869600515E+02 -0.29100804838E+02  0.10188285221E+02  0.37231683065E+02  0.51100000000E-03 0.  1.
         12    1    3    3    0    0 -0.11770297491E+02 -0.68405425453E+01  0.34177332486E+01  0.14036161366E+02  0.00000000000E+00 0. -1.
</event>
<event>
 7    1  0.3223600E-013  0.5930201E+02  0.7816164E-02  0.1266605E+00
        -11   -1    0    0    0    0  0.00000000000E+00  0.00000000000E+00  0.45593999997E+02  0.45594000000E+02  0.51100000000E-03 0.  1.
         11   -1    0    0    0    0 -0.00000000000E+00 -0.00000000000E+00 -0.45593999997E+02  0.45594000000E+02  0.51100000000E-03 0. -1.
    9900012    2    1    2    0    0 -0.68825514043E+01  0.11832726273E+01  0.31111838630E+02  0.59302013252E+02  0.50000126249E+02 0.  0.
         12    1    1    2    0    0  0.68825514043E+01 -0.11832726273E+01 -0.31111838630E+02  0.31885986748E+02  0.00000000000E+00 0. -1.
         11    1    3    3    0    0 -0.57638499604E+01  0.13225104363E+02  0.19942819373E+02  0.24613845628E+02  0.51100000000E-03 0. -1.
        -11    1    3    3    0    0 -0.95058196057E+01  0.70286845961E+01  0.58303986922E+01  0.13181675261E+02  0.51100000000E-03 0.  1.
         12    1    3    3    0    0  0.83871181617E+01 -0.19070516332E+02  0.53386205649E+01  0.21506492363E+02  0.00000000000E+00 0. -1.
</event>
<event>
 7    1  0.3223600E-013  0.5930196E+02  0.7816164E-02  0.1266605E+00
        -11   -1    0    0    0    0  0.00000000000E+00  0.00000000000E+00  0.45593999997E+02  0.45594000000E+02  0.51100000000E-03 0.  1.
         11   -1    0    0    0    0 -0.00000000000E+00 -0.00000000000E+00 -0.45593999997E+02  0.45594000000E+02  0.51100000000E-03 0. -1.
    9900012    2    1    2    0    0  0.11207427176E+01  0.29974094857E+02  0.10817457997E+02  0.59301955650E+02  0.50000021197E+02 0.  0.
         12    1    1    2    0    0 -0.11207427176E+01 -0.29974094857E+02 -0.10817457997E+02  0.31886044350E+02  0.00000000000E+00 0. -1.
         11    1    3    3    0    0  0.17245995697E+02  0.78244148931E+01  0.50228945356E+01  0.19592736046E+02  0.51100000000E-03 0. -1.
        -11    1    3    3    0    0 -0.18182879477E+01  0.23090121185E+02  0.92837764619E+01  0.24952923136E+02  0.51100000000E-03 0.  1.
        -12    1    3    3    0    0 -0.14306965031E+02 -0.94044122098E+00 -0.34892130002E+01  0.14756296468E+02  0.00000000000E+00 0.  1.
</event>
<event>
 7    1  0.3223600E-013  0.5930195E+02  0.7816164E-02  0.1266605E+00
        -11   -1    0    0    0    0  0.00000000000E+00  0.00000000000E+00  0.45593999997E+02  0.45594000000E+02  0.51100000000E-03 0. -1.
         11   -1    0    0    0    0 -0.00000000000E+00 -0.00000000000E+00 -0.45593999997E+02  0.45594000000E+02  0.51100000000E-03 0.  1.
    9900012    2    1    2    0    0  0.12722420968E+02 -0.25686862528E+02 -0.13965855056E+02  0.59301952749E+02  0.50000015905E+02 0.  0.
         12    1    1    2    0    0 -0.12722420968E+02  0.25686862528E+02  0.13965855056E+02  0.31886047251E+02  0.00000000000E+00 0. -1.
         11    1    3    3    0    0  0.35231978706E+00  0.15096233066E+01  0.11507828320E+02  0.11611770091E+02  0.51100000000E-03 0. -1.
        -11    1    3    3    0    0  0.12365372040E+02 -0.16418477135E+02 -0.57865392122E+00  0.20562190004E+02  0.51100000000E-03 0.  1.
        -12    1    3    3    0    0  0.47291413751E-02 -0.10778008700E+02 -0.24895029454E+02  0.27127992654E+02  0.00000000000E+00 0.  1.
</event>
<event>
 7    1  0.3223600E-013  0.5930201E+02  0.7816164E-02  0.1266605E+00
        -11   -1    0    0    0    0  0.00000000000E+00  0.00000000000E+00  0.45593999997E+02  0.45594000000E+02  0.51100000000E-03 0.  1.
         11   -1    0    0    0    0 -0.00000000000E+00 -0.00000000000E+00 -0.45593999997E+02  0.45594000000E+02  0.51100000000E-03 0. -1.
    9900012    2    1    2    0    0 -0.34627129327E+01  0.25575847402E+02  0.18724361511E+02  0.59302014596E+02  0.50000128700E+02 0.  0.
         12    1    1    2    0    0  0.34627129327E+01 -0.25575847402E+02 -0.18724361511E+02  0.31885985404E+02  0.00000000000E+00 0. -1.
         11    1    3    3    0    0 -0.30670463956E+01  0.19562575612E+02 -0.64525878770E+01  0.20826354188E+02  0.51100000000E-03 0. -1.
        -11    1    3    3    0    0 -0.10754057470E+02  0.81334971882E+01  0.28638380635E+01  0.13784233649E+02  0.51100000000E-03 0.  1.
         12    1    3    3    0    0  0.10358390933E+02 -0.21202253985E+01  0.22313111324E+02  0.24691426760E+02  0.00000000000E+00 0. -1.
</event>
<event>
 7    1  0.3223600E-013  0.5930197E+02  0.7816164E-02  0.1266605E+00
        -11   -1    0    0    0    0  0.00000000000E+00  0.00000000000E+00  0.45593999997E+02  0.45594000000E+02  0.51100000000E-03 0. -1.
         11   -1    0    0    0    0 -0.00000000000E+00 -0.00000000000E+00 -0.45593999997E+02  0.45594000000E+02  0.51100000000E-03 0.  1.
    9900012    2    1    2    0    0 -0.57586552557E+01 -0.16641196363E+02 -0.26582462088E+02  0.59301971439E+02  0.50000049992E+02 0.  0.
         12    1    1    2    0    0  0.57586552557E+01  0.16641196363E+02  0.26582462088E+02  0.31886028561E+02  0.00000000000E+00 0. -1.
         11    1    3    3    0    0 -0.33620400275E+00  0.38878656441E+01 -0.29031422815E+02  0.29292525383E+02  0.51100000000E-03 0. -1.
        -11    1    3    3    0    0 -0.48522041203E+01  0.28242399772E+01 -0.24754208798E+01  0.61357905006E+01  0.51100000000E-03 0.  1.
         12    1    3    3    0    0 -0.57024713270E+00 -0.23353301984E+02  0.49243816069E+01  0.23873655555E+02  0.00000000000E+00 0. -1.
</event>
<event>
 7    1  0.3223600E-013  0.5930190E+02  0.7816164E-02  0.1266605E+00
        -11   -1    0    0    0    0  0.00000000000E+00  0.00000000000E+00  0.45593999997E+02  0.45594000000E+02  0.51100000000E-03 0.  1.
         11   -1    0    0    0    0 -0.00000000000E+00 -0.00000000000E+00 -0.45593999997E+02  0.45594000000E+02  0.51100000000E-03 0. -1.
    9900012    2    1    2    0    0  0.27688196105E+02  0.14356849674E+02  0.66308432975E+01  0.59301899283E+02  0.49999918396E+02 0.  0.
         12    1    1    2    0    0 -0.27688196105E+02 -0.14356849674E+02 -0.66308432975E+01  0.31886100717E+02  0.00000000000E+00 0. -1.
         11    1    3    3    0    0  0.80335948031E+00 -0.20609928198E+01  0.32520163309E+00  0.22358072862E+01  0.51100000000E-03 0. -1.
        -11    1    3    3    0    0 -0.10144475621E+02  0.81966134889E+01  0.13152064778E+02  0.18522193890E+02  0.51100000000E-03 0.  1.
         12    1    3    3    0    0  0.37029312246E+02  0.82212290045E+01 -0.68464231141E+01  0.38543898106E+02  0.00000000000E+00 0. -1.
</event>
<event>
 7    1  0.3223600E-013  0.5930197E+02  0.7816164E-02  0.1266605E+00
        -11   -1    0    0    0    0  0.00000000000E+00  0.00000000000E+00  0.45593999997E+02  0.45594000000E+02  0.51100000000E-03 0. -1.
         11   -1    0    0    0    0 -0.00000000000E+00 -0.00000000000E+00 -0.45593999997E+02  0.45594000000E+02  0.51100000000E-03 0.  1.
    9900012    2    1    2    0    0  0.78154794801E+01 -0.23254040247E+02 -0.20368773961E+02  0.59301967635E+02  0.50000043054E+02 0.  0.
         12    1    1    2    0    0 -0.78154794801E+01  0.23254040247E+02  0.20368773961E+02  0.31886032365E+02  0.00000000000E+00 0. -1.
         11    1    3    3    0    0  0.44038313950E+01  0.41269956826E+00  0.57411762148E+01  0.72474241272E+01  0.51100000000E-03 0. -1.
        -11    1    3    3    0    0 -0.65110378678E+01  0.53952555494E+01 -0.18612527560E+02  0.20443301568E+02  0.51100000000E-03 0.  1.
        -12    1    3    3    0    0  0.99226859529E+01 -0.29061995364E+02 -0.74974226159E+01  0.31611241940E+02  0.00000000000E+00 0.  1.
</event>
<event>
 7    1  0.3223600E-013  0.5930201E+02  0.7816164E-02  0.1266605E+00
        -11   -1    0    0    0    0  0.00000000000E+00  0.00000000000E+00  0.45593999997E+02  0.45594000000E+02  0.51100000000E-03 0.  1.
         11   -1    0    0    0    0 -0.00000000000E+00 -0.00000000000E+00 -0.45593999997E+02  0.45594000000E+02  0.51100000000E-03 0. -1.
    9900012    2    1    2    0    0  0.31150927259E+02 -0.53017598148E+01 -0.42693830246E+01  0.59302006874E+02  0.50000114616E+02 0.  0.
         12    1    1    2    0    0 -0.31150927259E+02  0.53017598148E+01  0.42693830246E+01  0.31885993126E+02  0.00000000000E+00 0. -1.
         11    1    3    3    0    0  0.35406643798E+00 -0.90619278772E+00 -0.12486577511E+02  0.12524422805E+02  0.51100000000E-03 0. -1.
        -11    1    3    3    0    0 -0.71868423596E+01  0.68869841399E+00  0.39189792730E+01  0.82148285077E+01  0.51100000000E-03 0.  1.
        -12    1    3    3    0    0  0.37983703181E+02 -0.50842654411E+01  0.42982152132E+01  0.38562755561E+02  0.00000000000E+00 0.  1.
</event>
<event>
 7    1  0.3223600E-013  0.5930190E+02  0.7816164E-02  0.1266605E+00
        -11   -1    0    0    0    0  0.00000000000E+00  0.00000000000E+00  0.45593999997E+02  0.45594000000E+02  0.51100000000E-03 0. -1.
         11   -1    0    0    0    0 -0.00000000000E+00 -0.00000000000E+00 -0.45593999997E+02  0.45594000000E+02  0.51100000000E-03 0.  1.
    9900012    2    1    2    0    0 -0.24964421478E+02  0.16134116351E+02  0.11540860392E+02  0.59301897875E+02  0.49999915828E+02 0.  0.
         12    1    1    2    0    0  0.24964421478E+02 -0.16134116351E+02 -0.11540860392E+02  0.31886102125E+02  0.00000000000E+00 0. -1.
         11    1    3    3    0    0  0.30307043088E+00 -0.11692841850E+02  0.50783474052E+00  0.11707787946E+02  0.51100000000E-03 0. -1.
        -11    1    3    3    0    0 -0.15007509374E+02  0.10196353524E+02 -0.78760774461E+01  0.19779372057E+02  0.51100000000E-03 0.  1.
        -12    1    3    3    0    0 -0.10259982535E+02  0.17630604677E+02  0.18909103098E+02  0.27814737871E+02  0.00000000000E+00 0.  1.
</event>
<event>
 7    1  0.3223600E-013  0.5930194E+02  0.7816164E-02  0.1266605E+00
        -11   -1    0    0    0    0  0.00000000000E+00  0.00000000000E+00  0.45593999997E+02  0.45594000000E+02  0.51100000000E-03 0.  1.
         11   -1    0    0    0    0 -0.00000000000E+00 -0.00000000000E+00 -0.45593999997E+02  0.45594000000E+02  0.51100000000E-03 0. -1.
    9900012    2    1    2    0    0  0.27046149620E+02 -0.67923827657E+01  0.15462532113E+02  0.59301943921E+02  0.49999999806E+02 0.  0.
         12    1    1    2    0    0 -0.27046149620E+02  0.67923827657E+01 -0.15462532113E+02  0.31886056079E+02  0.00000000000E+00 0. -1.
         11    1    3    3    0    0  0.24479411853E+02 -0.14406843225E+02 -0.76557441113E+01  0.29417837353E+02  0.51100000000E-03 0. -1.
        -11    1    3    3    0    0  0.42193774646E+01  0.91198903309E+01  0.42941953045E+01  0.10927747225E+02  0.51100000000E-03 0.  1.
        -12    1    3    3    0    0 -0.16526396978E+01 -0.15054298721E+01  0.18824080920E+02  0.18956359343E+02  0.00000000000E+00 0.  1.
</event>
<event>
 7    1  0.3223600E-013  0.5930193E+02  0.7816164E-02  0.1266605E+00
        -11   -1    0    0    0    0  0.00000000000E+00  0.00000000000E+00  0.45593999997E+02  0.45594000000E+02  0.51100000000E-03 0. -1.
         11   -1    0    0    0    0 -0.00000000000E+00 -0.00000000000E+00 -0.45593999997E+02  0.45594000000E+02  0.51100000000E-03 0.  1.
    9900012    2    1    2    0    0  0.20164503405E+02  0.19061416012E+02 -0.15709133570E+02  0.59301926936E+02  0.49999968829E+02 0.  0.
         12    1    1    2    0    0 -0.20164503405E+02 -0.19061416012E+02  0.15709133570E+02  0.31886073064E+02  0.00000000000E+00 0. -1.
         11    1    3    3    0    0 -0.87128969410E+01  0.15125132664E+02 -0.67385258943E+01  0.18710744045E+02  0.51100000000E-03 0. -1.
        -11    1    3    3    0    0  0.48493481507E+01 -0.31302241942E+01  0.83421606656E+01  0.10144265662E+02  0.51100000000E-03 0.  1.
        -12    1    3    3    0    0  0.24028052195E+02  0.70665075418E+01 -0.17312768341E+02  0.30446917229E+02  0.00000000000E+00 0.  1.
</event>
<event>
 7    1  0.3223600E-013  0.5930194E+02  0.7816164E-02  0.1266605E+00
        -11   -1    0    0    0    0  0.00000000000E+00  0.00000000000E+00  0.45593999997E+02  0.45594000000E+02  0.51100000000E-03 0.  1.
         11   -1    0    0    0    0 -0.00000000000E+00 -0.00000000000E+00 -0.45593999997E+02  0.45594000000E+02  0.51100000000E-03 0. -1.
    9900012    2    1    2    0    0  0.23007451372E+02  0.67433474124E+01  0.21021538736E+02  0.59301942799E+02  0.49999997760E+02 0.  0.
         12    1    1    2    0    0 -0.23007451372E+02 -0.67433474124E+01 -0.21021538736E+02  0.31886057201E+02  0.00000000000E+00 0. -1.
         11    1    3    3    0    0 -0.14746729248E+00  0.26403972916E+01 -0.11031356135E+02  0.11343908626E+02  0.51100000000E-03 0. -1.
        -11    1    3    3    0    0  0.25114828248E+02 -0.39607863260E+00  0.12998840254E+02  0.28282173261E+02  0.51100000000E-03 0.  1.
        -12    1    3    3    0    0 -0.19599095826E+01  0.44990287534E+01  0.19054054617E+02  0.19675860913E+02  0.00000000000E+00 0.  1.
</event>
<event>
 7    1  0.3223600E-013  0.5930197E+02  0.7816164E-02  0.1266605E+00
        -11   -1    0    0    0    0  0.00000000000E+00  0.00000000000E+00  0.45593999997E+02  0.45594000000E+02  0.51100000000E-03 0.  1.
         11   -1    0    0    0    0 -0.00000000000E+00 -0.00000000000E+00 -0.45593999997E+02  0.45594000000E+02  0.51100000000E-03 0. -1.
    9900012    2    1    2    0    0  0.84261466505E+01  0.18374242716E+02  0.24659806718E+02  0.59301971552E+02  0.50000050198E+02 0.  0.
         12    1    1    2    0    0 -0.84261466505E+01 -0.18374242716E+02 -0.24659806718E+02  0.31886028448E+02  0.00000000000E+00 0. -1.
         11    1    3    3    0    0 -0.13883237441E+00 -0.12681192520E+02  0.98216908767E+01  0.16040496567E+02  0.51100000000E-03 0. -1.
        -11    1    3    3    0    0  0.60449769516E+01  0.53515608139E+01  0.15444356516E+02  0.17427251589E+02  0.51100000000E-03 0.  1.
        -12    1    3    3    0    0  0.25200020734E+01  0.25703874423E+02 -0.60624067402E+00  0.25834223397E+02  0.00000000000E+00 0.  1.
</event>
<event>
 7    1  0.3223600E-013  0.5930194E+02  0.7816164E-02  0.1266605E+00
        -11   -1    0    0    0    0  0.00000000000E+00  0.00000000000E+00  0.45593999997E+02  0.45594000000E+02  0.51100000000E-03 0. -1.
         11   -1    0    0    0    0 -0.00000000000E+00 -0.00000000000E+00 -0.45593999997E+02  0.45594000000E+02  0.51100000000E-03 0.  1.
    9900012    2    1    2    0    0 -0.79101768401E+01  0.21362345726E+02 -0.22311427644E+02  0.59301944802E+02  0.50000001413E+02 0.  0.
         12    1    1    2    0    0  0.79101768401E+01 -0.21362345726E+02  0.22311427644E+02  0.31886055198E+02  0.00000000000E+00 0. -1.
         11    1    3    3    0    0 -0.15024514003E+02 -0.60683931670E+01 -0.46302131841E+01  0.16852308181E+02  0.51100000000E-03 0. -1.
        -11    1    3    3    0    0  0.52827422068E+01  0.86650413642E+01 -0.20982587100E+02  0.23307922875E+02  0.51100000000E-03 0.  1.
         12    1    3    3    0    0  0.18315949560E+01  0.18765697529E+02  0.33013726400E+01  0.19141713746E+02  0.00000000000E+00 0. -1.
</event>
<event>
 7    1  0.3223600E-013  0.5930197E+02  0.7816164E-02  0.1266605E+00
        -11   -1    0    0    0    0  0.00000000000E+00  0.00000000000E+00  0.45593999997E+02  0.45594000000E+02  0.51100000000E-03 0.  1.
         11   -1    0    0    0    0 -0.00000000000E+00 -0.00000000000E+00 -0.45593999997E+02  0.45594000000E+02  0.51100000000E-03 0. -1.
    9900012    2    1    2    0    0  0.24281938704E+02 -0.20547195330E+02  0.22178719885E+01  0.59301972663E+02  0.50000052224E+02 0.  0.
         12    1    1    2    0    0 -0.24281938704E+02  0.20547195330E+02 -0.22178719885E+01  0.31886027337E+02  0.00000000000E+00 0. -1.
         11    1    3    3    0    0 -0.55415765881E+01 -0.12361476305E+02  0.17683324924E+02  0.22275887146E+02  0.51100000000E-03 0. -1.
        -11    1    3    3    0    0  0.37566976576E+01 -0.82220910970E+00  0.24415004835E+01  0.45551871512E+01  0.51100000000E-03 0.  1.
        -12    1    3    3    0    0  0.26066817635E+02 -0.73635099155E+01 -0.17906953419E+02  0.32470898365E+02  0.00000000000E+00 0.  1.
</event>
<event>
 7    1  0.3223600E-013  0.5930197E+02  0.7816164E-02  0.1266605E+00
        -11   -1    0    0    0    0  0.00000000000E+00  0.00000000000E+00  0.45593999997E+02  0.45594000000E+02  0.51100000000E-03 0.  1.
         11   -1    0    0    0    0 -0.00000000000E+00 -0.00000000000E+00 -0.45593999997E+02  0.45594000000E+02  0.51100000000E-03 0. -1.
    9900012    2    1    2    0    0 -0.21049251455E+02 -0.20325195565E+02  0.12670220280E+02  0.59301967893E+02  0.50000043525E+02 0.  0.
         12    1    1    2    0    0  0.21049251455E+02  0.20325195565E+02 -0.12670220280E+02  0.31886032107E+02  0.00000000000E+00 0. -1.
         11    1    3    3    0    0 -0.32134922868E+01  0.10439239813E+02  0.82521619966E+01  0.13689501029E+02  0.51100000000E-03 0. -1.
        -11    1    3    3    0    0 -0.22655630287E+02 -0.19335070164E+02  0.10775766796E+02  0.31673958897E+02  0.51100000000E-03 0.  1.
         12    1    3    3    0    0  0.48198711189E+01 -0.11429365215E+02 -0.63577085127E+01  0.13938507967E+02  0.00000000000E+00 0. -1.
</event>
<event>
 7    1  0.3223600E-013  0.5930197E+02  0.7816164E-02  0.1266605E+00
        -11   -1    0    0    0    0  0.00000000000E+00  0.00000000000E+00  0.45593999997E+02  0.45594000000E+02  0.51100000000E-03 0. -1.
         11   -1    0    0    0    0 -0.00000000000E+00 -0.00000000000E+00 -0.45593999997E+02  0.45594000000E+02  0.51100000000E-03 0.  1.
    9900012    2    1    2    0    0 -0.39881540641E+01 -0.22487296119E+02 -0.22251623166E+02  0.59301974956E+02  0.50000056406E+02 0.  0.
         12    1    1    2    0    0  0.39881540641E+01  0.22487296119E+02  0.22251623166E+02  0.31886025044E+02  0.00000000000E+00 0. -1.
         11    1    3    3    0    0  0.70852018535E+01 -0.15779574719E+02 -0.52937667626E+01  0.18089196511E+02  0.51100000000E-03 0. -1.
        -11    1    3    3    0    0 -0.14587786700E+01  0.74633571265E+01 -0.22068202198E+02  0.23341706950E+02  0.51100000000E-03 0.  1.
         12    1    3    3    0    0 -0.96145772476E+01 -0.14171078527E+02  0.51103457949E+01  0.17871071496E+02  0.00000000000E+00 0. -1.
</event>
<event>
 7    1  0.3223600E-013  0.5930193E+02  0.7816164E-02  0.1266605E+00
        -11   -1    0    0    0    0  0.00000000000E+00  0.00000000000E+00  0.45593999997E+02  0.45594000000E+02  0.51100000000E-03 0.  1.
         11   -1    0    0    0    0 -0.00000000000E+00 -0.00000000000E+00 -0.45593999997E+02  0.45594000000E+02  0.51100000000E-03 0. -1.
    9900012    2    1    2    0    0 -0.16747209030E+02 -0.13207321122E+02  0.23702722189E+02  0.59301931245E+02  0.49999976687E+02 0.  0.
         12    1    1    2    0    0  0.16747209030E+02  0.13207321122E+02 -0.23702722189E+02  0.31886068755E+02  0.00000000000E+00 0. -1.
         11    1    3    3    0    0  0.27873985836E+01 -0.13494011628E+02  0.19738112236E+01  0.13919549982E+02  0.51100000000E-03 0. -1.
        -11    1    3    3    0    0 -0.16818776021E+01  0.75406740085E+01 -0.72409784783E+01  0.10588779267E+02  0.51100000000E-03 0.  1.
        -12    1    3    3    0    0 -0.17852730011E+02 -0.72539835024E+01  0.28969889443E+02  0.34793601996E+02  0.00000000000E+00 0.  1.
</event>
<event>
 7    1  0.3223600E-013  0.5930190E+02  0.7816164E-02  0.1266605E+00
        -11   -1    0    0    0    0  0.00000000000E+00  0.00000000000E+00  0.45593999997E+02  0.45594000000E+02  0.51100000000E-03 0.  1.
         11   -1    0    0    0    0 -0.00000000000E+00 -0.00000000000E+00 -0.45593999997E+02  0.45594000000E+02  0.51100000000E-03 0. -1.
    9900012    2    1    2    0    0 -0.23830396621E+02  0.16510567636E+02  0.13275406572E+02  0.59301904811E+02  0.49999928477E+02 0.  0.
         12    1    1    2    0    0  0.23830396621E+02 -0.16510567636E+02 -0.13275406572E+02  0.31886095189E+02  0.00000000000E+00 0. -1.
         11    1    3    3    0    0  0.67703389306E+01  0.40805648450E+01  0.14141992427E+02  0.16201371817E+02  0.51100000000E-03 0. -1.
        -11    1    3    3    0    0 -0.82270496897E+01 -0.36719549273E+00  0.11793481798E+02  0.14384206349E+02  0.51100000000E-03 0.  1.
        -12    1    3    3    0    0 -0.22373685862E+02  0.12797198284E+02 -0.12660067653E+02  0.28716326644E+02  0.00000000000E+00 0.  1.
</event>
<event>
 7    1  0.3223600E-013  0.5930194E+02  0.7816164E-02  0.1266605E+00
        -11   -1    0    0    0    0  0.00000000000E+00  0.00000000000E+00  0.45593999997E+02  0.45594000000E+02  0.51100000000E-03 0. -1.
         11   -1    0    0    0    0 -0.00000000000E+00 -0.00000000000E+00 -0.45593999997E+02  0.45594000000E+02  0.51100000000E-03 0.  1.
    9900012    2    1    2    0    0 -0.95033198727E+01  0.17080326017E+02 -0.25192661851E+02  0.59301939777E+02  0.49999992248E+02 0.  0.
         12    1    1    2    0    0  0.95033198727E+01 -0.17080326017E+02  0.25192661851E+02  0.31886060223E+02  0.00000000000E+00 0. -1.
         11    1    3    3    0    0 -0.35952280528E+01  0.60817120143E+01 -0.41569883621E+01  0.81971603791E+01  0.51100000000E-03 0. -1.
        -11    1    3    3    0    0 -0.16332281223E+02 -0.48644706985E+01 -0.26361614044E+02  0.31390144638E+02  0.51100000000E-03 0.  1.
         12    1    3    3    0    0  0.10424189403E+02  0.15863084701E+02  0.53259405552E+01  0.19714634760E+02  0.00000000000E+00 0. -1.
</event>
<event>
 7    1  0.3223600E-013  0.5930199E+02  0.7816164E-02  0.1266605E+00
        -11   -1    0    0    0    0  0.00000000000E+00  0.00000000000E+00  0.45593999997E+02  0.45594000000E+02  0.51100000000E-03 0. -1.
         11   -1    0    0    0    0 -0.00000000000E+00 -0.00000000000E+00 -0.45593999997E+02  0.45594000000E+02  0.51100000000E-03 0.  1.
    9900012    2    1    2    0    0  0.43501080026E+01  0.28470243252E+02 -0.13683535380E+02  0.59301994748E+02  0.50000092501E+02 0.  0.
         12    1    1    2    0    0 -0.43501080026E+01 -0.28470243252E+02  0.13683535380E+02  0.31886005252E+02  0.00000000000E+00 0. -1.
         11    1    3    3    0    0  0.24737279423E+01 -0.58882052832E+01 -0.11313007979E+02  0.12991321764E+02  0.51100000000E-03 0. -1.
        -11    1    3    3    0    0  0.19170140213E+01 -0.54941346097E+01 -0.27958697071E+01  0.64557993733E+01  0.51100000000E-03 0.  1.
        -12    1    3    3    0    0 -0.40633961015E-01  0.39852583144E+02  0.42534230596E+00  0.39854873610E+02  0.00000000000E+00 0.  1.
</event>
<event>
 7    1  0.3223600E-013  0.5930176E+02  0.7816164E-02  0.1266605E+00
        -11   -1    0    0    0    0  0.00000000000E+00  0.00000000000E+00  0.45593999997E+02  0.45594000000E+02  0.51100000000E-03 0. -1.
         11   -1    0    0    0    0 -0.00000000000E+00 -0.00000000000E+00 -0.45593999997E+02  0.45594000000E+02  0.51100000000E-03 0.  1.
    9900012    2    1    2    0    0 -0.38298183583E+01 -0.22018187923E+02 -0.22743441616E+02  0.59301760889E+02  0.49999665999E+02 0.  0.
         12    1    1    2    0    0  0.38298183583E+01  0.22018187923E+02  0.22743441616E+02  0.31886239111E+02  0.00000000000E+00 0. -1.
         11    1    3    3    0    0 -0.85167496959E+01 -0.17906837133E+02 -0.15164869200E+02  0.24963234959E+02  0.51100000000E-03 0.  1.
        -11    1    3    3    0    0 -0.38059734976E+01 -0.31521382835E+01  0.11998902766E+02  0.12976712907E+02  0.51100000000E-03 0. -1.
         12    1    3    3    0    0  0.84929048352E+01 -0.95921250681E+00 -0.19577475182E+02  0.21361813024E+02  0.00000000000E+00 0. -1.
</event>
<event>
 7    1  0.3223600E-013  0.5930198E+02  0.7816164E-02  0.1266605E+00
        -11   -1    0    0    0    0  0.00000000000E+00  0.00000000000E+00  0.45593999997E+02  0.45594000000E+02  0.51100000000E-03 0.  1.
         11   -1    0    0    0    0 -0.00000000000E+00 -0.00000000000E+00 -0.45593999997E+02  0.45594000000E+02  0.51100000000E-03 0. -1.
    9900012    2    1    2    0    0 -0.54300540135E+01 -0.12488192000E+02  0.28831894704E+02  0.59301975189E+02  0.50000056830E+02 0.  0.
         12    1    1    2    0    0  0.54300540135E+01  0.12488192000E+02 -0.28831894704E+02  0.31886024811E+02  0.00000000000E+00 0. -1.
         11    1    3    3    0    0 -0.10117559227E+02 -0.96414260905E+01  0.35227524316E+01  0.14412906949E+02  0.51100000000E-03 0. -1.
        -11    1    3    3    0    0 -0.21593279341E+01  0.10020598676E+02 -0.48893978498E+01  0.11356993728E+02  0.51100000000E-03 0.  1.
        -12    1    3    3    0    0  0.68468331473E+01 -0.12867364585E+02  0.30198540123E+02  0.33532074512E+02  0.00000000000E+00 0.  1.
</event>
<event>
 7    1  0.3223600E-013  0.5930193E+02  0.7816164E-02  0.1266605E+00
        -11   -1    0    0    0    0  0.00000000000E+00  0.00000000000E+00  0.45593999997E+02  0.45594000000E+02  0.51100000000E-03 0. -1.
         11   -1    0    0    0    0 -0.00000000000E+00 -0.00000000000E+00 -0.45593999997E+02  0.45594000000E+02  0.51100000000E-03 0.  1.
    9900012    2    1    2    0    0 -0.18042366263E+02  0.26290128694E+02 -0.15357990439E+00  0.59301930410E+02  0.49999975165E+02 0.  0.
         12    1    1    2    0    0  0.18042366263E+02 -0.26290128694E+02  0.15357990439E+00  0.31886069590E+02  0.00000000000E+00 0. -1.
         11    1    3    3    0    0  0.63409704199E+01  0.27338986443E+02  0.75362491944E+01  0.29058959682E+02  0.51100000000E-03 0. -1.
        -11    1    3    3    0    0 -0.80241883038E+00 -0.28982888952E+01  0.30342748846E+01  0.42720930275E+01  0.51100000000E-03 0.  1.
        -12    1    3    3    0    0 -0.23580917852E+02  0.18494311456E+01 -0.10724103983E+02  0.25970877701E+02  0.00000000000E+00 0.  1.
</event>
<event>
 7    1  0.3223600E-013  0.5930195E+02  0.7816164E-02  0.1266605E+00
        -11   -1    0    0    0    0  0.00000000000E+00  0.00000000000E+00  0.45593999997E+02  0.45594000000E+02  0.51100000000E-03 0.  1.
         11   -1    0    0    0    0 -0.00000000000E+00 -0.00000000000E+00 -0.45593999997E+02  0.45594000000E+02  0.51100000000E-03 0. -1.
    9900012    2    1    2    0    0  0.18284325682E+02  0.92905239021E+01  0.24414945628E+02  0.59301953364E+02  0.50000017027E+02 0.  0.
         12    1    1    2    0    0 -0.18284325682E+02 -0.92905239021E+01 -0.24414945628E+02  0.31886046636E+02  0.00000000000E+00 0. -1.
         11    1    3    3    0    0  0.11014545157E+00  0.40037001945E+01 -0.40269899759E+01  0.56796475062E+01  0.51100000000E-03 0. -1.
        -11    1    3    3    0    0  0.26852202293E+02  0.78262583253E+01  0.48891875712E+01  0.28393577491E+02  0.51100000000E-03 0.  1.
        -12    1    3    3    0    0 -0.86780220626E+01 -0.25394346177E+01  0.23552748033E+02  0.25228728367E+02  0.00000000000E+00 0.  1.
</event>
<event>
 7    1  0.3223600E-013  0.5930177E+02  0.7816164E-02  0.1266605E+00
        -11   -1    0    0    0    0  0.00000000000E+00  0.00000000000E+00  0.45593999997E+02  0.45594000000E+02  0.51100000000E-03 0.  1.
         11   -1    0    0    0    0 -0.00000000000E+00 -0.00000000000E+00 -0.45593999997E+02  0.45594000000E+02  0.51100000000E-03 0. -1.
    9900012    2    1    2    0    0  0.25616904820E+02  0.36415358301E+01 -0.18634507903E+02  0.59301772870E+02  0.49999687849E+02 0.  0.
         12    1    1    2    0    0 -0.25616904820E+02 -0.36415358301E+01  0.18634507903E+02  0.31886227130E+02  0.00000000000E+00 0. -1.
         11    1    3    3    0    0 -0.25119189578E+01  0.66862983587E+01 -0.50919195123E+01  0.87717710397E+01  0.51100000000E-03 0. -1.
        -11    1    3    3    0    0  0.75692565398E+01  0.16355490034E+02  0.22301816391E+01  0.18159554214E+02  0.51100000000E-03 0.  1.
         12    1    3    3    0    0  0.20559567238E+02 -0.19400252563E+02 -0.15772770030E+02  0.32370447617E+02  0.00000000000E+00 0. -1.
</event>
<event>
 7    1  0.3223600E-013  0.5930198E+02  0.7816164E-02  0.1266605E+00
        -11   -1    0    0    0    0  0.00000000000E+00  0.00000000000E+00  0.45593999997E+02  0.45594000000E+02  0.51100000000E-03 0.  1.
         11   -1    0    0    0    0 -0.00000000000E+00 -0.00000000000E+00 -0.45593999997E+02  0.45594000000E+02  0.51100000000E-03 0. -1.
    9900012    2    1    2    0    0 -0.94883203152E+01 -0.95476957082E+01  0.28905567170E+02  0.59301975959E+02  0.50000058235E+02 0.  0.
         12    1    1    2    0    0  0.94883203152E+01  0.95476957082E+01 -0.28905567170E+02  0.31886024041E+02  0.00000000000E+00 0. -1.
         11    1    3    3    0    0  0.50097481682E+00  0.37488880848E+01  0.44396881442E+01  0.58323210404E+01  0.51100000000E-03 0. -1.
        -11    1    3    3    0    0 -0.17647434731E+02 -0.45371571772E+01  0.33902452127E+02  0.38488881619E+02  0.51100000000E-03 0.  1.
         12    1    3    3    0    0  0.76581395989E+01 -0.87594266158E+01 -0.94365731009E+01  0.14980773299E+02  0.00000000000E+00 0. -1.
</event>
<event>
 7    1  0.3223600E-013  0.5930195E+02  0.7816164E-02  0.1266605E+00
        -11   -1    0    0    0    0  0.00000000000E+00  0.00000000000E+00  0.45593999997E+02  0.45594000000E+02  0.51100000000E-03 0. -1.
         11   -1    0    0    0    0 -0.00000000000E+00 -0.00000000000E+00 -0.45593999997E+02  0.45594000000E+02  0.51100000000E-03 0.  1.
    9900012    2    1    2    0    0 -0.14414241512E+02 -0.67348291227E+01 -0.27633161784E+02  0.59301954277E+02  0.50000018692E+02 0.  0.
         12    1    1    2    0    0  0.14414241512E+02  0.67348291227E+01  0.27633161784E+02  0.31886045723E+02  0.00000000000E+00 0. -1.
         11    1    3    3    0    0  0.97421052948E+01  0.71032287529E+01 -0.17572582634E+02  0.21311033175E+02  0.51100000000E-03 0. -1.
        -11    1    3    3    0    0 -0.82068001153E+01  0.64502049565E+01 -0.54497548796E+01  0.11775251191E+02  0.51100000000E-03 0.  1.
         12    1    3    3    0    0 -0.15949546691E+02 -0.20288262832E+02 -0.46108242704E+01  0.26215669910E+02  0.00000000000E+00 0. -1.
</event>
<event>
 7    1  0.3223600E-013  0.5930193E+02  0.7816164E-02  0.1266605E+00
        -11   -1    0    0    0    0  0.00000000000E+00  0.00000000000E+00  0.45593999997E+02  0.45594000000E+02  0.51100000000E-03 0.  1.
         11   -1    0    0    0    0 -0.00000000000E+00 -0.00000000000E+00 -0.45593999997E+02  0.45594000000E+02  0.51100000000E-03 0. -1.
    9900012    2    1    2    0    0  0.28682890747E+02  0.13017345655E+02  0.49559709195E+01  0.59301934748E+02  0.49999983076E+02 0.  0.
         12    1    1    2    0    0 -0.28682890747E+02 -0.13017345655E+02 -0.49559709195E+01  0.31886065252E+02  0.00000000000E+00 0. -1.
         11    1    3    3    0    0 -0.19865389889E+00  0.19547032087E+02 -0.25897068196E+01  0.19718836387E+02  0.51100000000E-03 0.  1.
        -11    1    3    3    0    0  0.82127097215E+00 -0.57761198094E+01 -0.60402497985E+01  0.83977773221E+01  0.51100000000E-03 0. -1.
         12    1    3    3    0    0  0.28060273673E+02 -0.75356662197E+00  0.13585927538E+02  0.31185321039E+02  0.00000000000E+00 0. -1.
</event>
<event>
 7    1  0.3223600E-013  0.5930197E+02  0.7816164E-02  0.1266605E+00
        -11   -1    0    0    0    0  0.00000000000E+00  0.00000000000E+00  0.45593999997E+02  0.45594000000E+02  0.51100000000E-03 0.  1.
         11   -1    0    0    0    0 -0.00000000000E+00 -0.00000000000E+00 -0.45593999997E+02  0.45594000000E+02  0.51100000000E-03 0. -1.
    9900012    2    1    2    0    0  0.30071049583E+02 -0.71563386630E+01 -0.78254623405E+01  0.59301967526E+02  0.50000042855E+02 0.  0.
         12    1    1    2    0    0 -0.30071049583E+02  0.71563386630E+01  0.78254623405E+01  0.31886032474E+02  0.00000000000E+00 0. -1.
         11    1    3    3    0    0  0.40360594340E+01  0.68164251874E+01 -0.38941838567E+01  0.88271227623E+01  0.51100000000E-03 0.  1.
        -11    1    3    3    0    0  0.51270047525E+01 -0.12135335464E+02 -0.20064052913E+02  0.24002474125E+02  0.51100000000E-03 0. -1.
        -12    1    3    3    0    0  0.20907985397E+02 -0.18374283859E+01  0.16132774429E+02  0.26472370638E+02  0.00000000000E+00 0.  1.
</event>
<event>
 7    1  0.3223600E-013  0.5930195E+02  0.7816164E-02  0.1266605E+00
        -11   -1    0    0    0    0  0.00000000000E+00  0.00000000000E+00  0.45593999997E+02  0.45594000000E+02  0.51100000000E-03 0.  1.
         11   -1    0    0    0    0 -0.00000000000E+00 -0.00000000000E+00 -0.45593999997E+02  0.45594000000E+02  0.51100000000E-03 0. -1.
    9900012    2    1    2    0    0 -0.25346745428E+02  0.10129838660E+02  0.16481785068E+02  0.59301947029E+02  0.50000005473E+02 0.  0.
         12    1    1    2    0    0  0.25346745428E+02 -0.10129838660E+02 -0.16481785068E+02  0.31886052971E+02  0.00000000000E+00 0. -1.
         11    1    3    3    0    0  0.48665830938E+01 -0.66602267891E+01  0.11641818398E+02  0.14267942660E+02  0.51100000000E-03 0.  1.
        -11    1    3    3    0    0 -0.14421683201E+02 -0.11375556301E+01  0.13337794493E+02  0.19676781784E+02  0.51100000000E-03 0. -1.
         12    1    3    3    0    0 -0.15791645320E+02  0.17927621079E+02 -0.84978278233E+01  0.25357222584E+02  0.00000000000E+00 0. -1.
</event>
<event>
 7    1  0.3223600E-013  0.5930195E+02  0.7816164E-02  0.1266605E+00
        -11   -1    0    0    0    0  0.00000000000E+00  0.00000000000E+00  0.45593999997E+02  0.45594000000E+02  0.51100000000E-03 0.  1.
         11   -1    0    0    0    0 -0.00000000000E+00 -0.00000000000E+00 -0.45593999997E+02  0.45594000000E+02  0.51100000000E-03 0. -1.
    9900012    2    1    2    0    0 -0.20366729130E+02  0.24497399487E+02  0.13394641708E+01  0.59301946602E+02  0.50000004694E+02 0.  0.
         12    1    1    2    0    0  0.20366729130E+02 -0.24497399487E+02 -0.13394641708E+01  0.31886053398E+02  0.00000000000E+00 0. -1.
         11    1    3    3    0    0 -0.75848378228E+01  0.47764636510E+01  0.13889993045E+02  0.16531070045E+02  0.51100000000E-03 0. -1.
        -11    1    3    3    0    0 -0.13103720299E+02 -0.49084993700E+01  0.20422601304E+01  0.14141134270E+02  0.51100000000E-03 0.  1.
         12    1    3    3    0    0  0.32182899194E+00  0.24629435206E+02 -0.14592789004E+02  0.28629742286E+02  0.00000000000E+00 0. -1.
</event>
<event>
 7    1  0.3223600E-013  0.5930194E+02  0.7816164E-02  0.1266605E+00
        -11   -1    0    0    0    0  0.00000000000E+00  0.00000000000E+00  0.45593999997E+02  0.45594000000E+02  0.51100000000E-03 0.  1.
         11   -1    0    0    0    0 -0.00000000000E+00 -0.00000000000E+00 -0.45593999997E+02  0.45594000000E+02  0.51100000000E-03 0. -1.
    9900012    2    1    2    0    0 -0.13724392269E+02  0.25430266920E+01  0.28668706621E+02  0.59301942432E+02  0.49999997089E+02 0.  0.
         12    1    1    2    0    0  0.13724392269E+02 -0.25430266920E+01 -0.28668706621E+02  0.31886057568E+02  0.00000000000E+00 0. -1.
         11    1    3    3    0    0 -0.19220538674E+01  0.11053329304E+01  0.26847134297E+02  0.26938535079E+02  0.51100000000E-03 0. -1.
        -11    1    3    3    0    0  0.15852644547E+01 -0.75193813568E+01  0.11306342883E+02  0.13670682098E+02  0.51100000000E-03 0.  1.
         12    1    3    3    0    0 -0.13387602857E+02  0.89570751184E+01 -0.94847705584E+01  0.18692725255E+02  0.00000000000E+00 0. -1.
</event>
<event>
 7    1  0.3223600E-013  0.5930194E+02  0.7816164E-02  0.1266605E+00
        -11   -1    0    0    0    0  0.00000000000E+00  0.00000000000E+00  0.45593999997E+02  0.45594000000E+02  0.51100000000E-03 0.  1.
         11   -1    0    0    0    0 -0.00000000000E+00 -0.00000000000E+00 -0.45593999997E+02  0.45594000000E+02  0.51100000000E-03 0. -1.
    9900012    2    1    2    0    0 -0.40279987089E+01  0.99619818923E+01  0.30020911205E+02  0.59301937741E+02  0.49999988534E+02 0.  0.
         12    1    1    2    0    0  0.40279987089E+01 -0.99619818923E+01 -0.30020911205E+02  0.31886062259E+02  0.00000000000E+00 0. -1.
         11    1    3    3    0    0 -0.13204306662E+02  0.22063947886E+02  0.12502464916E+02  0.28591662071E+02  0.51100000000E-03 0. -1.
        -11    1    3    3    0    0  0.98431439060E+01 -0.25792195585E+01  0.18500146564E+02  0.21113864607E+02  0.51100000000E-03 0.  1.
        -12    1    3    3    0    0 -0.66683595310E+00 -0.95227464352E+01 -0.98170027476E+00  0.95964110629E+01  0.00000000000E+00 0.  1.
</event>
<event>
 7    1  0.3223600E-013  0.5930200E+02  0.7816164E-02  0.1266605E+00
        -11   -1    0    0    0    0  0.00000000000E+00  0.00000000000E+00  0.45593999997E+02  0.45594000000E+02  0.51100000000E-03 0.  1.
         11   -1    0    0    0    0 -0.00000000000E+00 -0.00000000000E+00 -0.45593999997E+02  0.45594000000E+02  0.51100000000E-03 0. -1.
    9900012    2    1    2    0    0 -0.30283779171E+02 -0.72163117265E+01 -0.68945334597E+01  0.59301999507E+02  0.50000101181E+02 0.  0.
         12    1    1    2    0    0  0.30283779171E+02  0.72163117265E+01  0.68945334597E+01  0.31886000493E+02  0.00000000000E+00 0. -1.
         11    1    3    3    0    0 -0.10494275345E+02 -0.46407117283E+01  0.99158150478E+01  0.15165401699E+02  0.51100000000E-03 0. -1.
        -11    1    3    3    0    0 -0.15420599871E+02 -0.15087058454E+02  0.13951361802E+01  0.21618525352E+02  0.51100000000E-03 0.  1.
         12    1    3    3    0    0 -0.43689039545E+01  0.12511458455E+02 -0.18205484688E+02  0.22518072457E+02  0.00000000000E+00 0. -1.
</event>
<event>
 7    1  0.3223600E-013  0.5930187E+02  0.7816164E-02  0.1266605E+00
        -11   -1    0    0    0    0  0.00000000000E+00  0.00000000000E+00  0.45593999997E+02  0.45594000000E+02  0.51100000000E-03 0. -1.
         11   -1    0    0    0    0 -0.00000000000E+00 -0.00000000000E+00 -0.45593999997E+02  0.45594000000E+02  0.51100000000E-03 0.  1.
    9900012    2    1    2    0    0  0.26089296006E+02 -0.12467980722E+02 -0.13439608049E+02  0.59301874901E+02  0.49999873929E+02 0.  0.
         12    1    1    2    0    0 -0.26089296006E+02  0.12467980722E+02  0.13439608049E+02  0.31886125099E+02  0.00000000000E+00 0. -1.
         11    1    3    3    0    0  0.77767064695E+01  0.11235222879E+02  0.71916532371E+01  0.15441090415E+02  0.51100000000E-03 0. -1.
        -11    1    3    3    0    0  0.12087777002E+02 -0.98419776337E+01  0.28949027705E+01  0.15854316097E+02  0.51100000000E-03 0.  1.
        -12    1    3    3    0    0  0.62248125343E+01 -0.13861225967E+02 -0.23526164057E+02  0.28006468389E+02  0.00000000000E+00 0.  1.
</event>
<event>
 7    1  0.3223600E-013  0.5930188E+02  0.7816164E-02  0.1266605E+00
        -11   -1    0    0    0    0  0.00000000000E+00  0.00000000000E+00  0.45593999997E+02  0.45594000000E+02  0.51100000000E-03 0.  1.
         11   -1    0    0    0    0 -0.00000000000E+00 -0.00000000000E+00 -0.45593999997E+02  0.45594000000E+02  0.51100000000E-03 0. -1.
    9900012    2    1    2    0    0  0.27841689181E+02 -0.15402156989E+02  0.20828543865E+01  0.59301884233E+02  0.49999890948E+02 0.  0.
         12    1    1    2    0    0 -0.27841689181E+02  0.15402156989E+02 -0.20828543865E+01  0.31886115767E+02  0.00000000000E+00 0. -1.
         11    1    3    3    0    0  0.25336124607E+01 -0.16927074451E+02 -0.20095507370E+01  0.17233204461E+02  0.51100000000E-03 0. -1.
        -11    1    3    3    0    0  0.13993050656E+02 -0.15279687811E+02  0.63849245214E+01  0.21680442516E+02  0.51100000000E-03 0.  1.
         12    1    3    3    0    0  0.11315026064E+02  0.16804605273E+02 -0.22925193979E+01  0.20388237256E+02  0.00000000000E+00 0. -1.
</event>
<event>
 7    1  0.3223600E-013  0.5930192E+02  0.7816164E-02  0.1266605E+00
        -11   -1    0    0    0    0  0.00000000000E+00  0.00000000000E+00  0.45593999997E+02  0.45594000000E+02  0.51100000000E-03 0.  1.
         11   -1    0    0    0    0 -0.00000000000E+00 -0.00000000000E+00 -0.45593999997E+02  0.45594000000E+02  0.51100000000E-03 0. -1.
    9900012    2    1    2    0    0  0.10858196889E+02 -0.14924710891E+02  0.26001431333E+02  0.59301923631E+02  0.49999962801E+02 0.  0.
         12    1    1    2    0    0 -0.10858196889E+02  0.14924710891E+02 -0.26001431333E+02  0.31886076369E+02  0.00000000000E+00 0. -1.
         11    1    3    3    0    0  0.57747972215E+01  0.25994035962E+01  0.29940726739E+01  0.70049734791E+01  0.51100000000E-03 0. -1.
        -11    1    3    3    0    0 -0.40906583453E+01  0.13411891184E+02  0.30292333146E+01  0.14345332536E+02  0.51100000000E-03 0.  1.
         12    1    3    3    0    0  0.91740580129E+01 -0.30936005671E+02  0.19978125345E+02  0.37951617615E+02  0.00000000000E+00 0. -1.
</event>
<event>
 7    1  0.3223600E-013  0.5930191E+02  0.7816164E-02  0.1266605E+00
        -11   -1    0    0    0    0  0.00000000000E+00  0.00000000000E+00  0.45593999997E+02  0.45594000000E+02  0.51100000000E-03 0.  1.
         11   -1    0    0    0    0 -0.00000000000E+00 -0.00000000000E+00 -0.45593999997E+02  0.45594000000E+02  0.51100000000E-03 0. -1.
    9900012    2    1    2    0    0 -0.76471792526E+01  0.29391118761E+02  0.97162454972E+01  0.59301911511E+02  0.49999940698E+02 0.  0.
         12    1    1    2    0    0  0.76471792526E+01 -0.29391118761E+02 -0.97162454972E+01  0.31886088489E+02  0.00000000000E+00 0. -1.
         11    1    3    3    0    0 -0.11647020584E+02  0.81347531737E+01  0.18672776360E+02  0.23462733748E+02  0.51100000000E-03 0. -1.
        -11    1    3    3    0    0  0.10295459891E+02  0.20102776491E+02  0.24921341981E+01  0.22722870640E+02  0.51100000000E-03 0.  1.
         12    1    3    3    0    0 -0.62956185601E+01  0.11535890965E+01 -0.11448665061E+02  0.13116307123E+02  0.00000000000E+00 0. -1.
</event>
<event>
 7    1  0.3223600E-013  0.5930194E+02  0.7816164E-02  0.1266605E+00
        -11   -1    0    0    0    0  0.00000000000E+00  0.00000000000E+00  0.45593999997E+02  0.45594000000E+02  0.51100000000E-03 0. -1.
         11   -1    0    0    0    0 -0.00000000000E+00 -0.00000000000E+00 -0.45593999997E+02  0.45594000000E+02  0.51100000000E-03 0.  1.
    9900012    2    1    2    0    0 -0.43405130658E+00  0.46047328488E+01 -0.31548832763E+02  0.59301940133E+02  0.49999992897E+02 0.  0.
         12    1    1    2    0    0  0.43405130658E+00 -0.46047328488E+01  0.31548832763E+02  0.31886059867E+02  0.00000000000E+00 0. -1.
         11    1    3    3    0    0 -0.32606303515E+00 -0.16333726664E+02 -0.13236865815E+02  0.21026449075E+02  0.51100000000E-03 0. -1.
        -11    1    3    3    0    0  0.13072752971E+02  0.10102025184E+02 -0.97643235424E+01  0.19190877977E+02  0.51100000000E-03 0.  1.
         12    1    3    3    0    0 -0.13180741242E+02  0.10836434329E+02 -0.85476434054E+01  0.19084613081E+02  0.00000000000E+00 0. -1.
</event>
<event>
 7    1  0.3223600E-013  0.5930195E+02  0.7816164E-02  0.1266605E+00
        -11   -1    0    0    0    0  0.00000000000E+00  0.00000000000E+00  0.45593999997E+02  0.45594000000E+02  0.51100000000E-03 0.  1.
         11   -1    0    0    0    0 -0.00000000000E+00 -0.00000000000E+00 -0.45593999997E+02  0.45594000000E+02  0.51100000000E-03 0. -1.
    9900012    2    1    2    0    0  0.95179699691E+01  0.12907915020E+02  0.27559283379E+02  0.59301950968E+02  0.50000012657E+02 0.  0.
         12    1    1    2    0    0 -0.95179699691E+01 -0.12907915020E+02 -0.27559283379E+02  0.31886049032E+02  0.00000000000E+00 0. -1.
         11    1    3    3    0    0  0.91067572702E+01  0.27301378058E+02  0.66560090068E+01  0.29539815978E+02  0.51100000000E-03 0. -1.
        -11    1    3    3    0    0 -0.17026937217E+01  0.30988857403E+01  0.41081778992E+01  0.54202753301E+01  0.51100000000E-03 0.  1.
         12    1    3    3    0    0  0.21139064207E+01 -0.17492348779E+02  0.16795096473E+02  0.24341859660E+02  0.00000000000E+00 0. -1.
</event>
<event>
 7    1  0.3223600E-013  0.5930196E+02  0.7816164E-02  0.1266605E+00
        -11   -1    0    0    0    0  0.00000000000E+00  0.00000000000E+00  0.45593999997E+02  0.45594000000E+02  0.51100000000E-03 0.  1.
         11   -1    0    0    0    0 -0.00000000000E+00 -0.00000000000E+00 -0.45593999997E+02  0.45594000000E+02  0.51100000000E-03 0. -1.
    9900012    2    1    2    0    0 -0.45000958241E+01 -0.84972297936E+00  0.31555455645E+02  0.59301958030E+02  0.50000025536E+02 0.  0.
         12    1    1    2    0    0  0.45000958241E+01  0.84972297936E+00 -0.31555455645E+02  0.31886041970E+02  0.00000000000E+00 0. -1.
         11    1    3    3    0    0  0.12514986817E+02  0.76692134737E+00  0.30438319627E+01  0.12902634486E+02  0.51100000000E-03 0. -1.
        -11    1    3    3    0    0  0.63333397552E+01  0.16486017221E+00  0.20803764442E+02  0.21747068459E+02  0.51100000000E-03 0.  1.
         12    1    3    3    0    0 -0.23348422397E+02 -0.17815044989E+01  0.77078592400E+01  0.24652255085E+02  0.00000000000E+00 0. -1.
</event>
<event>
 7    1  0.3223600E-013  0.5930191E+02  0.7816164E-02  0.1266605E+00
        -11   -1    0    0    0    0  0.00000000000E+00  0.00000000000E+00  0.45593999997E+02  0.45594000000E+02  0.51100000000E-03 0. -1.
         11   -1    0    0    0    0 -0.00000000000E+00 -0.00000000000E+00 -0.45593999997E+02  0.45594000000E+02  0.51100000000E-03 0.  1.
    9900012    2    1    2    0    0  0.17033877446E+02 -0.84306210469E+01  0.25602621974E+02  0.59301912061E+02  0.49999941701E+02 0.  0.
         12    1    1    2    0    0 -0.17033877446E+02  0.84306210469E+01 -0.25602621974E+02  0.31886087939E+02  0.00000000000E+00 0. -1.
         11    1    3    3    0    0 -0.68789722435E+01  0.48060924723E+01  0.54384502670E+01  0.99997762748E+01  0.51100000000E-03 0. -1.
        -11    1    3    3    0    0  0.68899936156E+01 -0.62709518711E+01 -0.10192035545E+02  0.13808491525E+02  0.51100000000E-03 0.  1.
        -12    1    3    3    0    0  0.17022856074E+02 -0.69657616481E+01  0.30356207252E+02  0.35493644261E+02  0.00000000000E+00 0.  1.
</event>
<event>
 7    1  0.3223600E-013  0.5930195E+02  0.7816164E-02  0.1266605E+00
        -11   -1    0    0    0    0  0.00000000000E+00  0.00000000000E+00  0.45593999997E+02  0.45594000000E+02  0.51100000000E-03 0.  1.
         11   -1    0    0    0    0 -0.00000000000E+00 -0.00000000000E+00 -0.45593999997E+02  0.45594000000E+02  0.51100000000E-03 0. -1.
    9900012    2    1    2    0    0 -0.11513790319E+02  0.10435916857E+01  0.29716383284E+02  0.59301954673E+02  0.50000019414E+02 0.  0.
         12    1    1    2    0    0  0.11513790319E+02 -0.10435916857E+01 -0.29716383284E+02  0.31886045327E+02  0.00000000000E+00 0. -1.
         11    1    3    3    0    0 -0.10766947877E+02 -0.58491466954E+01 -0.43377434217E+01  0.12998296116E+02  0.51100000000E-03 0. -1.
        -11    1    3    3    0    0 -0.92763557203E+01  0.13395151774E+02  0.80483022870E+01  0.18172947930E+02  0.51100000000E-03 0.  1.
        -12    1    3    3    0    0  0.85295132780E+01 -0.65024133930E+01  0.26005824419E+02  0.28130710627E+02  0.00000000000E+00 0.  1.
</event>
<event>
 7    1  0.3223600E-013  0.5930195E+02  0.7816164E-02  0.1266605E+00
        -11   -1    0    0    0    0  0.00000000000E+00  0.00000000000E+00  0.45593999997E+02  0.45594000000E+02  0.51100000000E-03 0.  1.
         11   -1    0    0    0    0 -0.00000000000E+00 -0.00000000000E+00 -0.45593999997E+02  0.45594000000E+02  0.51100000000E-03 0. -1.
    9900012    2    1    2    0    0  0.29185259735E+02 -0.71738089384E+01  0.10652574665E+02  0.59301948700E+02  0.50000008522E+02 0.  0.
         12    1    1    2    0    0 -0.29185259735E+02  0.71738089384E+01 -0.10652574665E+02  0.31886051300E+02  0.00000000000E+00 0. -1.
         11    1    3    3    0    0  0.23409508286E+02 -0.21026238136E+02  0.27096790888E+00  0.31467144646E+02  0.51100000000E-03 0. -1.
        -11    1    3    3    0    0 -0.17202670788E+01 -0.49491026574E+01  0.40643643759E+01  0.66311382113E+01  0.51100000000E-03 0.  1.
        -12    1    3    3    0    0  0.74960185283E+01  0.18801531855E+02  0.63172423801E+01  0.21203665843E+02  0.00000000000E+00 0.  1.
</event>
<event>
 7    1  0.3223600E-013  0.5930191E+02  0.7816164E-02  0.1266605E+00
        -11   -1    0    0    0    0  0.00000000000E+00  0.00000000000E+00  0.45593999997E+02  0.45594000000E+02  0.51100000000E-03 0. -1.
         11   -1    0    0    0    0 -0.00000000000E+00 -0.00000000000E+00 -0.45593999997E+02  0.45594000000E+02  0.51100000000E-03 0.  1.
    9900012    2    1    2    0    0  0.44748308446E+01  0.20105599699E+02 -0.24340567654E+02  0.59301913942E+02  0.49999945131E+02 0.  0.
         12    1    1    2    0    0 -0.44748308446E+01 -0.20105599699E+02  0.24340567654E+02  0.31886086058E+02  0.00000000000E+00 0. -1.
         11    1    3    3    0    0 -0.47320974665E+01 -0.57093420002E+01 -0.11338130266E+01  0.75016574667E+01  0.51100000000E-03 0. -1.
        -11    1    3    3    0    0 -0.25773737163E+01  0.20619479272E+02  0.44865680312E+01  0.21258764632E+02  0.51100000000E-03 0.  1.
         12    1    3    3    0    0  0.11784302027E+02  0.51954624278E+01 -0.27693322659E+02  0.30541491843E+02  0.00000000000E+00 0. -1.
</event>
<event>
 7    1  0.3223600E-013  0.5930198E+02  0.7816164E-02  0.1266605E+00
        -11   -1    0    0    0    0  0.00000000000E+00  0.00000000000E+00  0.45593999997E+02  0.45594000000E+02  0.51100000000E-03 0. -1.
         11   -1    0    0    0    0 -0.00000000000E+00 -0.00000000000E+00 -0.45593999997E+02  0.45594000000E+02  0.51100000000E-03 0.  1.
    9900012    2    1    2    0    0  0.52721740678E+01 -0.31446841581E+02 -0.13652618993E+00  0.59301979486E+02  0.50000064667E+02 0.  0.
         12    1    1    2    0    0 -0.52721740678E+01  0.31446841581E+02  0.13652618993E+00  0.31886020514E+02  0.00000000000E+00 0. -1.
         11    1    3    3    0    0 -0.10304047511E+02 -0.63432521243E+01  0.13655583942E+02  0.18245142249E+02  0.51100000000E-03 0. -1.
        -11    1    3    3    0    0  0.30915209183E+01 -0.25727399392E+02 -0.70506412094E+01  0.26854573592E+02  0.51100000000E-03 0.  1.
        -12    1    3    3    0    0  0.12484700660E+02  0.62380993531E+00 -0.67414689228E+01  0.14202263645E+02  0.00000000000E+00 0.  1.
</event>
<event>
 7    1  0.3223600E-013  0.5930192E+02  0.7816164E-02  0.1266605E+00
        -11   -1    0    0    0    0  0.00000000000E+00  0.00000000000E+00  0.45593999997E+02  0.45594000000E+02  0.51100000000E-03 0. -1.
         11   -1    0    0    0    0 -0.00000000000E+00 -0.00000000000E+00 -0.45593999997E+02  0.45594000000E+02  0.51100000000E-03 0.  1.
    9900012    2    1    2    0    0 -0.62777914925E+01  0.30014799644E+01 -0.31117559050E+02  0.59301921075E+02  0.49999958139E+02 0.  0.
         12    1    1    2    0    0  0.62777914925E+01 -0.30014799644E+01  0.31117559050E+02  0.31886078925E+02  0.00000000000E+00 0. -1.
         11    1    3    3    0    0 -0.49125508845E+01 -0.35131074401E+01 -0.10369382353E+02  0.11999965447E+02  0.51100000000E-03 0. -1.
        -11    1    3    3    0    0  0.69511705231E+01  0.84856009191E+01 -0.31622443799E+02  0.33470929875E+02  0.51100000000E-03 0.  1.
         12    1    3    3    0    0 -0.83164111311E+01 -0.19710135146E+01  0.10874267102E+02  0.13831025753E+02  0.00000000000E+00 0. -1.
</event>
<event>
 7    1  0.3223600E-013  0.5930193E+02  0.7816164E-02  0.1266605E+00
        -11   -1    0    0    0    0  0.00000000000E+00  0.00000000000E+00  0.45593999997E+02  0.45594000000E+02  0.51100000000E-03 0. -1.
         11   -1    0    0    0    0 -0.00000000000E+00 -0.00000000000E+00 -0.45593999997E+02  0.45594000000E+02  0.51100000000E-03 0.  1.
    9900012    2    1    2    0    0  0.30809362647E+02 -0.14835739505E+01 -0.80810586328E+01  0.59301932086E+02  0.49999978221E+02 0.  0.
         12    1    1    2    0    0 -0.30809362647E+02  0.14835739505E+01  0.80810586328E+01  0.31886067914E+02  0.00000000000E+00 0. -1.
         11    1    3    3    0    0  0.27367061079E+02 -0.47304009135E+01 -0.15892345416E+02  0.31998427586E+02  0.51100000000E-03 0. -1.
        -11    1    3    3    0    0  0.99361201002E+01  0.18519945278E+01 -0.61581184018E+01  0.11835488536E+02  0.51100000000E-03 0.  1.
         12    1    3    3    0    0 -0.64938185314E+01  0.13948324352E+01  0.13969405185E+02  0.15468015964E+02  0.00000000000E+00 0. -1.
</event>
<event>
 7    1  0.3223600E-013  0.5930195E+02  0.7816164E-02  0.1266605E+00
        -11   -1    0    0    0    0  0.00000000000E+00  0.00000000000E+00  0.45593999997E+02  0.45594000000E+02  0.51100000000E-03 0.  1.
         11   -1    0    0    0    0 -0.00000000000E+00 -0.00000000000E+00 -0.45593999997E+02  0.45594000000E+02  0.51100000000E-03 0. -1.
    9900012    2    1    2    0    0 -0.16752922799E+02 -0.20146789105E+02 -0.18170490118E+02  0.59301949058E+02  0.50000009174E+02 0.  0.
         12    1    1    2    0    0  0.16752922799E+02  0.20146789105E+02  0.18170490118E+02  0.31886050942E+02  0.00000000000E+00 0. -1.
         11    1    3    3    0    0 -0.12207728492E+02  0.96562167254E+01  0.19301207691E+01  0.15684276293E+02  0.51100000000E-03 0. -1.
        -11    1    3    3    0    0 -0.43119851496E+01 -0.41142240943E+01  0.49413861292E+01  0.77419217877E+01  0.51100000000E-03 0.  1.
         12    1    3    3    0    0 -0.23320915677E+00 -0.25688781736E+02 -0.25041997016E+02  0.35875750977E+02  0.00000000000E+00 0. -1.
</event>
<event>
 7    1  0.3223600E-013  0.5930193E+02  0.7816164E-02  0.1266605E+00
        -11   -1    0    0    0    0  0.00000000000E+00  0.00000000000E+00  0.45593999997E+02  0.45594000000E+02  0.51100000000E-03 0. -1.
         11   -1    0    0    0    0 -0.00000000000E+00 -0.00000000000E+00 -0.45593999997E+02  0.45594000000E+02  0.51100000000E-03 0.  1.
    9900012    2    1    2    0    0  0.30208722766E+02 -0.96255833761E+01 -0.33915802229E+01  0.59301927760E+02  0.49999970332E+02 0.  0.
         12    1    1    2    0    0 -0.30208722766E+02  0.96255833761E+01  0.33915802229E+01  0.31886072240E+02  0.00000000000E+00 0. -1.
         11    1    3    3    0    0  0.49965067050E+01 -0.54123602474E+01 -0.13332403366E+02  0.15231930359E+02  0.51100000000E-03 0.  1.
        -11    1    3    3    0    0  0.95012431214E+01  0.99594463504E+01 -0.83516433834E+01  0.16100128569E+02  0.51100000000E-03 0. -1.
        -12    1    3    3    0    0  0.15710972940E+02 -0.14172669479E+02  0.18292466526E+02  0.27969868832E+02  0.00000000000E+00 0.  1.
</event>
<event>
 7    1  0.3223600E-013  0.5930183E+02  0.7816164E-02  0.1266605E+00
        -11   -1    0    0    0    0  0.00000000000E+00  0.00000000000E+00  0.45593999997E+02  0.45594000000E+02  0.51100000000E-03 0.  1.
         11   -1    0    0    0    0 -0.00000000000E+00 -0.00000000000E+00 -0.45593999997E+02  0.45594000000E+02  0.51100000000E-03 0. -1.
    9900012    2    1    2    0    0  0.13896487554E+01  0.21166940867E+02  0.23806667175E+02  0.59301828839E+02  0.49999789923E+02 0.  0.
         12    1    1    2    0    0 -0.13896487554E+01 -0.21166940867E+02 -0.23806667175E+02  0.31886171161E+02  0.00000000000E+00 0. -1.
         11    1    3    3    0    0 -0.26177039738E+00  0.12977715792E+02  0.70259746780E+01  0.14759876400E+02  0.51100000000E-03 0. -1.
        -11    1    3    3    0    0 -0.12054133632E+01  0.95537943713E+01  0.29709516616E+02  0.31231128479E+02  0.51100000000E-03 0.  1.
         12    1    3    3    0    0  0.28568325159E+01 -0.13645692961E+01 -0.12928824119E+02  0.13310823960E+02  0.00000000000E+00 0. -1.
</event>
<event>
 7    1  0.3223600E-013  0.5930198E+02  0.7816164E-02  0.1266605E+00
        -11   -1    0    0    0    0  0.00000000000E+00  0.00000000000E+00  0.45593999997E+02  0.45594000000E+02  0.51100000000E-03 0. -1.
         11   -1    0    0    0    0 -0.00000000000E+00 -0.00000000000E+00 -0.45593999997E+02  0.45594000000E+02  0.51100000000E-03 0.  1.
    9900012    2    1    2    0    0  0.11681737516E+01 -0.31845204370E+02 -0.11119607696E+01  0.59301982248E+02  0.50000069705E+02 0.  0.
         12    1    1    2    0    0 -0.11681737516E+01  0.31845204370E+02  0.11119607696E+01  0.31886017752E+02  0.00000000000E+00 0. -1.
         11    1    3    3    0    0  0.89037195734E+01  0.61678955848E+00  0.15472941268E+02  0.17862490401E+02  0.51100000000E-03 0. -1.
        -11    1    3    3    0    0 -0.41151952140E+01  0.10675889675E+01 -0.18342945639E+01  0.46302499566E+01  0.51100000000E-03 0.  1.
        -12    1    3    3    0    0 -0.36203506078E+01 -0.33529582896E+02 -0.14750607473E+02  0.36809241891E+02  0.00000000000E+00 0.  1.
</event>
<event>
 7    1  0.3223600E-013  0.5930194E+02  0.7816164E-02  0.1266605E+00
        -11   -1    0    0    0    0  0.00000000000E+00  0.00000000000E+00  0.45593999997E+02  0.45594000000E+02  0.51100000000E-03 0.  1.
         11   -1    0    0    0    0 -0.00000000000E+00 -0.00000000000E+00 -0.45593999997E+02  0.45594000000E+02  0.51100000000E-03 0. -1.
    9900012    2    1    2    0    0  0.62762903793E+01 -0.22753238913E+02  0.21438732362E+02  0.59301938042E+02  0.49999989083E+02 0.  0.
         12    1    1    2    0    0 -0.62762903793E+01  0.22753238913E+02 -0.21438732362E+02  0.31886061958E+02  0.00000000000E+00 0. -1.
         11    1    3    3    0    0  0.10897784960E+01  0.13017665474E+02 -0.60218249928E+00  0.13077073663E+02  0.51100000000E-03 0. -1.
        -11    1    3    3    0    0  0.53365598844E+01 -0.59625394719E+01  0.12656331898E+02  0.14973759906E+02  0.51100000000E-03 0.  1.
        -12    1    3    3    0    0 -0.15004800102E+00 -0.29808364915E+02  0.93845829628E+01  0.31251104472E+02  0.00000000000E+00 0.  1.
</event>
<event>
 7    1  0.3223600E-013  0.5930193E+02  0.7816164E-02  0.1266605E+00
        -11   -1    0    0    0    0  0.00000000000E+00  0.00000000000E+00  0.45593999997E+02  0.45594000000E+02  0.51100000000E-03 0.  1.
         11   -1    0    0    0    0 -0.00000000000E+00 -0.00000000000E+00 -0.45593999997E+02  0.45594000000E+02  0.51100000000E-03 0. -1.
    9900012    2    1    2    0    0 -0.10706855332E+02 -0.28109327638E+02 -0.10580652099E+02  0.59301933291E+02  0.49999980418E+02 0.  0.
         12    1    1    2    0    0  0.10706855332E+02  0.28109327638E+02  0.10580652099E+02  0.31886066709E+02  0.00000000000E+00 0. -1.
         11    1    3    3    0    0  0.44739821319E+01 -0.10525742197E+02 -0.11901685768E+02  0.16506298473E+02  0.51100000000E-03 0. -1.
        -11    1    3    3    0    0 -0.55750539943E+01  0.22528250257E+01 -0.14478680525E+02  0.15677647707E+02  0.51100000000E-03 0.  1.
        -12    1    3    3    0    0 -0.96057834691E+01 -0.19836410467E+02  0.15799714194E+02  0.27117987110E+02  0.00000000000E+00 0.  1.
</event>
<event>
 7    1  0.3223600E-013  0.5930192E+02  0.7816164E-02  0.1266605E+00
        -11   -1    0    0    0    0  0.00000000000E+00  0.00000000000E+00  0.45593999997E+02  0.45594000000E+02  0.51100000000E-03 0. -1.
         11   -1    0    0    0    0 -0.00000000000E+00 -0.00000000000E+00 -0.45593999997E+02  0.45594000000E+02  0.51100000000E-03 0.  1.
    9900012    2    1    2    0    0 -0.30908459695E+02 -0.75732120000E+01 -0.20088390240E+01  0.59301923808E+02  0.49999963123E+02 0.  0.
         12    1    1    2    0    0  0.30908459695E+02  0.75732120000E+01  0.20088390240E+01  0.31886076192E+02  0.00000000000E+00 0. -1.
         11    1    3    3    0    0  0.21538573283E+01 -0.54492631943E+01 -0.12871573639E+02  0.14142523783E+02  0.51100000000E-03 0. -1.
        -11    1    3    3    0    0 -0.24108731814E+02  0.10160910372E+02 -0.52152193134E+00  0.26167671556E+02  0.51100000000E-03 0.  1.
         12    1    3    3    0    0 -0.89535852096E+01 -0.12284859177E+02  0.11384256547E+02  0.18991728469E+02  0.00000000000E+00 0. -1.
</event>
<event>
 7    1  0.3223600E-013  0.5930193E+02  0.7816164E-02  0.1266605E+00
        -11   -1    0    0    0    0  0.00000000000E+00  0.00000000000E+00  0.45593999997E+02  0.45594000000E+02  0.51100000000E-03 0.  1.
         11   -1    0    0    0    0 -0.00000000000E+00 -0.00000000000E+00 -0.45593999997E+02  0.45594000000E+02  0.51100000000E-03 0. -1.
    9900012    2    1    2    0    0 -0.13433524624E+02 -0.47826419591E+01  0.28519964894E+02  0.59301927093E+02  0.49999969114E+02 0.  0.
         12    1    1    2    0    0  0.13433524624E+02  0.47826419591E+01 -0.28519964894E+02  0.31886072907E+02  0.00000000000E+00 0. -1.
         11    1    3    3    0    0  0.51726081837E+01 -0.41564256811E+01  0.12969056557E+02  0.14568053339E+02  0.51100000000E-03 0. -1.
        -11    1    3    3    0    0 -0.18832231849E+02 -0.11937962243E+02  0.22320280237E+02  0.31549370977E+02  0.51100000000E-03 0.  1.
         12    1    3    3    0    0  0.22609904147E+00  0.11311745964E+02 -0.67693719001E+01  0.13184502776E+02  0.00000000000E+00 0. -1.
</event>
<event>
 7    1  0.3223600E-013  0.5930194E+02  0.7816164E-02  0.1266605E+00
        -11   -1    0    0    0    0  0.00000000000E+00  0.00000000000E+00  0.45593999997E+02  0.45594000000E+02  0.51100000000E-03 0. -1.
         11   -1    0    0    0    0 -0.00000000000E+00 -0.00000000000E+00 -0.45593999997E+02  0.45594000000E+02  0.51100000000E-03 0.  1.
    9900012    2    1    2    0    0  0.15306719402E+02  0.11910708345E+02 -0.25309288231E+02  0.59301941873E+02  0.49999996070E+02 0.  0.
         12    1    1    2    0    0 -0.15306719402E+02 -0.11910708345E+02  0.25309288231E+02  0.31886058127E+02  0.00000000000E+00 0. -1.
         11    1    3    3    0    0  0.12809017245E+02  0.25827526075E+02 -0.26870283795E+02  0.39409950234E+02  0.51100000000E-03 0. -1.
        -11    1    3    3    0    0 -0.31158273291E+01  0.71059281773E+00 -0.20719777378E+01  0.38087286730E+01  0.51100000000E-03 0.  1.
         12    1    3    3    0    0  0.56135294861E+01 -0.14627410548E+02  0.36329733020E+01  0.16083262966E+02  0.00000000000E+00 0. -1.
</event>
<event>
 7    1  0.3223600E-013  0.5930188E+02  0.7816164E-02  0.1266605E+00
        -11   -1    0    0    0    0  0.00000000000E+00  0.00000000000E+00  0.45593999997E+02  0.45594000000E+02  0.51100000000E-03 0. -1.
         11   -1    0    0    0    0 -0.00000000000E+00 -0.00000000000E+00 -0.45593999997E+02  0.45594000000E+02  0.51100000000E-03 0.  1.
    9900012    2    1    2    0    0 -0.15144175983E+02 -0.27878123278E+02 -0.31919483357E+01  0.59301884560E+02  0.49999891544E+02 0.  0.
         12    1    1    2    0    0  0.15144175983E+02  0.27878123278E+02  0.31919483357E+01  0.31886115440E+02  0.00000000000E+00 0. -1.
         11    1    3    3    0    0  0.29828343307E+01  0.10558856826E+02  0.42356036873E+01  0.11761254056E+02  0.51100000000E-03 0. -1.
        -11    1    3    3    0    0  0.43686021957E+01 -0.78746277427E+01 -0.16289948929E+01  0.91513972623E+01  0.51100000000E-03 0.  1.
         12    1    3    3    0    0 -0.22495612509E+02 -0.30562352362E+02 -0.57985571302E+01  0.38389233241E+02  0.00000000000E+00 0. -1.
</event>
<event>
 7    1  0.3223600E-013  0.5930194E+02  0.7816164E-02  0.1266605E+00
        -11   -1    0    0    0    0  0.00000000000E+00  0.00000000000E+00  0.45593999997E+02  0.45594000000E+02  0.51100000000E-03 0. -1.
         11   -1    0    0    0    0 -0.00000000000E+00 -0.00000000000E+00 -0.45593999997E+02  0.45594000000E+02  0.51100000000E-03 0.  1.
    9900012    2    1    2    0    0  0.85011074985E+01 -0.11104151525E+02 -0.28655707301E+02  0.59301943945E+02  0.49999999849E+02 0.  0.
         12    1    1    2    0    0 -0.85011074985E+01  0.11104151525E+02  0.28655707301E+02  0.31886056055E+02  0.00000000000E+00 0. -1.
         11    1    3    3    0    0  0.19563272600E+02  0.11011822892E+02 -0.42682381155E+01  0.22851689983E+02  0.51100000000E-03 0.  1.
        -11    1    3    3    0    0 -0.22529480412E+01 -0.12702399965E+00  0.25256651715E+00  0.22706166738E+01  0.51100000000E-03 0. -1.
        -12    1    3    3    0    0 -0.88092170600E+01 -0.21988950418E+02 -0.24640035703E+02  0.34179637288E+02  0.00000000000E+00 0.  1.
</event>
<event>
 7    1  0.3223600E-013  0.5930197E+02  0.7816164E-02  0.1266605E+00
        -11   -1    0    0    0    0  0.00000000000E+00  0.00000000000E+00  0.45593999997E+02  0.45594000000E+02  0.51100000000E-03 0. -1.
         11   -1    0    0    0    0 -0.00000000000E+00 -0.00000000000E+00 -0.45593999997E+02  0.45594000000E+02  0.51100000000E-03 0.  1.
    9900012    2    1    2    0    0 -0.62033221549E+01  0.30458808647E+02  0.71062575210E+01  0.59301966601E+02  0.50000041169E+02 0.  0.
         12    1    1    2    0    0  0.62033221549E+01 -0.30458808647E+02 -0.71062575210E+01  0.31886033399E+02  0.00000000000E+00 0. -1.
         11    1    3    3    0    0  0.30154314902E+01  0.94847137064E+00 -0.80985046725E+01  0.86935725226E+01  0.51100000000E-03 0. -1.
        -11    1    3    3    0    0 -0.75359684422E+01  0.26734491217E+02 -0.66111918144E+01  0.28552262581E+02  0.51100000000E-03 0.  1.
        -12    1    3    3    0    0 -0.16827852030E+01  0.27758460592E+01  0.21815954008E+02  0.22056131498E+02  0.00000000000E+00 0.  1.
</event>
<event>
 7    1  0.3223600E-013  0.5930195E+02  0.7816164E-02  0.1266605E+00
        -11   -1    0    0    0    0  0.00000000000E+00  0.00000000000E+00  0.45593999997E+02  0.45594000000E+02  0.51100000000E-03 0.  1.
         11   -1    0    0    0    0 -0.00000000000E+00 -0.00000000000E+00 -0.45593999997E+02  0.45594000000E+02  0.51100000000E-03 0. -1.
    9900012    2    1    2    0    0  0.13224165559E+02 -0.28214611339E+02 -0.67658872121E+01  0.59301951680E+02  0.50000013955E+02 0.  0.
         12    1    1    2    0    0 -0.13224165559E+02  0.28214611339E+02  0.67658872121E+01  0.31886048320E+02  0.00000000000E+00 0. -1.
         11    1    3    3    0    0  0.13919852829E+01 -0.12369082830E+02 -0.13989052124E+02  0.18724994331E+02  0.51100000000E-03 0. -1.
        -11    1    3    3    0    0 -0.85836881003E+01  0.55934353336E+01  0.29789271965E+01  0.10669593607E+02  0.51100000000E-03 0.  1.
        -12    1    3    3    0    0  0.20415868376E+02 -0.21438963843E+02  0.42442377159E+01  0.29907363742E+02  0.00000000000E+00 0.  1.
</event>
<event>
 7    1  0.3223600E-013  0.5930191E+02  0.7816164E-02  0.1266605E+00
        -11   -1    0    0    0    0  0.00000000000E+00  0.00000000000E+00  0.45593999997E+02  0.45594000000E+02  0.51100000000E-03 0. -1.
         11   -1    0    0    0    0 -0.00000000000E+00 -0.00000000000E+00 -0.45593999997E+02  0.45594000000E+02  0.51100000000E-03 0.  1.
    9900012    2    1    2    0    0  0.24895919015E+02  0.88075498067E+01 -0.17870166150E+02  0.59301912824E+02  0.49999943091E+02 0.  0.
         12    1    1    2    0    0 -0.24895919015E+02 -0.88075498067E+01  0.17870166150E+02  0.31886087176E+02  0.00000000000E+00 0. -1.
         11    1    3    3    0    0  0.17405458781E+02  0.20355020886E+01 -0.26946393567E+02  0.32143450198E+02  0.51100000000E-03 0.  1.
        -11    1    3    3    0    0  0.55070432198E+00 -0.55771964830E+01 -0.47628650382E+01  0.73548133554E+01  0.51100000000E-03 0. -1.
         12    1    3    3    0    0  0.69397559118E+01  0.12349244201E+02  0.13839092454E+02  0.19803649270E+02  0.00000000000E+00 0. -1.
</event>
<event>
 7    1  0.3223600E-013  0.5930206E+02  0.7816164E-02  0.1266604E+00
        -11   -1    0    0    0    0  0.00000000000E+00  0.00000000000E+00  0.45593999997E+02  0.45594000000E+02  0.51100000000E-03 0. -1.
         11   -1    0    0    0    0 -0.00000000000E+00 -0.00000000000E+00 -0.45593999997E+02  0.45594000000E+02  0.51100000000E-03 0.  1.
    9900012    2    1    2    0    0  0.19314690808E+02 -0.25057116705E+02  0.39744969382E+01  0.59302062591E+02  0.50000216230E+02 0.  0.
         12    1    1    2    0    0 -0.19314690808E+02  0.25057116705E+02 -0.39744969382E+01  0.31885937409E+02  0.00000000000E+00 0. -1.
         11    1    3    3    0    0  0.15008042199E+02  0.26464145366E+01  0.27198400119E+01  0.15480386639E+02  0.51100000000E-03 0. -1.
        -11    1    3    3    0    0  0.16075337924E+02 -0.10081553456E+02  0.93298010615E+01  0.21144725053E+02  0.51100000000E-03 0.  1.
         12    1    3    3    0    0 -0.11768689315E+02 -0.17621977785E+02 -0.80751441352E+01  0.22676950899E+02  0.00000000000E+00 0. -1.
</event>
<event>
 7    1  0.3223600E-013  0.5930194E+02  0.7816164E-02  0.1266605E+00
        -11   -1    0    0    0    0  0.00000000000E+00  0.00000000000E+00  0.45593999997E+02  0.45594000000E+02  0.51100000000E-03 0.  1.
         11   -1    0    0    0    0 -0.00000000000E+00 -0.00000000000E+00 -0.45593999997E+02  0.45594000000E+02  0.51100000000E-03 0. -1.
    9900012    2    1    2    0    0 -0.12222460644E+02 -0.75429976752E+00  0.29440842103E+02  0.59301941980E+02  0.49999996265E+02 0.  0.
         12    1    1    2    0    0  0.12222460644E+02  0.75429976752E+00 -0.29440842103E+02  0.31886058020E+02  0.00000000000E+00 0. -1.
         11    1    3    3    0    0  0.76138062999E+01 -0.70168561215E+01  0.65814543996E+01  0.12268734999E+02  0.51100000000E-03 0. -1.
        -11    1    3    3    0    0  0.10691443180E+01  0.72449622299E+01  0.24948081651E+02  0.26000756251E+02  0.51100000000E-03 0.  1.
         12    1    3    3    0    0 -0.20905411262E+02 -0.98240587601E+00 -0.20886939475E+01  0.21032450730E+02  0.00000000000E+00 0. -1.
</event>
<event>
 7    1  0.3223600E-013  0.5930194E+02  0.7816164E-02  0.1266605E+00
        -11   -1    0    0    0    0  0.00000000000E+00  0.00000000000E+00  0.45593999997E+02  0.45594000000E+02  0.51100000000E-03 0.  1.
         11   -1    0    0    0    0 -0.00000000000E+00 -0.00000000000E+00 -0.45593999997E+02  0.45594000000E+02  0.51100000000E-03 0. -1.
    9900012    2    1    2    0    0 -0.73180288328E-01  0.20121296709E+02  0.24735574038E+02  0.59301944119E+02  0.50000000167E+02 0.  0.
         12    1    1    2    0    0  0.73180288328E-01 -0.20121296709E+02 -0.24735574038E+02  0.31886055881E+02  0.00000000000E+00 0. -1.
         11    1    3    3    0    0 -0.13847147172E+02  0.74287333982E+01 -0.72648031645E+01  0.17312045806E+02  0.51100000000E-03 0. -1.
        -11    1    3    3    0    0  0.14439988446E+02  0.46542659533E+01  0.90553592059E+01  0.17668474424E+02  0.51100000000E-03 0.  1.
        -12    1    3    3    0    0 -0.66602156209E+00  0.80382973577E+01  0.22945017997E+02  0.24321423889E+02  0.00000000000E+00 0.  1.
</event>
<event>
 7    1  0.3223600E-013  0.5930196E+02  0.7816164E-02  0.1266605E+00
        -11   -1    0    0    0    0  0.00000000000E+00  0.00000000000E+00  0.45593999997E+02  0.45594000000E+02  0.51100000000E-03 0.  1.
         11   -1    0    0    0    0 -0.00000000000E+00 -0.00000000000E+00 -0.45593999997E+02  0.45594000000E+02  0.51100000000E-03 0. -1.
    9900012    2    1    2    0    0 -0.11802829694E+01  0.18204156091E+02  0.26152151124E+02  0.59301962690E+02  0.50000034036E+02 0.  0.
         12    1    1    2    0    0  0.11802829694E+01 -0.18204156091E+02 -0.26152151124E+02  0.31886037310E+02  0.00000000000E+00 0. -1.
         11    1    3    3    0    0 -0.13004467288E+02  0.25847760974E+02  0.13328134974E+02  0.31856900335E+02  0.51100000000E-03 0. -1.
        -11    1    3    3    0    0 -0.37544234990E+01 -0.58247555592E+01  0.88953086596E+01  0.11276080416E+02  0.51100000000E-03 0.  1.
        -12    1    3    3    0    0  0.15578607818E+02 -0.18188493237E+01  0.39287074903E+01  0.16168981939E+02  0.00000000000E+00 0.  1.
</event>
<event>
 7    1  0.3223600E-013  0.5930193E+02  0.7816164E-02  0.1266605E+00
        -11   -1    0    0    0    0  0.00000000000E+00  0.00000000000E+00  0.45593999997E+02  0.45594000000E+02  0.51100000000E-03 0.  1.
         11   -1    0    0    0    0 -0.00000000000E+00 -0.00000000000E+00 -0.45593999997E+02  0.45594000000E+02  0.51100000000E-03 0. -1.
    9900012    2    1    2    0    0 -0.15309870970E+02  0.18245099905E+02  0.21200126536E+02  0.59301934316E+02  0.49999982288E+02 0.  0.
         12    1    1    2    0    0  0.15309870970E+02 -0.18245099905E+02 -0.21200126536E+02  0.31886065684E+02  0.00000000000E+00 0. -1.
         11    1    3    3    0    0  0.13850621080E+02  0.26437942796E+01  0.99402931687E+01  0.17252210903E+02  0.51100000000E-03 0. -1.
        -11    1    3    3    0    0 -0.39128607320E+01  0.94746426157E+01  0.12345717951E+02  0.16046684511E+02  0.51100000000E-03 0.  1.
        -12    1    3    3    0    0 -0.25247631318E+02  0.61266630099E+01 -0.10858845839E+01  0.26003038902E+02  0.00000000000E+00 0.  1.
</event>
<event>
 7    1  0.3223600E-013  0.5930194E+02  0.7816164E-02  0.1266605E+00
        -11   -1    0    0    0    0  0.00000000000E+00  0.00000000000E+00  0.45593999997E+02  0.45594000000E+02  0.51100000000E-03 0.  1.
         11   -1    0    0    0    0 -0.00000000000E+00 -0.00000000000E+00 -0.45593999997E+02  0.45594000000E+02  0.51100000000E-03 0. -1.
    9900012    2    1    2    0    0 -0.61080355375E-01  0.18662603443E+02  0.25853902497E+02  0.59301940783E+02  0.49999994082E+02 0.  0.
         12    1    1    2    0    0  0.61080355375E-01 -0.18662603443E+02 -0.25853902497E+02  0.31886059217E+02  0.00000000000E+00 0. -1.
         11    1    3    3    0    0  0.74687950353E+01  0.16503174984E+02  0.50306290634E+01  0.18800130661E+02  0.51100000000E-03 0. -1.
        -11    1    3    3    0    0  0.17531373077E+01  0.15219161283E+02  0.14902486664E+01  0.15392114927E+02  0.51100000000E-03 0.  1.
         12    1    3    3    0    0 -0.92830126984E+01 -0.13059732823E+02  0.19333024767E+02  0.25109695195E+02  0.00000000000E+00 0. -1.
</event>
<event>
 7    1  0.3223600E-013  0.5930195E+02  0.7816164E-02  0.1266605E+00
        -11   -1    0    0    0    0  0.00000000000E+00  0.00000000000E+00  0.45593999997E+02  0.45594000000E+02  0.51100000000E-03 0. -1.
         11   -1    0    0    0    0 -0.00000000000E+00 -0.00000000000E+00 -0.45593999997E+02  0.45594000000E+02  0.51100000000E-03 0.  1.
    9900012    2    1    2    0    0  0.17685822800E+02  0.51550162755E+01 -0.26026091283E+02  0.59301953704E+02  0.50000017648E+02 0.  0.
         12    1    1    2    0    0 -0.17685822800E+02 -0.51550162755E+01  0.26026091283E+02  0.31886046296E+02  0.00000000000E+00 0. -1.
         11    1    3    3    0    0  0.96360966720E+01  0.56241011629E+01 -0.36505469202E+01  0.11739308584E+02  0.51100000000E-03 0. -1.
        -11    1    3    3    0    0  0.20377954030E+02 -0.12807267115E+02 -0.94655545298E+01  0.25862788407E+02  0.51100000000E-03 0.  1.
         12    1    3    3    0    0 -0.12328227901E+02  0.12338182227E+02 -0.12909989833E+02  0.21699856713E+02  0.00000000000E+00 0. -1.
</event>
<event>
 7    1  0.3223600E-013  0.5930191E+02  0.7816164E-02  0.1266605E+00
        -11   -1    0    0    0    0  0.00000000000E+00  0.00000000000E+00  0.45593999997E+02  0.45594000000E+02  0.51100000000E-03 0.  1.
         11   -1    0    0    0    0 -0.00000000000E+00 -0.00000000000E+00 -0.45593999997E+02  0.45594000000E+02  0.51100000000E-03 0. -1.
    9900012    2    1    2    0    0 -0.35385260656E+01  0.39189031695E+01  0.31445886013E+02  0.59301910307E+02  0.49999938502E+02 0.  0.
         12    1    1    2    0    0  0.35385260656E+01 -0.39189031695E+01 -0.31445886013E+02  0.31886089693E+02  0.00000000000E+00 0. -1.
         11    1    3    3    0    0  0.69161164109E+01  0.18591839428E+02  0.20024138238E+02  0.28186082948E+02  0.51100000000E-03 0. -1.
        -11    1    3    3    0    0 -0.78701287798E+01  0.47469066744E+01  0.52031888490E+01  0.10561497263E+02  0.51100000000E-03 0.  1.
         12    1    3    3    0    0 -0.25845136967E+01 -0.19419842933E+02  0.62185589257E+01  0.20554330096E+02  0.00000000000E+00 0. -1.
</event>
<event>
 7    1  0.3223600E-013  0.5930196E+02  0.7816164E-02  0.1266605E+00
        -11   -1    0    0    0    0  0.00000000000E+00  0.00000000000E+00  0.45593999997E+02  0.45594000000E+02  0.51100000000E-03 0.  1.
         11   -1    0    0    0    0 -0.00000000000E+00 -0.00000000000E+00 -0.45593999997E+02  0.45594000000E+02  0.51100000000E-03 0. -1.
    9900012    2    1    2    0    0  0.29523009746E+01 -0.16528823922E+02  0.27107223377E+02  0.59301958218E+02  0.50000025880E+02 0.  0.
         12    1    1    2    0    0 -0.29523009746E+01  0.16528823922E+02 -0.27107223377E+02  0.31886041782E+02  0.00000000000E+00 0. -1.
         11    1    3    3    0    0  0.14956943883E+02  0.12568409493E+02  0.60239215395E+01  0.20444136531E+02  0.51100000000E-03 0. -1.
        -11    1    3    3    0    0  0.13857023815E+01 -0.24477421759E+01  0.19821517034E+01  0.34410083531E+01  0.51100000000E-03 0.  1.
        -12    1    3    3    0    0 -0.13390345290E+02 -0.26649491239E+02  0.19101150134E+02  0.35416813334E+02  0.00000000000E+00 0.  1.
</event>
<event>
 7    1  0.3223600E-013  0.5930194E+02  0.7816164E-02  0.1266605E+00
        -11   -1    0    0    0    0  0.00000000000E+00  0.00000000000E+00  0.45593999997E+02  0.45594000000E+02  0.51100000000E-03 0.  1.
         11   -1    0    0    0    0 -0.00000000000E+00 -0.00000000000E+00 -0.45593999997E+02  0.45594000000E+02  0.51100000000E-03 0. -1.
    9900012    2    1    2    0    0  0.13232210522E+02 -0.27950908423E+02  0.77702122242E+01  0.59301939174E+02  0.49999991148E+02 0.  0.
         12    1    1    2    0    0 -0.13232210522E+02  0.27950908423E+02 -0.77702122242E+01  0.31886060826E+02  0.00000000000E+00 0. -1.
         11    1    3    3    0    0  0.15309181326E+02 -0.13378980969E+02  0.84169750201E+01  0.22004854769E+02  0.51100000000E-03 0. -1.
        -11    1    3    3    0    0 -0.17205415414E+01 -0.15911182911E+02  0.14794013603E+02  0.21794238770E+02  0.51100000000E-03 0.  1.
         12    1    3    3    0    0 -0.35642926259E+00  0.13392554567E+01 -0.15440776399E+02  0.15502845636E+02  0.00000000000E+00 0. -1.
</event>
<event>
 7    1  0.3223600E-013  0.5930194E+02  0.7816164E-02  0.1266605E+00
        -11   -1    0    0    0    0  0.00000000000E+00  0.00000000000E+00  0.45593999997E+02  0.45594000000E+02  0.51100000000E-03 0.  1.
         11   -1    0    0    0    0 -0.00000000000E+00 -0.00000000000E+00 -0.45593999997E+02  0.45594000000E+02  0.51100000000E-03 0. -1.
    9900012    2    1    2    0    0 -0.16671327264E+02 -0.94408122934E+00  0.27164247537E+02  0.59301940563E+02  0.49999993682E+02 0.  0.
         12    1    1    2    0    0  0.16671327264E+02  0.94408122934E+00 -0.27164247537E+02  0.31886059437E+02  0.00000000000E+00 0. -1.
         11    1    3    3    0    0  0.39697743050E+01  0.77475585047E+01  0.80528901349E+01  0.11858870545E+02  0.51100000000E-03 0.  1.
        -11    1    3    3    0    0 -0.96963174747E+01 -0.36425257324E+01  0.29665691893E+02  0.31421964325E+02  0.51100000000E-03 0. -1.
         12    1    3    3    0    0 -0.10944784095E+02 -0.50491140016E+01 -0.10554334491E+02  0.16021105693E+02  0.00000000000E+00 0. -1.
</event>
<event>
 7    1  0.3223600E-013  0.5930194E+02  0.7816164E-02  0.1266605E+00
        -11   -1    0    0    0    0  0.00000000000E+00  0.00000000000E+00  0.45593999997E+02  0.45594000000E+02  0.51100000000E-03 0. -1.
         11   -1    0    0    0    0 -0.00000000000E+00 -0.00000000000E+00 -0.45593999997E+02  0.45594000000E+02  0.51100000000E-03 0.  1.
    9900012    2    1    2    0    0 -0.20501179926E+02  0.10385999522E+01 -0.24399666242E+02  0.59301940649E+02  0.49999993838E+02 0.  0.
         12    1    1    2    0    0  0.20501179926E+02 -0.10385999522E+01  0.24399666242E+02  0.31886059351E+02  0.00000000000E+00 0. -1.
         11    1    3    3    0    0  0.11609786388E+01  0.43151444500E+01 -0.80717588067E+01  0.92261386029E+01  0.51100000000E-03 0.  1.
        -11    1    3    3    0    0  0.89753207674E+01 -0.11028175207E+02 -0.11110885606E+02  0.18045188015E+02  0.51100000000E-03 0. -1.
        -12    1    3    3    0    0 -0.30637479332E+02  0.77516307089E+01 -0.52170218288E+01  0.32030614032E+02  0.00000000000E+00 0.  1.
</event>
<event>
 7    1  0.3223600E-013  0.5930195E+02  0.7816164E-02  0.1266605E+00
        -11   -1    0    0    0    0  0.00000000000E+00  0.00000000000E+00  0.45593999997E+02  0.45594000000E+02  0.51100000000E-03 0.  1.
         11   -1    0    0    0    0 -0.00000000000E+00 -0.00000000000E+00 -0.45593999997E+02  0.45594000000E+02  0.51100000000E-03 0. -1.
    9900012    2    1    2    0    0  0.31182621429E+02 -0.50873857374E+01  0.42991431012E+01  0.59301952828E+02  0.50000016050E+02 0.  0.
         12    1    1    2    0    0 -0.31182621429E+02  0.50873857374E+01 -0.42991431012E+01  0.31886047172E+02  0.00000000000E+00 0. -1.
         11    1    3    3    0    0  0.88587808169E+01 -0.95538198747E+01 -0.32391308523E+01  0.13425551784E+02  0.51100000000E-03 0. -1.
        -11    1    3    3    0    0  0.86267991942E+01 -0.20932992184E+01 -0.15746720444E+02  0.18076580732E+02  0.51100000000E-03 0.  1.
        -12    1    3    3    0    0  0.13697041418E+02  0.65597333556E+01  0.23284994398E+02  0.27799820312E+02  0.00000000000E+00 0.  1.
</event>
<event>
 7    1  0.3223600E-013  0.5930194E+02  0.7816164E-02  0.1266605E+00
        -11   -1    0    0    0    0  0.00000000000E+00  0.00000000000E+00  0.45593999997E+02  0.45594000000E+02  0.51100000000E-03 0.  1.
         11   -1    0    0    0    0 -0.00000000000E+00 -0.00000000000E+00 -0.45593999997E+02  0.45594000000E+02  0.51100000000E-03 0. -1.
    9900012    2    1    2    0    0 -0.28801679981E+02 -0.32690037374E+01 -0.13285239730E+02  0.59301941136E+02  0.49999994726E+02 0.  0.
         12    1    1    2    0    0  0.28801679981E+02  0.32690037374E+01  0.13285239730E+02  0.31886058864E+02  0.00000000000E+00 0. -1.
         11    1    3    3    0    0 -0.27190888799E+02 -0.13716483142E+02 -0.57905437583E+01  0.31000270011E+02  0.51100000000E-03 0. -1.
        -11    1    3    3    0    0 -0.62974099250E+01 -0.51432548880E+01 -0.87855776001E+01  0.11970664837E+02  0.51100000000E-03 0.  1.
         12    1    3    3    0    0  0.46866187424E+01  0.15590734292E+02  0.12908816281E+01  0.16331006288E+02  0.00000000000E+00 0. -1.
</event>
<event>
 7    1  0.3223600E-013  0.5930200E+02  0.7816164E-02  0.1266605E+00
        -11   -1    0    0    0    0  0.00000000000E+00  0.00000000000E+00  0.45593999997E+02  0.45594000000E+02  0.51100000000E-03 0.  1.
         11   -1    0    0    0    0 -0.00000000000E+00 -0.00000000000E+00 -0.45593999997E+02  0.45594000000E+02  0.51100000000E-03 0. -1.
    9900012    2    1    2    0    0  0.90151163842E+01 -0.26649737662E+02 -0.15007860646E+02  0.59302004296E+02  0.50000109914E+02 0.  0.
         12    1    1    2    0    0 -0.90151163842E+01  0.26649737662E+02  0.15007860646E+02  0.31885995704E+02  0.00000000000E+00 0. -1.
         11    1    3    3    0    0  0.20772500354E+02  0.23337677972E+01 -0.53600271061E+01  0.21579460928E+02  0.51100000000E-03 0. -1.
        -11    1    3    3    0    0  0.48849274483E+01 -0.10164729108E+02 -0.19280793513E+01  0.11441229141E+02  0.51100000000E-03 0.  1.
         12    1    3    3    0    0 -0.16642311419E+02 -0.18818776352E+02 -0.77197541886E+01  0.26281314226E+02  0.00000000000E+00 0. -1.
</event>
<event>
 7    1  0.3223600E-013  0.5930184E+02  0.7816164E-02  0.1266605E+00
        -11   -1    0    0    0    0  0.00000000000E+00  0.00000000000E+00  0.45593999997E+02  0.45594000000E+02  0.51100000000E-03 0. -1.
         11   -1    0    0    0    0 -0.00000000000E+00 -0.00000000000E+00 -0.45593999997E+02  0.45594000000E+02  0.51100000000E-03 0.  1.
    9900012    2    1    2    0    0 -0.28834651116E+02  0.13517862777E+02 -0.15993021473E+01  0.59301835502E+02  0.49999802075E+02 0.  0.
         12    1    1    2    0    0  0.28834651116E+02 -0.13517862777E+02  0.15993021473E+01  0.31886164498E+02  0.00000000000E+00 0. -1.
         11    1    3    3    0    0  0.41960984235E+00  0.33581342795E+01 -0.15092572113E+02  0.15467348561E+02  0.51100000000E-03 0.  1.
        -11    1    3    3    0    0 -0.17838298666E+02 -0.83491423392E+01  0.88771390022E+01  0.21603626414E+02  0.51100000000E-03 0. -1.
        -12    1    3    3    0    0 -0.11415962292E+02  0.18508870836E+02  0.46161309637E+01  0.22230860527E+02  0.00000000000E+00 0.  1.
</event>
<event>
 7    1  0.3223600E-013  0.5930192E+02  0.7816164E-02  0.1266605E+00
        -11   -1    0    0    0    0  0.00000000000E+00  0.00000000000E+00  0.45593999997E+02  0.45594000000E+02  0.51100000000E-03 0. -1.
         11   -1    0    0    0    0 -0.00000000000E+00 -0.00000000000E+00 -0.45593999997E+02  0.45594000000E+02  0.51100000000E-03 0.  1.
    9900012    2    1    2    0    0 -0.25036937143E+02 -0.19577121885E+02 -0.25710340518E+01  0.59301919355E+02  0.49999955003E+02 0.  0.
         12    1    1    2    0    0  0.25036937143E+02  0.19577121885E+02  0.25710340518E+01  0.31886080645E+02  0.00000000000E+00 0. -1.
         11    1    3    3    0    0  0.19930660268E+00 -0.14163348835E+02  0.11858300362E+01  0.14214301478E+02  0.51100000000E-03 0. -1.
        -11    1    3    3    0    0 -0.24182227527E+02 -0.16051846294E+02 -0.12180850039E+02  0.31477214069E+02  0.51100000000E-03 0.  1.
        -12    1    3    3    0    0 -0.10540162184E+01  0.10638073244E+02  0.84239859510E+01  0.13610403809E+02  0.00000000000E+00 0.  1.
</event>
<event>
 7    1  0.3223600E-013  0.5930198E+02  0.7816164E-02  0.1266605E+00
        -11   -1    0    0    0    0  0.00000000000E+00  0.00000000000E+00  0.45593999997E+02  0.45594000000E+02  0.51100000000E-03 0.  1.
         11   -1    0    0    0    0 -0.00000000000E+00 -0.00000000000E+00 -0.45593999997E+02  0.45594000000E+02  0.51100000000E-03 0. -1.
    9900012    2    1    2    0    0 -0.23764921713E+02  0.79828674828E+01  0.19703308342E+02  0.59301983678E+02  0.50000072312E+02 0.  0.
         12    1    1    2    0    0  0.23764921713E+02 -0.79828674828E+01 -0.19703308342E+02  0.31886016322E+02  0.00000000000E+00 0. -1.
         11    1    3    3    0    0  0.36655025071E+01  0.41941878201E+01 -0.60566011181E+01  0.82285805255E+01  0.51100000000E-03 0. -1.
        -11    1    3    3    0    0 -0.51335980543E+01 -0.10785395798E+02 -0.25369816664E+01  0.12211259875E+02  0.51100000000E-03 0.  1.
        -12    1    3    3    0    0 -0.22296826166E+02  0.14574075461E+02  0.28296891127E+02  0.38862143277E+02  0.00000000000E+00 0.  1.
</event>
<event>
 7    1  0.3223600E-013  0.5930197E+02  0.7816164E-02  0.1266605E+00
        -11   -1    0    0    0    0  0.00000000000E+00  0.00000000000E+00  0.45593999997E+02  0.45594000000E+02  0.51100000000E-03 0. -1.
         11   -1    0    0    0    0 -0.00000000000E+00 -0.00000000000E+00 -0.45593999997E+02  0.45594000000E+02  0.51100000000E-03 0.  1.
    9900012    2    1    2    0    0 -0.17006676734E+02  0.60155604730E+01 -0.26292672868E+02  0.59301973783E+02  0.50000054266E+02 0.  0.
         12    1    1    2    0    0  0.17006676734E+02 -0.60155604730E+01  0.26292672868E+02  0.31886026217E+02  0.00000000000E+00 0. -1.
         11    1    3    3    0    0  0.39595595788E+00 -0.42981579691E+00  0.63375790481E+01  0.63644662928E+01  0.51100000000E-03 0. -1.
        -11    1    3    3    0    0 -0.28681613336E+02  0.46612890910E+01 -0.17287119289E+02  0.33811345036E+02  0.51100000000E-03 0.  1.
        -12    1    3    3    0    0  0.11278980644E+02  0.17840871789E+01 -0.15343132627E+02  0.19126162455E+02  0.00000000000E+00 0.  1.
</event>
<event>
 7    1  0.3223600E-013  0.5930194E+02  0.7816164E-02  0.1266605E+00
        -11   -1    0    0    0    0  0.00000000000E+00  0.00000000000E+00  0.45593999997E+02  0.45594000000E+02  0.51100000000E-03 0.  1.
         11   -1    0    0    0    0 -0.00000000000E+00 -0.00000000000E+00 -0.45593999997E+02  0.45594000000E+02  0.51100000000E-03 0. -1.
    9900012    2    1    2    0    0  0.33834730013E+01 -0.30608144420E+02  0.82712860941E+01  0.59301943987E+02  0.49999999926E+02 0.  0.
         12    1    1    2    0    0 -0.33834730013E+01  0.30608144420E+02 -0.82712860941E+01  0.31886056013E+02  0.00000000000E+00 0. -1.
         11    1    3    3    0    0 -0.69654959846E+01 -0.11655129591E+01  0.92288066437E+01  0.11620990797E+02  0.51100000000E-03 0. -1.
        -11    1    3    3    0    0 -0.31136629670E+01 -0.32392894866E+02  0.45114072272E+01  0.32853421896E+02  0.51100000000E-03 0.  1.
        -12    1    3    3    0    0  0.13462631953E+02  0.29502634044E+01 -0.54689277768E+01  0.14827531294E+02  0.00000000000E+00 0.  1.
</event>
<event>
 7    1  0.3223600E-013  0.5930191E+02  0.7816164E-02  0.1266605E+00
        -11   -1    0    0    0    0  0.00000000000E+00  0.00000000000E+00  0.45593999997E+02  0.45594000000E+02  0.51100000000E-03 0.  1.
         11   -1    0    0    0    0 -0.00000000000E+00 -0.00000000000E+00 -0.45593999997E+02  0.45594000000E+02  0.51100000000E-03 0. -1.
    9900012    2    1    2    0    0 -0.44096868542E+01 -0.73237660937E+01  0.30718719227E+02  0.59301912142E+02  0.49999941847E+02 0.  0.
         12    1    1    2    0    0  0.44096868542E+01  0.73237660937E+01 -0.30718719227E+02  0.31886087858E+02  0.00000000000E+00 0. -1.
         11    1    3    3    0    0  0.14953693694E+02  0.87297625071E+01  0.99691438188E+00  0.17344034913E+02  0.51100000000E-03 0.  1.
        -11    1    3    3    0    0 -0.22846588894E+01  0.29928320957E+01  0.21076005242E+01  0.43149380557E+01  0.51100000000E-03 0. -1.
        -12    1    3    3    0    0 -0.17078721659E+02 -0.19046360696E+02  0.27614204321E+02  0.37642939173E+02  0.00000000000E+00 0.  1.
</event>
<event>
 7    1  0.3223600E-013  0.5930194E+02  0.7816164E-02  0.1266605E+00
        -11   -1    0    0    0    0  0.00000000000E+00  0.00000000000E+00  0.45593999997E+02  0.45594000000E+02  0.51100000000E-03 0. -1.
         11   -1    0    0    0    0 -0.00000000000E+00 -0.00000000000E+00 -0.45593999997E+02  0.45594000000E+02  0.51100000000E-03 0.  1.
    9900012    2    1    2    0    0 -0.10279439035E+02  0.11013285733E+02 -0.28102697887E+02  0.59301937872E+02  0.49999988774E+02 0.  0.
         12    1    1    2    0    0  0.10279439035E+02 -0.11013285733E+02  0.28102697887E+02  0.31886062128E+02  0.00000000000E+00 0. -1.
         11    1    3    3    0    0  0.54664584596E+00  0.17064860999E+01  0.11973557853E+02  0.12106899042E+02  0.51100000000E-03 0. -1.
        -11    1    3    3    0    0 -0.10088713502E+02  0.76556464909E+01 -0.78119735396E+01  0.14880120771E+02  0.51100000000E-03 0.  1.
         12    1    3    3    0    0 -0.73737137835E+00  0.16511531423E+01 -0.32264282200E+02  0.32314918059E+02  0.00000000000E+00 0. -1.
</event>
<event>
 7    1  0.3223600E-013  0.5930198E+02  0.7816164E-02  0.1266605E+00
        -11   -1    0    0    0    0  0.00000000000E+00  0.00000000000E+00  0.45593999997E+02  0.45594000000E+02  0.51100000000E-03 0.  1.
         11   -1    0    0    0    0 -0.00000000000E+00 -0.00000000000E+00 -0.45593999997E+02  0.45594000000E+02  0.51100000000E-03 0. -1.
    9900012    2    1    2    0    0 -0.99175393680E+01 -0.10754821891E+02  0.28331859110E+02  0.59301983917E+02  0.50000072748E+02 0.  0.
         12    1    1    2    0    0  0.99175393680E+01  0.10754821891E+02 -0.28331859110E+02  0.31886016083E+02  0.00000000000E+00 0. -1.
         11    1    3    3    0    0  0.22040417748E+01 -0.16090693691E+02 -0.24584339224E+01  0.16425958761E+02  0.51100000000E-03 0. -1.
        -11    1    3    3    0    0 -0.13906042186E+02 -0.74054648869E+01  0.10792317188E+02  0.19096937713E+02  0.51100000000E-03 0.  1.
        -12    1    3    3    0    0  0.17844610434E+01  0.12741336686E+02  0.19997975844E+02  0.23779087443E+02  0.00000000000E+00 0.  1.
</event>
<event>
 7    1  0.3223600E-013  0.5930194E+02  0.7816164E-02  0.1266605E+00
        -11   -1    0    0    0    0  0.00000000000E+00  0.00000000000E+00  0.45593999997E+02  0.45594000000E+02  0.51100000000E-03 0.  1.
         11   -1    0    0    0    0 -0.00000000000E+00 -0.00000000000E+00 -0.45593999997E+02  0.45594000000E+02  0.51100000000E-03 0. -1.
    9900012    2    1    2    0    0  0.85484817928E+01 -0.22059054831E+02  0.21378556427E+02  0.59301935396E+02  0.49999984259E+02 0.  0.
         12    1    1    2    0    0 -0.85484817928E+01  0.22059054831E+02 -0.21378556427E+02  0.31886064604E+02  0.00000000000E+00 0. -1.
         11    1    3    3    0    0  0.78198571742E+01 -0.21628557457E+01  0.88415963428E+01  0.12000080723E+02  0.51100000000E-03 0. -1.
        -11    1    3    3    0    0  0.13386235405E+02 -0.20951311708E+02 -0.52838362285E+01  0.25417861558E+02  0.51100000000E-03 0.  1.
         12    1    3    3    0    0 -0.12657610787E+02  0.10551126231E+01  0.17820796313E+02  0.21883993116E+02  0.00000000000E+00 0. -1.
</event>
<event>
 7    1  0.3223600E-013  0.5930206E+02  0.7816164E-02  0.1266604E+00
        -11   -1    0    0    0    0  0.00000000000E+00  0.00000000000E+00  0.45593999997E+02  0.45594000000E+02  0.51100000000E-03 0.  1.
         11   -1    0    0    0    0 -0.00000000000E+00 -0.00000000000E+00 -0.45593999997E+02  0.45594000000E+02  0.51100000000E-03 0. -1.
    9900012    2    1    2    0    0 -0.25699493555E+02  0.10431891109E+02  0.15729749350E+02  0.59302057397E+02  0.50000206758E+02 0.  0.
         12    1    1    2    0    0  0.25699493555E+02 -0.10431891109E+02 -0.15729749350E+02  0.31885942603E+02  0.00000000000E+00 0. -1.
         11    1    3    3    0    0 -0.18777813776E+02  0.10608480127E+02  0.15926866934E-01  0.21567252832E+02  0.51100000000E-03 0. -1.
        -11    1    3    3    0    0 -0.15081777163E+02 -0.10052992461E+02  0.89705124930E+00  0.18147378902E+02  0.51100000000E-03 0.  1.
        -12    1    3    3    0    0  0.81600973839E+01  0.98764034428E+01  0.14816771234E+02  0.19587425662E+02  0.00000000000E+00 0.  1.
</event>
<event>
 7    1  0.3223600E-013  0.5930194E+02  0.7816164E-02  0.1266605E+00
        -11   -1    0    0    0    0  0.00000000000E+00  0.00000000000E+00  0.45593999997E+02  0.45594000000E+02  0.51100000000E-03 0.  1.
         11   -1    0    0    0    0 -0.00000000000E+00 -0.00000000000E+00 -0.45593999997E+02  0.45594000000E+02  0.51100000000E-03 0. -1.
    9900012    2    1    2    0    0  0.33923422113E+01 -0.27806493562E+02  0.15231926934E+02  0.59301942420E+02  0.49999997067E+02 0.  0.
         12    1    1    2    0    0 -0.33923422113E+01  0.27806493562E+02 -0.15231926934E+02  0.31886057580E+02  0.00000000000E+00 0. -1.
         11    1    3    3    0    0  0.73250294574E+01 -0.80473174442E+01  0.26906613465E+01  0.11209595592E+02  0.51100000000E-03 0. -1.
        -11    1    3    3    0    0  0.15450138027E+02 -0.34822922387E+01  0.16039512567E+02  0.22541053390E+02  0.51100000000E-03 0.  1.
         12    1    3    3    0    0 -0.19382825273E+02 -0.16276883879E+02 -0.34982469796E+01  0.25551293437E+02  0.00000000000E+00 0. -1.
</event>
<event>
 7    1  0.3223600E-013  0.5930192E+02  0.7816164E-02  0.1266605E+00
        -11   -1    0    0    0    0  0.00000000000E+00  0.00000000000E+00  0.45593999997E+02  0.45594000000E+02  0.51100000000E-03 0. -1.
         11   -1    0    0    0    0 -0.00000000000E+00 -0.00000000000E+00 -0.45593999997E+02  0.45594000000E+02  0.51100000000E-03 0.  1.
    9900012    2    1    2    0    0 -0.41310223036E+01 -0.17356839357E+02 -0.26427202693E+02  0.59301917457E+02  0.49999951542E+02 0.  0.
         12    1    1    2    0    0  0.41310223036E+01  0.17356839357E+02  0.26427202693E+02  0.31886082543E+02  0.00000000000E+00 0. -1.
         11    1    3    3    0    0 -0.11332624313E+02 -0.61500437750E+01 -0.16377871947E+02  0.20844330213E+02  0.51100000000E-03 0. -1.
        -11    1    3    3    0    0 -0.92270232442E+01 -0.16551834059E+02 -0.94387862207E+01  0.21170542134E+02  0.51100000000E-03 0.  1.
         12    1    3    3    0    0  0.16428625253E+02  0.53450384766E+01 -0.61054452478E+00  0.17287045110E+02  0.00000000000E+00 0. -1.
</event>
<event>
 7    1  0.3223600E-013  0.5930196E+02  0.7816164E-02  0.1266605E+00
        -11   -1    0    0    0    0  0.00000000000E+00  0.00000000000E+00  0.45593999997E+02  0.45594000000E+02  0.51100000000E-03 0.  1.
         11   -1    0    0    0    0 -0.00000000000E+00 -0.00000000000E+00 -0.45593999997E+02  0.45594000000E+02  0.51100000000E-03 0. -1.
    9900012    2    1    2    0    0  0.10382600051E+02 -0.29832119196E+02 -0.43549784681E+01  0.59301959842E+02  0.50000028841E+02 0.  0.
         12    1    1    2    0    0 -0.10382600051E+02  0.29832119196E+02  0.43549784681E+01  0.31886040158E+02  0.00000000000E+00 0. -1.
         11    1    3    3    0    0  0.22621152391E+01  0.49431647023E+01  0.17752630961E+01  0.57187063179E+01  0.51100000000E-03 0. -1.
        -11    1    3    3    0    0  0.16144186222E+02 -0.39997537272E+02 -0.78924494877E+01  0.43848928103E+02  0.51100000000E-03 0.  1.
         12    1    3    3    0    0 -0.80237014103E+01  0.52222533742E+01  0.17622079235E+01  0.97343254205E+01  0.00000000000E+00 0. -1.
</event>
<event>
 7    1  0.3223600E-013  0.5930176E+02  0.7816164E-02  0.1266605E+00
        -11   -1    0    0    0    0  0.00000000000E+00  0.00000000000E+00  0.45593999997E+02  0.45594000000E+02  0.51100000000E-03 0.  1.
         11   -1    0    0    0    0 -0.00000000000E+00 -0.00000000000E+00 -0.45593999997E+02  0.45594000000E+02  0.51100000000E-03 0. -1.
    9900012    2    1    2    0    0  0.50365329675E+01  0.16805056052E+02  0.26626226568E+02  0.59301756657E+02  0.49999658280E+02 0.  0.
         12    1    1    2    0    0 -0.50365329675E+01 -0.16805056052E+02 -0.26626226568E+02  0.31886243343E+02  0.00000000000E+00 0. -1.
         11    1    3    3    0    0  0.36926643274E+01  0.10711031053E+02  0.10622089964E+02  0.15530317174E+02  0.51100000000E-03 0.  1.
        -11    1    3    3    0    0  0.33306856524E+01  0.16192031558E+02 -0.74699249510E+01  0.18140428107E+02  0.51100000000E-03 0. -1.
         12    1    3    3    0    0 -0.19868170123E+01 -0.10098006558E+02  0.23474061555E+02  0.25631011376E+02  0.00000000000E+00 0. -1.
</event>
<event>
 7    1  0.3223600E-013  0.5930194E+02  0.7816164E-02  0.1266605E+00
        -11   -1    0    0    0    0  0.00000000000E+00  0.00000000000E+00  0.45593999997E+02  0.45594000000E+02  0.51100000000E-03 0.  1.
         11   -1    0    0    0    0 -0.00000000000E+00 -0.00000000000E+00 -0.45593999997E+02  0.45594000000E+02  0.51100000000E-03 0. -1.
    9900012    2    1    2    0    0 -0.38104941376E+01 -0.14068334072E+02  0.28359877992E+02  0.59301943974E+02  0.49999999903E+02 0.  0.
         12    1    1    2    0    0  0.38104941376E+01  0.14068334072E+02 -0.28359877992E+02  0.31886056026E+02  0.00000000000E+00 0. -1.
         11    1    3    3    0    0 -0.16534048649E+02 -0.14821773406E+02  0.24745873804E+02  0.33247827031E+02  0.51100000000E-03 0.  1.
        -11    1    3    3    0    0 -0.99010428331E+00 -0.86653523544E+01  0.35521695816E+01  0.94173534985E+01  0.51100000000E-03 0. -1.
         12    1    3    3    0    0  0.13713658795E+02  0.94187916889E+01  0.61834606144E-01  0.16636763445E+02  0.00000000000E+00 0. -1.
</event>
<event>
 7    1  0.3223600E-013  0.5930194E+02  0.7816164E-02  0.1266605E+00
        -11   -1    0    0    0    0  0.00000000000E+00  0.00000000000E+00  0.45593999997E+02  0.45594000000E+02  0.51100000000E-03 0. -1.
         11   -1    0    0    0    0 -0.00000000000E+00 -0.00000000000E+00 -0.45593999997E+02  0.45594000000E+02  0.51100000000E-03 0.  1.
    9900012    2    1    2    0    0  0.30468256635E+01 -0.23090980032E+02 -0.21777148860E+02  0.59301941637E+02  0.49999995640E+02 0.  0.
         12    1    1    2    0    0 -0.30468256635E+01  0.23090980032E+02  0.21777148860E+02  0.31886058363E+02  0.00000000000E+00 0. -1.
         11    1    3    3    0    0 -0.10463537843E+02 -0.28064586397E+02 -0.73873780265E+01  0.30849310985E+02  0.51100000000E-03 0. -1.
        -11    1    3    3    0    0  0.68007019897E+01 -0.70063268652E+01 -0.20185335479E+01  0.99705888312E+01  0.51100000000E-03 0.  1.
        -12    1    3    3    0    0  0.67096615173E+01  0.11979933231E+02 -0.12371237286E+02  0.18482041821E+02  0.00000000000E+00 0.  1.
</event>
<event>
 7    1  0.3223600E-013  0.5930189E+02  0.7816164E-02  0.1266605E+00
        -11   -1    0    0    0    0  0.00000000000E+00  0.00000000000E+00  0.45593999997E+02  0.45594000000E+02  0.51100000000E-03 0.  1.
         11   -1    0    0    0    0 -0.00000000000E+00 -0.00000000000E+00 -0.45593999997E+02  0.45594000000E+02  0.51100000000E-03 0. -1.
    9900012    2    1    2    0    0  0.17895951216E+02 -0.67198566955E+01  0.25520630711E+02  0.59301888042E+02  0.49999897896E+02 0.  0.
         12    1    1    2    0    0 -0.17895951216E+02  0.67198566955E+01 -0.25520630711E+02  0.31886111958E+02  0.00000000000E+00 0. -1.
         11    1    3    3    0    0  0.68285016487E-01  0.10734377088E+02  0.90335076068E+01  0.14029817328E+02  0.51100000000E-03 0. -1.
        -11    1    3    3    0    0  0.12280052561E+02 -0.24332164714E+01 -0.88275196329E+01  0.15318137499E+02  0.51100000000E-03 0.  1.
        -12    1    3    3    0    0  0.55476136379E+01 -0.15021017312E+02  0.25314642737E+02  0.29953933215E+02  0.00000000000E+00 0.  1.
</event>
<event>
 7    1  0.3223600E-013  0.5930193E+02  0.7816164E-02  0.1266605E+00
        -11   -1    0    0    0    0  0.00000000000E+00  0.00000000000E+00  0.45593999997E+02  0.45594000000E+02  0.51100000000E-03 0.  1.
         11   -1    0    0    0    0 -0.00000000000E+00 -0.00000000000E+00 -0.45593999997E+02  0.45594000000E+02  0.51100000000E-03 0. -1.
    9900012    2    1    2    0    0  0.21846606093E+02 -0.19410702189E+02  0.12754289682E+02  0.59301929961E+02  0.49999974346E+02 0.  0.
         12    1    1    2    0    0 -0.21846606093E+02  0.19410702189E+02 -0.12754289682E+02  0.31886070039E+02  0.00000000000E+00 0. -1.
         11    1    3    3    0    0  0.14700928500E+01 -0.18822627677E+01 -0.25500439859E+01  0.34938246530E+01  0.51100000000E-03 0. -1.
        -11    1    3    3    0    0  0.13349874444E+02 -0.19388601914E+02 -0.12788886039E+02  0.26789786080E+02  0.51100000000E-03 0.  1.
         12    1    3    3    0    0  0.70266387989E+01  0.18601624926E+01  0.28093219707E+02  0.29018319228E+02  0.00000000000E+00 0. -1.
</event>
<event>
 7    1  0.3223600E-013  0.5930194E+02  0.7816164E-02  0.1266605E+00
        -11   -1    0    0    0    0  0.00000000000E+00  0.00000000000E+00  0.45593999997E+02  0.45594000000E+02  0.51100000000E-03 0.  1.
         11   -1    0    0    0    0 -0.00000000000E+00 -0.00000000000E+00 -0.45593999997E+02  0.45594000000E+02  0.51100000000E-03 0. -1.
    9900012    2    1    2    0    0  0.17982434351E+02 -0.23151036268E+02 -0.12545218758E+02  0.59301938168E+02  0.49999989314E+02 0.  0.
         12    1    1    2    0    0 -0.17982434351E+02  0.23151036268E+02  0.12545218758E+02  0.31886061832E+02  0.00000000000E+00 0. -1.
         11    1    3    3    0    0  0.16144369574E+02 -0.21269944409E+02 -0.18492292878E+02  0.32481011380E+02  0.51100000000E-03 0. -1.
        -11    1    3    3    0    0  0.57163906817E+01 -0.10774202626E+02  0.10509223499E+02  0.16099824331E+02  0.51100000000E-03 0.  1.
        -12    1    3    3    0    0 -0.38783259055E+01  0.88931107674E+01 -0.45621493797E+01  0.10721102458E+02  0.00000000000E+00 0.  1.
</event>
<event>
 7    1  0.3223600E-013  0.5930186E+02  0.7816164E-02  0.1266605E+00
        -11   -1    0    0    0    0  0.00000000000E+00  0.00000000000E+00  0.45593999997E+02  0.45594000000E+02  0.51100000000E-03 0.  1.
         11   -1    0    0    0    0 -0.00000000000E+00 -0.00000000000E+00 -0.45593999997E+02  0.45594000000E+02  0.51100000000E-03 0. -1.
    9900012    2    1    2    0    0 -0.10392623464E+02  0.76320614425E+01  0.29162831835E+02  0.59301862808E+02  0.49999851875E+02 0.  0.
         12    1    1    2    0    0  0.10392623464E+02 -0.76320614425E+01 -0.29162831835E+02  0.31886137192E+02  0.00000000000E+00 0. -1.
         11    1    3    3    0    0  0.10386473614E+02 -0.11293516613E+01  0.14189191310E+02  0.17620653212E+02  0.51100000000E-03 0. -1.
        -11    1    3    3    0    0 -0.84359161899E+01  0.20218518015E+02  0.66458682337E+01  0.22893682917E+02  0.51100000000E-03 0.  1.
         12    1    3    3    0    0 -0.12343180889E+02 -0.11457104911E+02  0.83277722916E+01  0.18787526679E+02  0.00000000000E+00 0. -1.
</event>
<event>
 7    1  0.3223600E-013  0.5930195E+02  0.7816164E-02  0.1266605E+00
        -11   -1    0    0    0    0  0.00000000000E+00  0.00000000000E+00  0.45593999997E+02  0.45594000000E+02  0.51100000000E-03 0. -1.
         11   -1    0    0    0    0 -0.00000000000E+00 -0.00000000000E+00 -0.45593999997E+02  0.45594000000E+02  0.51100000000E-03 0.  1.
    9900012    2    1    2    0    0 -0.23304494593E+02  0.19252194041E+02 -0.10147613357E+02  0.59301945047E+02  0.50000001859E+02 0.  0.
         12    1    1    2    0    0  0.23304494593E+02 -0.19252194041E+02  0.10147613357E+02  0.31886054953E+02  0.00000000000E+00 0. -1.
         11    1    3    3    0    0 -0.16432396484E+02  0.14120966031E+02 -0.78570047140E+00  0.21680467277E+02  0.51100000000E-03 0. -1.
        -11    1    3    3    0    0 -0.11107510618E+02  0.90122255042E+01  0.99821188808E+01  0.17442468240E+02  0.51100000000E-03 0.  1.
         12    1    3    3    0    0  0.42354125089E+01 -0.38809974940E+01 -0.19344031766E+02  0.20179009531E+02  0.00000000000E+00 0. -1.
</event>
<event>
 7    1  0.3223600E-013  0.5930193E+02  0.7816164E-02  0.1266605E+00
        -11   -1    0    0    0    0  0.00000000000E+00  0.00000000000E+00  0.45593999997E+02  0.45594000000E+02  0.51100000000E-03 0. -1.
         11   -1    0    0    0    0 -0.00000000000E+00 -0.00000000000E+00 -0.45593999997E+02  0.45594000000E+02  0.51100000000E-03 0.  1.
    9900012    2    1    2    0    0 -0.19064471889E+02  0.24644237756E+02 -0.67770687034E+01  0.59301934027E+02  0.49999981762E+02 0.  0.
         12    1    1    2    0    0  0.19064471889E+02 -0.24644237756E+02  0.67770687034E+01  0.31886065973E+02  0.00000000000E+00 0. -1.
         11    1    3    3    0    0  0.10729493416E+02  0.13115203685E+02 -0.51359450649E+01  0.17706172050E+02  0.51100000000E-03 0. -1.
        -11    1    3    3    0    0 -0.36781217950E+01  0.34449232278E+01 -0.11482669656E+02  0.12539847633E+02  0.51100000000E-03 0.  1.
         12    1    3    3    0    0 -0.26115843510E+02  0.80841108431E+01  0.98415460170E+01  0.29055914344E+02  0.00000000000E+00 0. -1.
</event>
<event>
 7    1  0.3223600E-013  0.5930196E+02  0.7816164E-02  0.1266605E+00
        -11   -1    0    0    0    0  0.00000000000E+00  0.00000000000E+00  0.45593999997E+02  0.45594000000E+02  0.51100000000E-03 0. -1.
         11   -1    0    0    0    0 -0.00000000000E+00 -0.00000000000E+00 -0.45593999997E+02  0.45594000000E+02  0.51100000000E-03 0.  1.
    9900012    2    1    2    0    0  0.36886894069E+00  0.12262167859E+02 -0.29431664443E+02  0.59301957650E+02  0.50000024843E+02 0.  0.
         12    1    1    2    0    0 -0.36886894069E+00 -0.12262167859E+02  0.29431664443E+02  0.31886042350E+02  0.00000000000E+00 0. -1.
         11    1    3    3    0    0  0.12905745549E+02 -0.57920760830E+01 -0.17473751336E+02  0.22481957200E+02  0.51100000000E-03 0. -1.
        -11    1    3    3    0    0 -0.75252964529E+01  0.49679693647E+01 -0.19078080835E+02  0.21101752887E+02  0.51100000000E-03 0.  1.
         12    1    3    3    0    0 -0.50115801559E+01  0.13086274577E+02  0.71201677274E+01  0.15718247562E+02  0.00000000000E+00 0. -1.
</event>
<event>
 7    1  0.3223600E-013  0.5930203E+02  0.7816164E-02  0.1266604E+00
        -11   -1    0    0    0    0  0.00000000000E+00  0.00000000000E+00  0.45593999997E+02  0.45594000000E+02  0.51100000000E-03 0.  1.
         11   -1    0    0    0    0 -0.00000000000E+00 -0.00000000000E+00 -0.45593999997E+02  0.45594000000E+02  0.51100000000E-03 0. -1.
    9900012    2    1    2    0    0 -0.93308754691E+01 -0.36125802387E+01  0.30275388982E+02  0.59302028931E+02  0.50000154844E+02 0.  0.
         12    1    1    2    0    0  0.93308754691E+01  0.36125802387E+01 -0.30275388982E+02  0.31885971069E+02  0.00000000000E+00 0. -1.
         11    1    3    3    0    0 -0.23553765860E+01 -0.76319755822E+01  0.11867151160E+02  0.14304688989E+02  0.51100000000E-03 0. -1.
        -11    1    3    3    0    0 -0.15572587613E+02 -0.21003521750E+01  0.27099848184E+02  0.31326007344E+02  0.51100000000E-03 0.  1.
         12    1    3    3    0    0  0.85970887303E+01  0.61197475185E+01 -0.86916103628E+01  0.13671332599E+02  0.00000000000E+00 0. -1.
</event>
<event>
 7    1  0.3223600E-013  0.5930194E+02  0.7816164E-02  0.1266605E+00
        -11   -1    0    0    0    0  0.00000000000E+00  0.00000000000E+00  0.45593999997E+02  0.45594000000E+02  0.51100000000E-03 0.  1.
         11   -1    0    0    0    0 -0.00000000000E+00 -0.00000000000E+00 -0.45593999997E+02  0.45594000000E+02  0.51100000000E-03 0. -1.
    9900012    2    1    2    0    0 -0.29738501850E+02 -0.40265884064E+00  0.11496961087E+02  0.59301941280E+02  0.49999994989E+02 0.  0.
         12    1    1    2    0    0  0.29738501850E+02  0.40265884064E+00 -0.11496961087E+02  0.31886058720E+02  0.00000000000E+00 0. -1.
         11    1    3    3    0    0  0.68475392007E+01 -0.81444673964E+01  0.10333623998E+02  0.14832563078E+02  0.51100000000E-03 0.  1.
        -11    1    3    3    0    0 -0.12262541222E+02  0.60984007427E+01 -0.10678685397E+02  0.17366482974E+02  0.51100000000E-03 0. -1.
        -12    1    3    3    0    0 -0.24323499829E+02  0.16434078131E+01  0.11842022485E+02  0.27102895228E+02  0.00000000000E+00 0.  1.
</event>
<event>
 7    1  0.3223600E-013  0.5930195E+02  0.7816164E-02  0.1266605E+00
        -11   -1    0    0    0    0  0.00000000000E+00  0.00000000000E+00  0.45593999997E+02  0.45594000000E+02  0.51100000000E-03 0.  1.
         11   -1    0    0    0    0 -0.00000000000E+00 -0.00000000000E+00 -0.45593999997E+02  0.45594000000E+02  0.51100000000E-03 0. -1.
    9900012    2    1    2    0    0  0.28016427166E+02 -0.60095111029E+01  0.13988784009E+02  0.59301945166E+02  0.50000002076E+02 0.  0.
         12    1    1    2    0    0 -0.28016427166E+02  0.60095111029E+01 -0.13988784009E+02  0.31886054834E+02  0.00000000000E+00 0. -1.
         11    1    3    3    0    0 -0.13542881699E+01  0.79369151900E+01 -0.46335386894E+01  0.92896932257E+01  0.51100000000E-03 0. -1.
        -11    1    3    3    0    0  0.44324926049E+01 -0.17299098045E+02  0.17224199092E+02  0.24810860898E+02  0.51100000000E-03 0.  1.
         12    1    3    3    0    0  0.24938222731E+02  0.33526717520E+01  0.13981236056E+01  0.25201391042E+02  0.00000000000E+00 0. -1.
</event>
<event>
 7    1  0.3223600E-013  0.5930194E+02  0.7816164E-02  0.1266605E+00
        -11   -1    0    0    0    0  0.00000000000E+00  0.00000000000E+00  0.45593999997E+02  0.45594000000E+02  0.51100000000E-03 0.  1.
         11   -1    0    0    0    0 -0.00000000000E+00 -0.00000000000E+00 -0.45593999997E+02  0.45594000000E+02  0.51100000000E-03 0. -1.
    9900012    2    1    2    0    0  0.87645456532E+01 -0.14662671601E+02  0.26924147375E+02  0.59301938612E+02  0.49999990123E+02 0.  0.
         12    1    1    2    0    0 -0.87645456532E+01  0.14662671601E+02 -0.26924147375E+02  0.31886061388E+02  0.00000000000E+00 0. -1.
         11    1    3    3    0    0 -0.22427929463E+01  0.14954227251E+02  0.83422301378E+01  0.17269969218E+02  0.51100000000E-03 0. -1.
        -11    1    3    3    0    0 -0.45290144602E+01 -0.10795309621E+02  0.11977788234E+02  0.16748674366E+02  0.51100000000E-03 0.  1.
        -12    1    3    3    0    0  0.15536353060E+02 -0.18821589231E+02  0.66041290031E+01  0.25283295028E+02  0.00000000000E+00 0.  1.
</event>
<event>
 7    1  0.3223600E-013  0.5930193E+02  0.7816164E-02  0.1266605E+00
        -11   -1    0    0    0    0  0.00000000000E+00  0.00000000000E+00  0.45593999997E+02  0.45594000000E+02  0.51100000000E-03 0.  1.
         11   -1    0    0    0    0 -0.00000000000E+00 -0.00000000000E+00 -0.45593999997E+02  0.45594000000E+02  0.51100000000E-03 0. -1.
    9900012    2    1    2    0    0  0.12160217519E+02 -0.15536836972E+01  0.29435300696E+02  0.59301925450E+02  0.49999966119E+02 0.  0.
         12    1    1    2    0    0 -0.12160217519E+02  0.15536836972E+01 -0.29435300696E+02  0.31886074550E+02  0.00000000000E+00 0. -1.
         11    1    3    3    0    0  0.13897601485E+01  0.75813319421E+01 -0.34979095641E+01  0.84642423682E+01  0.51100000000E-03 0. -1.
        -11    1    3    3    0    0  0.21273904229E+02  0.28387900175E+01  0.25294148456E+02  0.33172755030E+02  0.51100000000E-03 0.  1.
        -12    1    3    3    0    0 -0.10503446859E+02 -0.11973805657E+02  0.76390618038E+01  0.17664928052E+02  0.00000000000E+00 0.  1.
</event>
<event>
 7    1  0.3223600E-013  0.5930193E+02  0.7816164E-02  0.1266605E+00
        -11   -1    0    0    0    0  0.00000000000E+00  0.00000000000E+00  0.45593999997E+02  0.45594000000E+02  0.51100000000E-03 0.  1.
         11   -1    0    0    0    0 -0.00000000000E+00 -0.00000000000E+00 -0.45593999997E+02  0.45594000000E+02  0.51100000000E-03 0. -1.
    9900012    2    1    2    0    0 -0.72357997293E+01 -0.12779808982E+02 -0.28302669351E+02  0.59301930821E+02  0.49999975913E+02 0.  0.
         12    1    1    2    0    0  0.72357997293E+01  0.12779808982E+02  0.28302669351E+02  0.31886069179E+02  0.00000000000E+00 0. -1.
         11    1    3    3    0    0  0.92059278368E+01  0.24481863760E+01 -0.63888891062E+01  0.11469988149E+02  0.51100000000E-03 0. -1.
        -11    1    3    3    0    0 -0.34035453131E+01  0.20801345370E+01  0.91357024445E+01  0.99685575590E+01  0.51100000000E-03 0.  1.
         12    1    3    3    0    0 -0.13038182253E+02 -0.17308129895E+02 -0.31049482689E+02  0.37863385113E+02  0.00000000000E+00 0. -1.
</event>
<event>
 7    1  0.3223600E-013  0.5930195E+02  0.7816164E-02  0.1266605E+00
        -11   -1    0    0    0    0  0.00000000000E+00  0.00000000000E+00  0.45593999997E+02  0.45594000000E+02  0.51100000000E-03 0.  1.
         11   -1    0    0    0    0 -0.00000000000E+00 -0.00000000000E+00 -0.45593999997E+02  0.45594000000E+02  0.51100000000E-03 0. -1.
    9900012    2    1    2    0    0  0.28970962410E+02 -0.60823792301E+01  0.11849406752E+02  0.59301945988E+02  0.50000003576E+02 0.  0.
         12    1    1    2    0    0 -0.28970962410E+02  0.60823792301E+01 -0.11849406752E+02  0.31886054012E+02  0.00000000000E+00 0. -1.
         11    1    3    3    0    0 -0.53375837804E+01 -0.14957812235E+01  0.15742198017E+02  0.16689636328E+02  0.51100000000E-03 0. -1.
        -11    1    3    3    0    0  0.14730904410E+02 -0.11959079809E+02  0.53908456210E+01  0.19725119807E+02  0.51100000000E-03 0.  1.
         12    1    3    3    0    0  0.19577641780E+02  0.73724818022E+01 -0.92836368859E+01  0.22887189854E+02  0.00000000000E+00 0. -1.
</event>
<event>
 7    1  0.3223600E-013  0.5930202E+02  0.7816164E-02  0.1266605E+00
        -11   -1    0    0    0    0  0.00000000000E+00  0.00000000000E+00  0.45593999997E+02  0.45594000000E+02  0.51100000000E-03 0.  1.
         11   -1    0    0    0    0 -0.00000000000E+00 -0.00000000000E+00 -0.45593999997E+02  0.45594000000E+02  0.51100000000E-03 0. -1.
    9900012    2    1    2    0    0  0.20267329932E+01  0.15773498333E+02  0.27637022303E+02  0.59302017216E+02  0.50000133478E+02 0.  0.
         12    1    1    2    0    0 -0.20267329932E+01 -0.15773498333E+02 -0.27637022303E+02  0.31885982784E+02  0.00000000000E+00 0. -1.
         11    1    3    3    0    0  0.29575835960E+00  0.13813919128E+02  0.96389028351E+01  0.16846966576E+02  0.51100000000E-03 0. -1.
        -11    1    3    3    0    0 -0.13840063071E+02  0.10706684774E+02  0.57957163510E+00  0.17507608294E+02  0.51100000000E-03 0.  1.
        -12    1    3    3    0    0  0.15571037704E+02 -0.87471055682E+01  0.17418547833E+02  0.24947442346E+02  0.00000000000E+00 0.  1.
</event>
<event>
 7    1  0.3223600E-013  0.5930196E+02  0.7816164E-02  0.1266605E+00
        -11   -1    0    0    0    0  0.00000000000E+00  0.00000000000E+00  0.45593999997E+02  0.45594000000E+02  0.51100000000E-03 0.  1.
         11   -1    0    0    0    0 -0.00000000000E+00 -0.00000000000E+00 -0.45593999997E+02  0.45594000000E+02  0.51100000000E-03 0. -1.
    9900012    2    1    2    0    0 -0.17894359680E+02  0.17257703722E+02  0.19967049684E+02  0.59301960434E+02  0.50000029921E+02 0.  0.
         12    1    1    2    0    0  0.17894359680E+02 -0.17257703722E+02 -0.19967049684E+02  0.31886039566E+02  0.00000000000E+00 0. -1.
         11    1    3    3    0    0  0.47003701042E+00 -0.27867546255E+01 -0.71022766060E+01  0.76439040668E+01  0.51100000000E-03 0. -1.
        -11    1    3    3    0    0  0.70780069234E+01 -0.30498650579E+01  0.11714617762E+02  0.14022557842E+02  0.51100000000E-03 0.  1.
         12    1    3    3    0    0 -0.25442403614E+02  0.23094323405E+02  0.15354708528E+02  0.37635498525E+02  0.00000000000E+00 0. -1.
</event>
<event>
 7    1  0.3223600E-013  0.5930195E+02  0.7816164E-02  0.1266605E+00
        -11   -1    0    0    0    0  0.00000000000E+00  0.00000000000E+00  0.45593999997E+02  0.45594000000E+02  0.51100000000E-03 0. -1.
         11   -1    0    0    0    0 -0.00000000000E+00 -0.00000000000E+00 -0.45593999997E+02  0.45594000000E+02  0.51100000000E-03 0.  1.
    9900012    2    1    2    0    0 -0.10822236102E+02  0.29945880129E+02 -0.16863496651E+01  0.59301948094E+02  0.50000007416E+02 0.  0.
         12    1    1    2    0    0  0.10822236102E+02 -0.29945880129E+02  0.16863496651E+01  0.31886051906E+02  0.00000000000E+00 0. -1.
         11    1    3    3    0    0  0.94784925708E+01  0.61295529846E+01  0.79918376150E+01  0.13830499265E+02  0.51100000000E-03 0. -1.
        -11    1    3    3    0    0  0.48015766113E+01  0.17988249053E+02 -0.50305665444E+01  0.19285716009E+02  0.51100000000E-03 0.  1.
         12    1    3    3    0    0 -0.25102305284E+02  0.58280780912E+01 -0.46476207356E+01  0.26185732820E+02  0.00000000000E+00 0. -1.
</event>
<event>
 7    1  0.3223600E-013  0.5930193E+02  0.7816164E-02  0.1266605E+00
        -11   -1    0    0    0    0  0.00000000000E+00  0.00000000000E+00  0.45593999997E+02  0.45594000000E+02  0.51100000000E-03 0. -1.
         11   -1    0    0    0    0 -0.00000000000E+00 -0.00000000000E+00 -0.45593999997E+02  0.45594000000E+02  0.51100000000E-03 0.  1.
    9900012    2    1    2    0    0  0.19724831333E+02 -0.25044791349E+02 -0.64085385774E+00  0.59301933475E+02  0.49999980753E+02 0.  0.
         12    1    1    2    0    0 -0.19724831333E+02  0.25044791349E+02  0.64085385774E+00  0.31886066525E+02  0.00000000000E+00 0. -1.
         11    1    3    3    0    0 -0.37635766600E+00 -0.66911750706E+01  0.16261982216E+02  0.17588790032E+02  0.51100000000E-03 0. -1.
        -11    1    3    3    0    0 -0.11565441741E+00 -0.17349861394E+02 -0.43226441647E+01  0.17880612942E+02  0.51100000000E-03 0.  1.
        -12    1    3    3    0    0  0.20216843416E+02 -0.10037548837E+01 -0.12580191910E+02  0.23832530500E+02  0.00000000000E+00 0.  1.
</event>
<event>
 7    1  0.3223600E-013  0.5930198E+02  0.7816164E-02  0.1266605E+00
        -11   -1    0    0    0    0  0.00000000000E+00  0.00000000000E+00  0.45593999997E+02  0.45594000000E+02  0.51100000000E-03 0.  1.
         11   -1    0    0    0    0 -0.00000000000E+00 -0.00000000000E+00 -0.45593999997E+02  0.45594000000E+02  0.51100000000E-03 0. -1.
    9900012    2    1    2    0    0  0.14645006152E+02 -0.76461503825E+01  0.27272306778E+02  0.59301975823E+02  0.50000057987E+02 0.  0.
         12    1    1    2    0    0 -0.14645006152E+02  0.76461503825E+01 -0.27272306778E+02  0.31886024177E+02  0.00000000000E+00 0. -1.
         11    1    3    3    0    0  0.77669482799E+01 -0.81812041516E+01  0.17532027649E+01  0.11416273786E+02  0.51100000000E-03 0. -1.
        -11    1    3    3    0    0  0.22022062100E+02 -0.50356709248E+01  0.21655258584E+02  0.31293440613E+02  0.51100000000E-03 0.  1.
         12    1    3    3    0    0 -0.15144004228E+02  0.55707246939E+01  0.38638454283E+01  0.16592261424E+02  0.00000000000E+00 0. -1.
</event>
<event>
 7    1  0.3672183E-013  0.5930193E+02  0.7816164E-02  0.1266605E+00
        -11   -1    0    0    0    0  0.00000000000E+00  0.00000000000E+00  0.45593999997E+02  0.45594000000E+02  0.51100000000E-03 0.  1.
         11   -1    0    0    0    0 -0.00000000000E+00 -0.00000000000E+00 -0.45593999997E+02  0.45594000000E+02  0.51100000000E-03 0. -1.
    9900012    2    1    2    0    0 -0.27308932957E+02 -0.31127142177E+01  0.16163377207E+02  0.59301928248E+02  0.49999971221E+02 0.  0.
         12    1    1    2    0    0  0.27308932957E+02  0.31127142177E+01 -0.16163377207E+02  0.31886071752E+02  0.00000000000E+00 0. -1.
         11    1    3    3    0    0  0.75828397978E+01  0.19941917029E+00 -0.85031623398E+01  0.11394867153E+02  0.51100000000E-03 0. -1.
        -11    1    3    3    0    0 -0.10822846015E+02 -0.11165489496E+02  0.11713850505E+02  0.19468344703E+02  0.51100000000E-03 0.  1.
        -12    1    3    3    0    0 -0.24068926740E+02  0.78533561082E+01  0.12952689042E+02  0.28438716392E+02  0.00000000000E+00 0.  1.
</event>
<event>
 7    1  0.3223600E-013  0.5930195E+02  0.7816164E-02  0.1266605E+00
        -11   -1    0    0    0    0  0.00000000000E+00  0.00000000000E+00  0.45593999997E+02  0.45594000000E+02  0.51100000000E-03 0. -1.
         11   -1    0    0    0    0 -0.00000000000E+00 -0.00000000000E+00 -0.45593999997E+02  0.45594000000E+02  0.51100000000E-03 0.  1.
    9900012    2    1    2    0    0 -0.11369646319E+02 -0.28738405260E+02 -0.78457421926E+01  0.59301945605E+02  0.50000002877E+02 0.  0.
         12    1    1    2    0    0  0.11369646319E+02  0.28738405260E+02  0.78457421926E+01  0.31886054395E+02  0.00000000000E+00 0. -1.
         11    1    3    3    0    0  0.35164497929E+01 -0.94178838547E+01  0.63618175518E+01  0.11896834800E+02  0.51100000000E-03 0. -1.
        -11    1    3    3    0    0 -0.86958443416E+01 -0.18683977922E+02  0.96452742829E+01  0.22753901996E+02  0.51100000000E-03 0.  1.
        -12    1    3    3    0    0 -0.61902517704E+01 -0.63654348374E+00 -0.23852834027E+02  0.24651208808E+02  0.00000000000E+00 0.  1.
</event>
<event>
 7    1  0.3223600E-013  0.5930195E+02  0.7816164E-02  0.1266605E+00
        -11   -1    0    0    0    0  0.00000000000E+00  0.00000000000E+00  0.45593999997E+02  0.45594000000E+02  0.51100000000E-03 0.  1.
         11   -1    0    0    0    0 -0.00000000000E+00 -0.00000000000E+00 -0.45593999997E+02  0.45594000000E+02  0.51100000000E-03 0. -1.
    9900012    2    1    2    0    0  0.16387955854E+02 -0.20444571371E+02  0.18170708957E+02  0.59301948824E+02  0.50000008747E+02 0.  0.
         12    1    1    2    0    0 -0.16387955854E+02  0.20444571371E+02 -0.18170708957E+02  0.31886051176E+02  0.00000000000E+00 0. -1.
         11    1    3    3    0    0 -0.31164025615E+01  0.13071599336E+02  0.50853920617E+01  0.14368016105E+02  0.51100000000E-03 0. -1.
        -11    1    3    3    0    0 -0.17540187440E+01 -0.13897618093E+02  0.53001366043E+01  0.14977043056E+02  0.51100000000E-03 0.  1.
        -12    1    3    3    0    0  0.21258377159E+02 -0.19618552614E+02  0.77851802912E+01  0.29956889663E+02  0.00000000000E+00 0.  1.
</event>
<event>
 7    1  0.4975920E-013  0.5930191E+02  0.7816164E-02  0.1266605E+00
        -11   -1    0    0    0    0  0.00000000000E+00  0.00000000000E+00  0.45593999997E+02  0.45594000000E+02  0.51100000000E-03 0. -1.
         11   -1    0    0    0    0 -0.00000000000E+00 -0.00000000000E+00 -0.45593999997E+02  0.45594000000E+02  0.51100000000E-03 0.  1.
    9900012    2    1    2    0    0  0.30385011676E+02  0.81056712545E+01 -0.52699152402E+01  0.59301908241E+02  0.49999934733E+02 0.  0.
         12    1    1    2    0    0 -0.30385011676E+02 -0.81056712545E+01  0.52699152402E+01  0.31886091759E+02  0.00000000000E+00 0. -1.
         11    1    3    3    0    0 -0.54091629984E+01  0.11457506974E+01  0.11167652795E+02  0.12461470950E+02  0.51100000000E-03 0. -1.
        -11    1    3    3    0    0  0.26537048774E+02  0.23106295921E+01  0.89014584091E+00  0.26652323100E+02  0.51100000000E-03 0.  1.
        -12    1    3    3    0    0  0.92571259001E+01  0.46492909650E+01 -0.17327713877E+02  0.20188114191E+02  0.00000000000E+00 0.  1.
</event>
<event>
 7    1  0.3223600E-013  0.5930197E+02  0.7816164E-02  0.1266605E+00
        -11   -1    0    0    0    0  0.00000000000E+00  0.00000000000E+00  0.45593999997E+02  0.45594000000E+02  0.51100000000E-03 0.  1.
         11   -1    0    0    0    0 -0.00000000000E+00 -0.00000000000E+00 -0.45593999997E+02  0.45594000000E+02  0.51100000000E-03 0. -1.
    9900012    2    1    2    0    0 -0.82123003163E+01 -0.29251189417E+02  0.96770382594E+01  0.59301968133E+02  0.50000043962E+02 0.  0.
         12    1    1    2    0    0  0.82123003163E+01  0.29251189417E+02 -0.96770382594E+01  0.31886031867E+02  0.00000000000E+00 0. -1.
         11    1    3    3    0    0  0.17244394222E+01 -0.14881934844E+02 -0.83365189207E+01  0.17144772497E+02  0.51100000000E-03 0. -1.
        -11    1    3    3    0    0  0.10248836804E+02 -0.13436963363E+02  0.13043998152E+02  0.21347986516E+02  0.51100000000E-03 0.  1.
         12    1    3    3    0    0 -0.20185576542E+02 -0.93229120998E+00  0.49695590280E+01  0.20809209119E+02  0.00000000000E+00 0. -1.
</event>
<event>
 7    1  0.3223600E-013  0.5930194E+02  0.7816164E-02  0.1266605E+00
        -11   -1    0    0    0    0  0.00000000000E+00  0.00000000000E+00  0.45593999997E+02  0.45594000000E+02  0.51100000000E-03 0.  1.
         11   -1    0    0    0    0 -0.00000000000E+00 -0.00000000000E+00 -0.45593999997E+02  0.45594000000E+02  0.51100000000E-03 0. -1.
    9900012    2    1    2    0    0 -0.14591001974E+02  0.28308024409E+02  0.15746116716E+01  0.59301937427E+02  0.49999987961E+02 0.  0.
         12    1    1    2    0    0  0.14591001974E+02 -0.28308024409E+02 -0.15746116716E+01  0.31886062573E+02  0.00000000000E+00 0. -1.
         11    1    3    3    0    0 -0.33460367289E+01 -0.46180503120E+01  0.73253640979E+01  0.92834966420E+01  0.51100000000E-03 0. -1.
        -11    1    3    3    0    0 -0.17529765638E+02  0.18689007672E+02  0.10341637505E+02  0.27631886610E+02  0.51100000000E-03 0.  1.
        -12    1    3    3    0    0  0.62848003923E+01  0.14237067048E+02 -0.16092389931E+02  0.22386554175E+02  0.00000000000E+00 0.  1.
</event>
<event>
 7    1  0.3223600E-013  0.5930190E+02  0.7816164E-02  0.1266605E+00
        -11   -1    0    0    0    0  0.00000000000E+00  0.00000000000E+00  0.45593999997E+02  0.45594000000E+02  0.51100000000E-03 0.  1.
         11   -1    0    0    0    0 -0.00000000000E+00 -0.00000000000E+00 -0.45593999997E+02  0.45594000000E+02  0.51100000000E-03 0. -1.
    9900012    2    1    2    0    0 -0.51086509507E+01  0.11851187917E+02  0.29157751663E+02  0.59301898770E+02  0.49999917461E+02 0.  0.
         12    1    1    2    0    0  0.51086509507E+01 -0.11851187917E+02 -0.29157751663E+02  0.31886101230E+02  0.00000000000E+00 0. -1.
         11    1    3    3    0    0 -0.15181863105E+02  0.60734499150E+00 -0.55230988684E+00  0.15204041625E+02  0.51100000000E-03 0. -1.
        -11    1    3    3    0    0 -0.13764853023E+01 -0.84879368438E+00 -0.51857469098E+01  0.54320469235E+01  0.51100000000E-03 0.  1.
        -12    1    3    3    0    0  0.11449697456E+02  0.12092636610E+02  0.34895808460E+02  0.38665810222E+02  0.00000000000E+00 0.  1.
</event>
<event>
 7    1  0.3223600E-013  0.5930195E+02  0.7816164E-02  0.1266605E+00
        -11   -1    0    0    0    0  0.00000000000E+00  0.00000000000E+00  0.45593999997E+02  0.45594000000E+02  0.51100000000E-03 0. -1.
         11   -1    0    0    0    0 -0.00000000000E+00 -0.00000000000E+00 -0.45593999997E+02  0.45594000000E+02  0.51100000000E-03 0.  1.
    9900012    2    1    2    0    0 -0.13658240611E+02  0.28792902361E+02  0.10684380350E+01  0.59301947833E+02  0.50000006939E+02 0.  0.
         12    1    1    2    0    0  0.13658240611E+02 -0.28792902361E+02 -0.10684380350E+01  0.31886052167E+02  0.00000000000E+00 0. -1.
         11    1    3    3    0    0 -0.61030366240E+01  0.20684367445E+01 -0.14681667840E+01  0.66091603527E+01  0.51100000000E-03 0. -1.
        -11    1    3    3    0    0 -0.55891934074E+01 -0.44276231269E+01 -0.15201497146E+02  0.16790724976E+02  0.51100000000E-03 0.  1.
         12    1    3    3    0    0 -0.19660105800E+01  0.31152088744E+02  0.17738101965E+02  0.35902062504E+02  0.00000000000E+00 0. -1.
</event>
<event>
 7    1  0.3223600E-013  0.5930188E+02  0.7816164E-02  0.1266605E+00
        -11   -1    0    0    0    0  0.00000000000E+00  0.00000000000E+00  0.45593999997E+02  0.45594000000E+02  0.51100000000E-03 0.  1.
         11   -1    0    0    0    0 -0.00000000000E+00 -0.00000000000E+00 -0.45593999997E+02  0.45594000000E+02  0.51100000000E-03 0. -1.
    9900012    2    1    2    0    0  0.41356095526E+00 -0.39357140723E+01  0.31639596160E+02  0.59301875696E+02  0.49999875380E+02 0.  0.
         12    1    1    2    0    0 -0.41356095526E+00  0.39357140723E+01 -0.31639596160E+02  0.31886124304E+02  0.00000000000E+00 0. -1.
         11    1    3    3    0    0 -0.86192013097E+00  0.89425346220E+01 -0.94865737066E+01  0.13065485553E+02  0.51100000000E-03 0. -1.
        -11    1    3    3    0    0  0.74534222763E+01 -0.62422912503E+01  0.10559853471E+02  0.14353752446E+02  0.51100000000E-03 0.  1.
        -12    1    3    3    0    0 -0.61779411901E+01 -0.66359574441E+01  0.30566316396E+02  0.31882637697E+02  0.00000000000E+00 0.  1.
</event>
<event>
 7    1  0.3223600E-013  0.5930189E+02  0.7816164E-02  0.1266605E+00
        -11   -1    0    0    0    0  0.00000000000E+00  0.00000000000E+00  0.45593999997E+02  0.45594000000E+02  0.51100000000E-03 0.  1.
         11   -1    0    0    0    0 -0.00000000000E+00 -0.00000000000E+00 -0.45593999997E+02  0.45594000000E+02  0.51100000000E-03 0. -1.
    9900012    2    1    2    0    0  0.10928157525E+02 -0.19761680840E+02  0.22511675688E+02  0.59301887055E+02  0.49999896095E+02 0.  0.
         12    1    1    2    0    0 -0.10928157525E+02  0.19761680840E+02 -0.22511675688E+02  0.31886112945E+02  0.00000000000E+00 0. -1.
         11    1    3    3    0    0 -0.56570279119E+01  0.13035763325E+02  0.71507005676E+01  0.15908035992E+02  0.51100000000E-03 0. -1.
        -11    1    3    3    0    0  0.37168698992E+01  0.13298473332E+01  0.27141604126E+01  0.47906453411E+01  0.51100000000E-03 0.  1.
        -12    1    3    3    0    0  0.12868315537E+02 -0.34127291498E+02  0.12646814707E+02  0.38603205722E+02  0.00000000000E+00 0.  1.
</event>
<event>
 7    1  0.3223600E-013  0.5930195E+02  0.7816164E-02  0.1266605E+00
        -11   -1    0    0    0    0  0.00000000000E+00  0.00000000000E+00  0.45593999997E+02  0.45594000000E+02  0.51100000000E-03 0.  1.
         11   -1    0    0    0    0 -0.00000000000E+00 -0.00000000000E+00 -0.45593999997E+02  0.45594000000E+02  0.51100000000E-03 0. -1.
    9900012    2    1    2    0    0 -0.16455652372E+02 -0.58115000486E+01  0.26686294262E+02  0.59301947732E+02  0.50000006756E+02 0.  0.
         12    1    1    2    0    0  0.16455652372E+02  0.58115000486E+01 -0.26686294262E+02  0.31886052268E+02  0.00000000000E+00 0. -1.
         11    1    3    3    0    0  0.43760114021E+01 -0.18381259059E+01  0.27440044948E+00  0.47543115701E+01  0.51100000000E-03 0. -1.
        -11    1    3    3    0    0  0.12926726298E+02  0.10680840929E+01  0.34888004873E+01  0.13431782663E+02  0.51100000000E-03 0.  1.
        -12    1    3    3    0    0 -0.33758390071E+02 -0.50414582356E+01  0.22923093325E+02  0.41115853499E+02  0.00000000000E+00 0.  1.
</event>
<event>
 7    1  0.3223600E-013  0.5930199E+02  0.7816164E-02  0.1266605E+00
        -11   -1    0    0    0    0  0.00000000000E+00  0.00000000000E+00  0.45593999997E+02  0.45594000000E+02  0.51100000000E-03 0.  1.
         11   -1    0    0    0    0 -0.00000000000E+00 -0.00000000000E+00 -0.45593999997E+02  0.45594000000E+02  0.51100000000E-03 0. -1.
    9900012    2    1    2    0    0 -0.48111184648E+01  0.13464998010E+02  0.28500252316E+02  0.59301993440E+02  0.50000090115E+02 0.  0.
         12    1    1    2    0    0  0.48111184648E+01 -0.13464998010E+02 -0.28500252316E+02  0.31886006560E+02  0.00000000000E+00 0. -1.
         11    1    3    3    0    0  0.22887372473E+01  0.25428661385E+02  0.14015523540E+02  0.29125419111E+02  0.51100000000E-03 0. -1.
        -11    1    3    3    0    0  0.76399760746E+01 -0.37623282463E+00  0.31868137594E+01  0.82865292950E+01  0.51100000000E-03 0.  1.
        -12    1    3    3    0    0 -0.14739831787E+02 -0.11587430550E+02  0.11297915017E+02  0.21890045034E+02  0.00000000000E+00 0.  1.
</event>
<event>
 7    1  0.3223600E-013  0.5930190E+02  0.7816164E-02  0.1266605E+00
        -11   -1    0    0    0    0  0.00000000000E+00  0.00000000000E+00  0.45593999997E+02  0.45594000000E+02  0.51100000000E-03 0.  1.
         11   -1    0    0    0    0 -0.00000000000E+00 -0.00000000000E+00 -0.45593999997E+02  0.45594000000E+02  0.51100000000E-03 0. -1.
    9900012    2    1    2    0    0 -0.18793147349E+02 -0.21200927388E+02 -0.14630853315E+02  0.59301896787E+02  0.49999913844E+02 0.  0.
         12    1    1    2    0    0  0.18793147349E+02  0.21200927388E+02  0.14630853315E+02  0.31886103213E+02  0.00000000000E+00 0. -1.
         11    1    3    3    0    0 -0.71482459455E+01  0.95530717211E+00 -0.11636555216E+02  0.13690122331E+02  0.51100000000E-03 0. -1.
        -11    1    3    3    0    0  0.37060825852E+01 -0.15150235815E+02 -0.17441329165E+02  0.23397962661E+02  0.51100000000E-03 0.  1.
        -12    1    3    3    0    0 -0.15350983988E+02 -0.70059987456E+01  0.14447031066E+02  0.22213811795E+02  0.00000000000E+00 0.  1.
</event>
<event>
 7    1  0.3223600E-013  0.5930196E+02  0.7816164E-02  0.1266605E+00
        -11   -1    0    0    0    0  0.00000000000E+00  0.00000000000E+00  0.45593999997E+02  0.45594000000E+02  0.51100000000E-03 0.  1.
         11   -1    0    0    0    0 -0.00000000000E+00 -0.00000000000E+00 -0.45593999997E+02  0.45594000000E+02  0.51100000000E-03 0. -1.
    9900012    2    1    2    0    0  0.24468099684E+02  0.12565586572E+02  0.16128778993E+02  0.59301962619E+02  0.50000033906E+02 0.  0.
         12    1    1    2    0    0 -0.24468099684E+02 -0.12565586572E+02 -0.16128778993E+02  0.31886037381E+02  0.00000000000E+00 0. -1.
         11    1    3    3    0    0  0.20499463510E+01  0.20458217306E+01 -0.57602077546E+01  0.64472986772E+01  0.51100000000E-03 0. -1.
        -11    1    3    3    0    0 -0.13734806475E+01  0.20116474235E+02  0.17761348802E+02  0.26870513510E+02  0.51100000000E-03 0.  1.
         12    1    3    3    0    0  0.23791633981E+02 -0.95967093941E+01  0.41276379460E+01  0.25984150432E+02  0.00000000000E+00 0. -1.
</event>
<event>
 7    1  0.3223600E-013  0.5930188E+02  0.7816164E-02  0.1266605E+00
        -11   -1    0    0    0    0  0.00000000000E+00  0.00000000000E+00  0.45593999997E+02  0.45594000000E+02  0.51100000000E-03 0.  1.
         11   -1    0    0    0    0 -0.00000000000E+00 -0.00000000000E+00 -0.45593999997E+02  0.45594000000E+02  0.51100000000E-03 0. -1.
    9900012    2    1    2    0    0  0.47562321489E+01  0.23758215725E+02  0.20728001223E+02  0.59301880867E+02  0.49999884809E+02 0.  0.
         12    1    1    2    0    0 -0.47562321489E+01 -0.23758215725E+02 -0.20728001223E+02  0.31886119133E+02  0.00000000000E+00 0. -1.
         11    1    3    3    0    0 -0.11931309146E+01 -0.38397430277E+01 -0.81030952916E+01  0.90458466416E+01  0.51100000000E-03 0. -1.
        -11    1    3    3    0    0  0.14204455709E+02  0.12058712298E+02  0.28090879781E+01  0.18843303315E+02  0.51100000000E-03 0.  1.
         12    1    3    3    0    0 -0.82550926456E+01  0.15539246455E+02  0.26022008536E+02  0.31412730910E+02  0.00000000000E+00 0. -1.
</event>
<event>
 7    1  0.3223600E-013  0.5930196E+02  0.7816164E-02  0.1266605E+00
        -11   -1    0    0    0    0  0.00000000000E+00  0.00000000000E+00  0.45593999997E+02  0.45594000000E+02  0.51100000000E-03 0. -1.
         11   -1    0    0    0    0 -0.00000000000E+00 -0.00000000000E+00 -0.45593999997E+02  0.45594000000E+02  0.51100000000E-03 0.  1.
    9900012    2    1    2    0    0 -0.35091599520E+01 -0.16883066249E+02  0.26821029390E+02  0.59301956861E+02  0.50000023404E+02 0.  0.
         12    1    1    2    0    0  0.35091599520E+01  0.16883066249E+02 -0.26821029390E+02  0.31886043139E+02  0.00000000000E+00 0. -1.
         11    1    3    3    0    0 -0.75739069029E+01 -0.38818493860E+00  0.13377858887E+02  0.15377966770E+02  0.51100000000E-03 0. -1.
        -11    1    3    3    0    0 -0.96152419445E+01  0.25281656060E+01 -0.75343656349E+01  0.12474420418E+02  0.51100000000E-03 0.  1.
         12    1    3    3    0    0  0.13679988895E+02 -0.19023046916E+02  0.20977536139E+02  0.31449569673E+02  0.00000000000E+00 0. -1.
</event>
<event>
 7    1  0.3223600E-013  0.5930195E+02  0.7816164E-02  0.1266605E+00
        -11   -1    0    0    0    0  0.00000000000E+00  0.00000000000E+00  0.45593999997E+02  0.45594000000E+02  0.51100000000E-03 0. -1.
         11   -1    0    0    0    0 -0.00000000000E+00 -0.00000000000E+00 -0.45593999997E+02  0.45594000000E+02  0.51100000000E-03 0.  1.
    9900012    2    1    2    0    0  0.16153338429E+02 -0.27274143678E+02 -0.34512527959E+01  0.59301946597E+02  0.50000004686E+02 0.  0.
         12    1    1    2    0    0 -0.16153338429E+02  0.27274143678E+02  0.34512527959E+01  0.31886053403E+02  0.00000000000E+00 0. -1.
         11    1    3    3    0    0 -0.59078272549E+01 -0.37988321303E+01  0.87431542191E+01  0.11215003094E+02  0.51100000000E-03 0.  1.
        -11    1    3    3    0    0  0.21958050987E+01  0.64776272775E+01  0.47740257213E+01  0.83410153475E+01  0.51100000000E-03 0. -1.
        -12    1    3    3    0    0  0.19865360585E+02 -0.29952938825E+02 -0.16968432736E+02  0.39745928156E+02  0.00000000000E+00 0.  1.
</event>
<event>
 7    1  0.3223600E-013  0.5930192E+02  0.7816164E-02  0.1266605E+00
        -11   -1    0    0    0    0  0.00000000000E+00  0.00000000000E+00  0.45593999997E+02  0.45594000000E+02  0.51100000000E-03 0.  1.
         11   -1    0    0    0    0 -0.00000000000E+00 -0.00000000000E+00 -0.45593999997E+02  0.45594000000E+02  0.51100000000E-03 0. -1.
    9900012    2    1    2    0    0 -0.87852981826E+01  0.21901033075E+02  0.21444944769E+02  0.59301915730E+02  0.49999948393E+02 0.  0.
         12    1    1    2    0    0  0.87852981826E+01 -0.21901033075E+02 -0.21444944769E+02  0.31886084270E+02  0.00000000000E+00 0. -1.
         11    1    3    3    0    0 -0.88269468400E+01 -0.14039982773E+02  0.41680913802E+01  0.17099973474E+02  0.51100000000E-03 0. -1.
        -11    1    3    3    0    0 -0.64234873352E+01  0.18393020110E+02  0.60982473231E+01  0.20414529115E+02  0.51100000000E-03 0.  1.
        -12    1    3    3    0    0  0.64651359926E+01  0.17547995738E+02  0.11178606066E+02  0.21787413142E+02  0.00000000000E+00 0.  1.
</event>
<event>
 7    1  0.3223600E-013  0.5930197E+02  0.7816164E-02  0.1266605E+00
        -11   -1    0    0    0    0  0.00000000000E+00  0.00000000000E+00  0.45593999997E+02  0.45594000000E+02  0.51100000000E-03 0. -1.
         11   -1    0    0    0    0 -0.00000000000E+00 -0.00000000000E+00 -0.45593999997E+02  0.45594000000E+02  0.51100000000E-03 0.  1.
    9900012    2    1    2    0    0 -0.10860962171E+02 -0.51918557959E+01 -0.29526307169E+02  0.59301973579E+02  0.50000053895E+02 0.  0.
         12    1    1    2    0    0  0.10860962171E+02  0.51918557959E+01  0.29526307169E+02  0.31886026421E+02  0.00000000000E+00 0. -1.
         11    1    3    3    0    0  0.18390726086E+01 -0.29303822228E+01 -0.14378885033E+02  0.14789241464E+02  0.51100000000E-03 0. -1.
        -11    1    3    3    0    0 -0.19593805392E+02  0.60354560055E+00 -0.25240470273E+02  0.31958767449E+02  0.51100000000E-03 0.  1.
         12    1    3    3    0    0  0.68937706121E+01 -0.28650191736E+01  0.10093048137E+02  0.12553964665E+02  0.00000000000E+00 0. -1.
</event>
<event>
 7    1  0.3223600E-013  0.5930198E+02  0.7816164E-02  0.1266605E+00
        -11   -1    0    0    0    0  0.00000000000E+00  0.00000000000E+00  0.45593999997E+02  0.45594000000E+02  0.51100000000E-03 0. -1.
         11   -1    0    0    0    0 -0.00000000000E+00 -0.00000000000E+00 -0.45593999997E+02  0.45594000000E+02  0.51100000000E-03 0.  1.
    9900012    2    1    2    0    0 -0.11270521255E+02 -0.27125784136E+01 -0.29704136592E+02  0.59301977016E+02  0.50000060163E+02 0.  0.
         12    1    1    2    0    0  0.11270521255E+02  0.27125784136E+01  0.29704136592E+02  0.31886022984E+02  0.00000000000E+00 0. -1.
         11    1    3    3    0    0 -0.22615832226E+01 -0.87933581199E+01  0.69556969396E+01  0.11437640748E+02  0.51100000000E-03 0. -1.
        -11    1    3    3    0    0 -0.10500579536E+02 -0.71520309011E+01 -0.52474942220E+01  0.13745905298E+02  0.51100000000E-03 0.  1.
        -12    1    3    3    0    0  0.14916415033E+01  0.13232810607E+02 -0.31412339310E+02  0.34118430970E+02  0.00000000000E+00 0.  1.
</event>
<event>
 7    1  0.3347812E-013  0.5930195E+02  0.7816164E-02  0.1266605E+00
        -11   -1    0    0    0    0  0.00000000000E+00  0.00000000000E+00  0.45593999997E+02  0.45594000000E+02  0.51100000000E-03 0. -1.
         11   -1    0    0    0    0 -0.00000000000E+00 -0.00000000000E+00 -0.45593999997E+02  0.45594000000E+02  0.51100000000E-03 0.  1.
    9900012    2    1    2    0    0  0.14960425780E+02 -0.19857725518E+02 -0.19964390503E+02  0.59301945204E+02  0.50000002146E+02 0.  0.
         12    1    1    2    0    0 -0.14960425780E+02  0.19857725518E+02  0.19964390503E+02  0.31886054796E+02  0.00000000000E+00 0. -1.
         11    1    3    3    0    0  0.29389852635E+01 -0.12575738652E+02  0.11050346856E+02  0.16996970404E+02  0.51100000000E-03 0. -1.
        -11    1    3    3    0    0 -0.76440617853E+00 -0.13103049224E+02 -0.21984189310E+02  0.25604272996E+02  0.51100000000E-03 0.  1.
        -12    1    3    3    0    0  0.12785846695E+02  0.58210623582E+01 -0.90305480489E+01  0.16700701804E+02  0.00000000000E+00 0.  1.
</event>
<event>
 7    1  0.3223600E-013  0.5930233E+02  0.7816164E-02  0.1266603E+00
        -11   -1    0    0    0    0  0.00000000000E+00  0.00000000000E+00  0.45593999997E+02  0.45594000000E+02  0.51100000000E-03 0.  1.
         11   -1    0    0    0    0 -0.00000000000E+00 -0.00000000000E+00 -0.45593999997E+02  0.45594000000E+02  0.51100000000E-03 0. -1.
    9900012    2    1    2    0    0  0.36503112739E+01 -0.22382075642E+02  0.22414595496E+02  0.59302326513E+02  0.50000697557E+02 0.  0.
         12    1    1    2    0    0 -0.36503112739E+01  0.22382075642E+02 -0.22414595496E+02  0.31885673487E+02  0.00000000000E+00 0. -1.
         11    1    3    3    0    0  0.35235218167E+01 -0.64462351918E+01  0.24641201239E+00  0.73505015667E+01  0.51100000000E-03 0. -1.
        -11    1    3    3    0    0  0.40343387201E+01 -0.12623072167E+02  0.35380612813E+02  0.37781021732E+02  0.51100000000E-03 0.  1.
         12    1    3    3    0    0 -0.39075492629E+01 -0.33127682831E+01 -0.13212429330E+02  0.14170803214E+02  0.00000000000E+00 0. -1.
</event>
<event>
 7    1  0.3223600E-013  0.5930184E+02  0.7816164E-02  0.1266605E+00
        -11   -1    0    0    0    0  0.00000000000E+00  0.00000000000E+00  0.45593999997E+02  0.45594000000E+02  0.51100000000E-03 0.  1.
         11   -1    0    0    0    0 -0.00000000000E+00 -0.00000000000E+00 -0.45593999997E+02  0.45594000000E+02  0.51100000000E-03 0. -1.
    9900012    2    1    2    0    0  0.18767054066E+02  0.12223499071E+02  0.22696051214E+02  0.59301843308E+02  0.49999816312E+02 0.  0.
         12    1    1    2    0    0 -0.18767054066E+02 -0.12223499071E+02 -0.22696051214E+02  0.31886156692E+02  0.00000000000E+00 0. -1.
         11    1    3    3    0    0  0.11693487093E+02 -0.36281865360E+01  0.41499836890E+01  0.12927634850E+02  0.51100000000E-03 0. -1.
        -11    1    3    3    0    0  0.35521358191E+01 -0.72982887255E+01  0.21302296028E+02  0.22796282669E+02  0.51100000000E-03 0.  1.
         12    1    3    3    0    0  0.35214311538E+01  0.23149974332E+02 -0.27562285028E+01  0.23577925789E+02  0.00000000000E+00 0. -1.
</event>
<event>
 7    1  0.3223600E-013  0.5930197E+02  0.7816164E-02  0.1266605E+00
        -11   -1    0    0    0    0  0.00000000000E+00  0.00000000000E+00  0.45593999997E+02  0.45594000000E+02  0.51100000000E-03 0.  1.
         11   -1    0    0    0    0 -0.00000000000E+00 -0.00000000000E+00 -0.45593999997E+02  0.45594000000E+02  0.51100000000E-03 0. -1.
    9900012    2    1    2    0    0  0.16407109403E+02  0.19970330275E+01  0.27267888688E+02  0.59301966484E+02  0.50000040955E+02 0.  0.
         12    1    1    2    0    0 -0.16407109403E+02 -0.19970330275E+01 -0.27267888688E+02  0.31886033516E+02  0.00000000000E+00 0. -1.
         11    1    3    3    0    0  0.11384484050E+02 -0.98111873052E+01 -0.51816648892E+01  0.15897028801E+02  0.51100000000E-03 0. -1.
        -11    1    3    3    0    0  0.10522506552E+02 -0.41259181030E+01  0.86125698235E+01  0.14209950864E+02  0.51100000000E-03 0.  1.
        -12    1    3    3    0    0 -0.54998811991E+01  0.15934138436E+02  0.23836983754E+02  0.29194986819E+02  0.00000000000E+00 0.  1.
</event>
<event>
 7    1  0.3223600E-013  0.5930195E+02  0.7816164E-02  0.1266605E+00
        -11   -1    0    0    0    0  0.00000000000E+00  0.00000000000E+00  0.45593999997E+02  0.45594000000E+02  0.51100000000E-03 0. -1.
         11   -1    0    0    0    0 -0.00000000000E+00 -0.00000000000E+00 -0.45593999997E+02  0.45594000000E+02  0.51100000000E-03 0.  1.
    9900012    2    1    2    0    0 -0.64072939679E+01 -0.26738903896E+02  0.16146131755E+02  0.59301953393E+02  0.50000017080E+02 0.  0.
         12    1    1    2    0    0  0.64072939679E+01  0.26738903896E+02 -0.16146131755E+02  0.31886046607E+02  0.00000000000E+00 0. -1.
         11    1    3    3    0    0  0.13045406552E+02 -0.25121065131E+02  0.28767265830E+01  0.28452172176E+02  0.51100000000E-03 0.  1.
        -11    1    3    3    0    0  0.62429483207E+00  0.58627497745E+00 -0.41136217730E+01  0.42018265956E+01  0.51100000000E-03 0. -1.
        -12    1    3    3    0    0 -0.20076995352E+02 -0.22041137424E+01  0.17383026945E+02  0.26647954622E+02  0.00000000000E+00 0.  1.
</event>
<event>
 7    1  0.3223600E-013  0.5930192E+02  0.7816164E-02  0.1266605E+00
        -11   -1    0    0    0    0  0.00000000000E+00  0.00000000000E+00  0.45593999997E+02  0.45594000000E+02  0.51100000000E-03 0.  1.
         11   -1    0    0    0    0 -0.00000000000E+00 -0.00000000000E+00 -0.45593999997E+02  0.45594000000E+02  0.51100000000E-03 0. -1.
    9900012    2    1    2    0    0 -0.29741326616E+02 -0.42736714052E+00  0.11488808505E+02  0.59301923533E+02  0.49999962623E+02 0.  0.
         12    1    1    2    0    0  0.29741326616E+02  0.42736714052E+00 -0.11488808505E+02  0.31886076467E+02  0.00000000000E+00 0. -1.
         11    1    3    3    0    0 -0.10857613554E+01  0.47173650862E+01 -0.60075424542E+01  0.77151135881E+01  0.51100000000E-03 0. -1.
        -11    1    3    3    0    0 -0.34913750920E+01  0.15140362747E+02  0.17587305501E+01  0.15636924811E+02  0.51100000000E-03 0.  1.
         12    1    3    3    0    0 -0.25164190169E+02 -0.20285094974E+02  0.15737620410E+02  0.35949885134E+02  0.00000000000E+00 0. -1.
</event>
<event>
 7    1  0.3223600E-013  0.5930201E+02  0.7816164E-02  0.1266605E+00
        -11   -1    0    0    0    0  0.00000000000E+00  0.00000000000E+00  0.45593999997E+02  0.45594000000E+02  0.51100000000E-03 0. -1.
         11   -1    0    0    0    0 -0.00000000000E+00 -0.00000000000E+00 -0.45593999997E+02  0.45594000000E+02  0.51100000000E-03 0.  1.
    9900012    2    1    2    0    0  0.10793632292E+02 -0.17415396607E+02 -0.24431895714E+02  0.59302014596E+02  0.50000128699E+02 0.  0.
         12    1    1    2    0    0 -0.10793632292E+02  0.17415396607E+02  0.24431895714E+02  0.31885985404E+02  0.00000000000E+00 0. -1.
         11    1    3    3    0    0 -0.57291825807E+01  0.70859642801E+01 -0.69163709281E+01  0.11439869313E+02  0.51100000000E-03 0. -1.
        -11    1    3    3    0    0 -0.81311858053E+01 -0.12376324573E+01  0.23739645980E+01  0.85605855450E+01  0.51100000000E-03 0.  1.
        -12    1    3    3    0    0  0.24654000678E+02 -0.23263728430E+02 -0.19889489384E+02  0.39301559738E+02  0.00000000000E+00 0.  1.
</event>
<event>
 7    1  0.3223600E-013  0.5930209E+02  0.7816164E-02  0.1266604E+00
        -11   -1    0    0    0    0  0.00000000000E+00  0.00000000000E+00  0.45593999997E+02  0.45594000000E+02  0.51100000000E-03 0.  1.
         11   -1    0    0    0    0 -0.00000000000E+00 -0.00000000000E+00 -0.45593999997E+02  0.45594000000E+02  0.51100000000E-03 0. -1.
    9900012    2    1    2    0    0 -0.12002407465E+02  0.26976966148E+02 -0.12037317109E+02  0.59302086328E+02  0.50000259521E+02 0.  0.
         12    1    1    2    0    0  0.12002407465E+02 -0.26976966148E+02  0.12037317109E+02  0.31885913672E+02  0.00000000000E+00 0. -1.
         11    1    3    3    0    0  0.61704626185E+01 -0.47767693921E+01  0.11074364096E+01  0.78815322377E+01  0.51100000000E-03 0. -1.
        -11    1    3    3    0    0 -0.17958333168E+02  0.19278094736E-01 -0.40771501106E+01  0.18415353787E+02  0.51100000000E-03 0.  1.
        -12    1    3    3    0    0 -0.21453691461E+00  0.31734457446E+02 -0.90676034084E+01  0.33005200303E+02  0.00000000000E+00 0.  1.
</event>
<event>
 7    1  0.3223600E-013  0.5930194E+02  0.7816164E-02  0.1266605E+00
        -11   -1    0    0    0    0  0.00000000000E+00  0.00000000000E+00  0.45593999997E+02  0.45594000000E+02  0.51100000000E-03 0.  1.
         11   -1    0    0    0    0 -0.00000000000E+00 -0.00000000000E+00 -0.45593999997E+02  0.45594000000E+02  0.51100000000E-03 0. -1.
    9900012    2    1    2    0    0 -0.12076244207E+02 -0.11722289019E+02  0.27082709797E+02  0.59301938720E+02  0.49999990320E+02 0.  0.
         12    1    1    2    0    0  0.12076244207E+02  0.11722289019E+02 -0.27082709797E+02  0.31886061280E+02  0.00000000000E+00 0. -1.
         11    1    3    3    0    0 -0.53927774881E+01  0.24376197045E+01 -0.16191025642E+01  0.61355955077E+01  0.51100000000E-03 0. -1.
        -11    1    3    3    0    0 -0.19804773176E+02 -0.13026402930E+02  0.31774389714E+02  0.39642503147E+02  0.51100000000E-03 0.  1.
         12    1    3    3    0    0  0.13121306457E+02 -0.11335057936E+01 -0.30725773523E+01  0.13523840065E+02  0.00000000000E+00 0. -1.
</event>
<event>
 7    1  0.3223600E-013  0.5930179E+02  0.7816164E-02  0.1266605E+00
        -11   -1    0    0    0    0  0.00000000000E+00  0.00000000000E+00  0.45593999997E+02  0.45594000000E+02  0.51100000000E-03 0. -1.
         11   -1    0    0    0    0 -0.00000000000E+00 -0.00000000000E+00 -0.45593999997E+02  0.45594000000E+02  0.51100000000E-03 0.  1.
    9900012    2    1    2    0    0 -0.81250007592E+00 -0.53263748601E+01 -0.31427691981E+02  0.59301792186E+02  0.49999723077E+02 0.  0.
         12    1    1    2    0    0  0.81250007592E+00  0.53263748601E+01  0.31427691981E+02  0.31886207814E+02  0.00000000000E+00 0. -1.
         11    1    3    3    0    0 -0.45871297974E+01 -0.96110049072E+01 -0.35468920167E+02  0.37033194207E+02  0.51100000000E-03 0. -1.
        -11    1    3    3    0    0  0.50154495938E+01  0.28900976334E+01 -0.81160591851E+01  0.99688422555E+01  0.51100000000E-03 0.  1.
         12    1    3    3    0    0 -0.12408198723E+01  0.13945324137E+01  0.12157287372E+02  0.12299755723E+02  0.00000000000E+00 0. -1.
</event>
<event>
 7    1  0.3223600E-013  0.5930195E+02  0.7816164E-02  0.1266605E+00
        -11   -1    0    0    0    0  0.00000000000E+00  0.00000000000E+00  0.45593999997E+02  0.45594000000E+02  0.51100000000E-03 0.  1.
         11   -1    0    0    0    0 -0.00000000000E+00 -0.00000000000E+00 -0.45593999997E+02  0.45594000000E+02  0.51100000000E-03 0. -1.
    9900012    2    1    2    0    0 -0.26154411036E+02  0.24722910252E+01  0.18070827845E+02  0.59301948840E+02  0.50000008777E+02 0.  0.
         12    1    1    2    0    0  0.26154411036E+02 -0.24722910252E+01 -0.18070827845E+02  0.31886051160E+02  0.00000000000E+00 0. -1.
         11    1    3    3    0    0 -0.21863919612E+02 -0.54122976484E+01  0.51439966653E+01  0.23103779963E+02  0.51100000000E-03 0. -1.
        -11    1    3    3    0    0 -0.15850360662E+02  0.11447027468E+01  0.15911412011E+02  0.22488159328E+02  0.51100000000E-03 0.  1.
         12    1    3    3    0    0  0.11559869238E+02  0.67398859268E+01 -0.29845808316E+01  0.13710009549E+02  0.00000000000E+00 0. -1.
</event>
<event>
 7    1  0.3223600E-013  0.5930188E+02  0.7816164E-02  0.1266605E+00
        -11   -1    0    0    0    0  0.00000000000E+00  0.00000000000E+00  0.45593999997E+02  0.45594000000E+02  0.51100000000E-03 0. -1.
         11   -1    0    0    0    0 -0.00000000000E+00 -0.00000000000E+00 -0.45593999997E+02  0.45594000000E+02  0.51100000000E-03 0.  1.
    9900012    2    1    2    0    0 -0.20448001485E+02 -0.40326427238E-01 -0.24466350889E+02  0.59301878932E+02  0.49999881280E+02 0.  0.
         12    1    1    2    0    0  0.20448001485E+02  0.40326427238E-01  0.24466350889E+02  0.31886121068E+02  0.00000000000E+00 0. -1.
         11    1    3    3    0    0  0.13939687500E+01  0.46120063549E+01 -0.15206336441E+02  0.15951376734E+02  0.51100000000E-03 0. -1.
        -11    1    3    3    0    0 -0.30242464864E+02  0.32446090940E+01 -0.93497615358E+01  0.31820625548E+02  0.51100000000E-03 0.  1.
         12    1    3    3    0    0  0.84004946291E+01 -0.78969418762E+01  0.89747087666E-01  0.11529876649E+02  0.00000000000E+00 0. -1.
</event>
<event>
 7    1  0.3223600E-013  0.5930199E+02  0.7816164E-02  0.1266605E+00
        -11   -1    0    0    0    0  0.00000000000E+00  0.00000000000E+00  0.45593999997E+02  0.45594000000E+02  0.51100000000E-03 0.  1.
         11   -1    0    0    0    0 -0.00000000000E+00 -0.00000000000E+00 -0.45593999997E+02  0.45594000000E+02  0.51100000000E-03 0. -1.
    9900012    2    1    2    0    0 -0.20597151819E+02  0.80347525713E+01  0.22976458606E+02  0.59301991124E+02  0.50000085893E+02 0.  0.
         12    1    1    2    0    0  0.20597151819E+02 -0.80347525713E+01 -0.22976458606E+02  0.31886008876E+02  0.00000000000E+00 0. -1.
         11    1    3    3    0    0  0.64123344213E+01  0.57193867164E+01  0.14027017283E+01  0.87061466530E+01  0.51100000000E-03 0. -1.
        -11    1    3    3    0    0  0.48536001168E+01  0.58689818421E+01  0.16451201920E+02  0.18128552806E+02  0.51100000000E-03 0.  1.
         12    1    3    3    0    0 -0.31863086357E+02 -0.35536159872E+01  0.51225549577E+01  0.32467291666E+02  0.00000000000E+00 0. -1.
</event>
<event>
 7    1  0.3223600E-013  0.5930181E+02  0.7816164E-02  0.1266605E+00
        -11   -1    0    0    0    0  0.00000000000E+00  0.00000000000E+00  0.45593999997E+02  0.45594000000E+02  0.51100000000E-03 0.  1.
         11   -1    0    0    0    0 -0.00000000000E+00 -0.00000000000E+00 -0.45593999997E+02  0.45594000000E+02  0.51100000000E-03 0. -1.
    9900012    2    1    2    0    0 -0.30512837047E+02  0.17399147581E+01  0.90922368376E+01  0.59301807083E+02  0.49999750244E+02 0.  0.
         12    1    1    2    0    0  0.30512837047E+02 -0.17399147581E+01 -0.90922368376E+01  0.31886192917E+02  0.00000000000E+00 0. -1.
         11    1    3    3    0    0  0.46242011529E+01 -0.27941921228E+01 -0.15810687730E+01  0.56294337768E+01  0.51100000000E-03 0. -1.
        -11    1    3    3    0    0 -0.44044182392E+00 -0.61100382127E+01  0.15868463327E+02  0.17009840816E+02  0.51100000000E-03 0.  1.
        -12    1    3    3    0    0 -0.34696596376E+02  0.10644145094E+02 -0.51951577165E+01  0.36662532490E+02  0.00000000000E+00 0.  1.
</event>
<event>
 7    1  0.3223600E-013  0.5930194E+02  0.7816164E-02  0.1266605E+00
        -11   -1    0    0    0    0  0.00000000000E+00  0.00000000000E+00  0.45593999997E+02  0.45594000000E+02  0.51100000000E-03 0.  1.
         11   -1    0    0    0    0 -0.00000000000E+00 -0.00000000000E+00 -0.45593999997E+02  0.45594000000E+02  0.51100000000E-03 0. -1.
    9900012    2    1    2    0    0 -0.89246033898E+01  0.30420127724E+02 -0.34187558838E+01  0.59301943358E+02  0.49999998779E+02 0.  0.
         12    1    1    2    0    0  0.89246033898E+01 -0.30420127724E+02  0.34187558838E+01  0.31886056642E+02  0.00000000000E+00 0. -1.
         11    1    3    3    0    0 -0.18545683755E+01  0.56367790572E+01  0.62333166386E+01  0.86062151134E+01  0.51100000000E-03 0. -1.
        -11    1    3    3    0    0 -0.15586093653E+02  0.29468849626E+02  0.43828550795E+01  0.33623635029E+02  0.51100000000E-03 0.  1.
         12    1    3    3    0    0  0.85160586383E+01 -0.46855009600E+01 -0.14034927602E+02  0.17072093216E+02  0.00000000000E+00 0. -1.
</event>
<event>
 7    1  0.3223600E-013  0.5930194E+02  0.7816164E-02  0.1266605E+00
        -11   -1    0    0    0    0  0.00000000000E+00  0.00000000000E+00  0.45593999997E+02  0.45594000000E+02  0.51100000000E-03 0.  1.
         11   -1    0    0    0    0 -0.00000000000E+00 -0.00000000000E+00 -0.45593999997E+02  0.45594000000E+02  0.51100000000E-03 0. -1.
    9900012    2    1    2    0    0  0.27940657145E+02  0.32392399081E+01  0.15018241948E+02  0.59301943673E+02  0.49999999353E+02 0.  0.
         12    1    1    2    0    0 -0.27940657145E+02 -0.32392399081E+01 -0.15018241948E+02  0.31886056327E+02  0.00000000000E+00 0. -1.
         11    1    3    3    0    0  0.13281860405E+02 -0.45488071549E+01 -0.90374537394E+01  0.16696557511E+02  0.51100000000E-03 0. -1.
        -11    1    3    3    0    0 -0.85028453074E+00 -0.38758803996E+01 -0.57818100531E+01  0.70124717758E+01  0.51100000000E-03 0.  1.
        -12    1    3    3    0    0  0.15509081271E+02  0.11663927463E+02  0.29837505741E+02  0.35592914387E+02  0.00000000000E+00 0.  1.
</event>
<event>
 7    1  0.3223600E-013  0.5930196E+02  0.7816164E-02  0.1266605E+00
        -11   -1    0    0    0    0  0.00000000000E+00  0.00000000000E+00  0.45593999997E+02  0.45594000000E+02  0.51100000000E-03 0. -1.
         11   -1    0    0    0    0 -0.00000000000E+00 -0.00000000000E+00 -0.45593999997E+02  0.45594000000E+02  0.51100000000E-03 0.  1.
    9900012    2    1    2    0    0 -0.23212349713E+02 -0.12196039983E+01 -0.21827024956E+02  0.59301958673E+02  0.50000026709E+02 0.  0.
         12    1    1    2    0    0  0.23212349713E+02  0.12196039983E+01  0.21827024956E+02  0.31886041327E+02  0.00000000000E+00 0. -1.
         11    1    3    3    0    0 -0.66847864715E+01  0.54343980027E+01 -0.21321269568E+02  0.22995990696E+02  0.51100000000E-03 0. -1.
        -11    1    3    3    0    0 -0.26318047875E+01 -0.15348053374E+01 -0.15165411468E+02  0.15468410685E+02  0.51100000000E-03 0.  1.
         12    1    3    3    0    0 -0.13895758454E+02 -0.51191966636E+01  0.14659656081E+02  0.20837557292E+02  0.00000000000E+00 0. -1.
</event>
<event>
 7    1  0.3223600E-013  0.5930196E+02  0.7816164E-02  0.1266605E+00
        -11   -1    0    0    0    0  0.00000000000E+00  0.00000000000E+00  0.45593999997E+02  0.45594000000E+02  0.51100000000E-03 0.  1.
         11   -1    0    0    0    0 -0.00000000000E+00 -0.00000000000E+00 -0.45593999997E+02  0.45594000000E+02  0.51100000000E-03 0. -1.
    9900012    2    1    2    0    0 -0.27686324458E+02  0.20504810589E+01 -0.15683837757E+02  0.59301956010E+02  0.50000021852E+02 0.  0.
         12    1    1    2    0    0  0.27686324458E+02 -0.20504810589E+01  0.15683837757E+02  0.31886043990E+02  0.00000000000E+00 0. -1.
         11    1    3    3    0    0 -0.12304723878E+02 -0.76149369477E+01  0.69673672796E+01  0.16060439020E+02  0.51100000000E-03 0.  1.
        -11    1    3    3    0    0  0.28583740846E+01  0.15994753889E+02 -0.16046315113E+02  0.22836082925E+02  0.51100000000E-03 0. -1.
         12    1    3    3    0    0 -0.18239974665E+02 -0.63293358828E+01 -0.66048899235E+01  0.20405434065E+02  0.00000000000E+00 0. -1.
</event>
<event>
 7    1  0.3223600E-013  0.5930194E+02  0.7816164E-02  0.1266605E+00
        -11   -1    0    0    0    0  0.00000000000E+00  0.00000000000E+00  0.45593999997E+02  0.45594000000E+02  0.51100000000E-03 0.  1.
         11   -1    0    0    0    0 -0.00000000000E+00 -0.00000000000E+00 -0.45593999997E+02  0.45594000000E+02  0.51100000000E-03 0. -1.
    9900012    2    1    2    0    0  0.56095821920E+00  0.73163735394E+01  0.31030261005E+02  0.59301935741E+02  0.49999984887E+02 0.  0.
         12    1    1    2    0    0 -0.56095821920E+00 -0.73163735394E+01 -0.31030261005E+02  0.31886064259E+02  0.00000000000E+00 0. -1.
         11    1    3    3    0    0  0.99416998319E+01 -0.71114637502E+00  0.31139488840E+02  0.32695731987E+02  0.51100000000E-03 0. -1.
        -11    1    3    3    0    0  0.63482094340E+01  0.56725012743E+01  0.50348192273E+01  0.98907248793E+01  0.51100000000E-03 0.  1.
         12    1    3    3    0    0 -0.15728951047E+02  0.23550186401E+01 -0.51440470617E+01  0.16715478874E+02  0.00000000000E+00 0. -1.
</event>
<event>
 7    1  0.3223600E-013  0.5930193E+02  0.7816164E-02  0.1266605E+00
        -11   -1    0    0    0    0  0.00000000000E+00  0.00000000000E+00  0.45593999997E+02  0.45594000000E+02  0.51100000000E-03 0.  1.
         11   -1    0    0    0    0 -0.00000000000E+00 -0.00000000000E+00 -0.45593999997E+02  0.45594000000E+02  0.51100000000E-03 0. -1.
    9900012    2    1    2    0    0 -0.22159235005E+02  0.17900918183E+02  0.14326431877E+02  0.59301933793E+02  0.49999981335E+02 0.  0.
         12    1    1    2    0    0  0.22159235005E+02 -0.17900918183E+02 -0.14326431877E+02  0.31886066207E+02  0.00000000000E+00 0. -1.
         11    1    3    3    0    0 -0.13661358787E+02  0.14175520232E+02 -0.59048710629E+01  0.20553481464E+02  0.51100000000E-03 0. -1.
        -11    1    3    3    0    0  0.12092156011E+00  0.17005587613E+02  0.12650200509E+02  0.21195098614E+02  0.51100000000E-03 0.  1.
         12    1    3    3    0    0 -0.86187977778E+01 -0.13280189661E+02  0.75811024313E+01  0.17553353715E+02  0.00000000000E+00 0. -1.
</event>
<event>
 7    1  0.3223600E-013  0.5930198E+02  0.7816164E-02  0.1266605E+00
        -11   -1    0    0    0    0  0.00000000000E+00  0.00000000000E+00  0.45593999997E+02  0.45594000000E+02  0.51100000000E-03 0.  1.
         11   -1    0    0    0    0 -0.00000000000E+00 -0.00000000000E+00 -0.45593999997E+02  0.45594000000E+02  0.51100000000E-03 0. -1.
    9900012    2    1    2    0    0 -0.45894562882E+00  0.26069018817E+02  0.18355220813E+02  0.59301976349E+02  0.50000058945E+02 0.  0.
         12    1    1    2    0    0  0.45894562882E+00 -0.26069018817E+02 -0.18355220813E+02  0.31886023651E+02  0.00000000000E+00 0. -1.
         11    1    3    3    0    0  0.27405813077E+01 -0.36712019289E+01  0.20627843819E+01  0.50242998691E+01  0.51100000000E-03 0. -1.
        -11    1    3    3    0    0  0.65045271208E+01 -0.24425898269E+01 -0.95978620184E+01  0.11848800518E+02  0.51100000000E-03 0.  1.
        -12    1    3    3    0    0 -0.97040540573E+01  0.32182810573E+02  0.25890298450E+02  0.42428875962E+02  0.00000000000E+00 0.  1.
</event>
<event>
 7    1  0.3223600E-013  0.5930195E+02  0.7816164E-02  0.1266605E+00
        -11   -1    0    0    0    0  0.00000000000E+00  0.00000000000E+00  0.45593999997E+02  0.45594000000E+02  0.51100000000E-03 0.  1.
         11   -1    0    0    0    0 -0.00000000000E+00 -0.00000000000E+00 -0.45593999997E+02  0.45594000000E+02  0.51100000000E-03 0. -1.
    9900012    2    1    2    0    0  0.17295614403E+02  0.23984488648E+02 -0.11930053201E+02  0.59301950658E+02  0.50000012092E+02 0.  0.
         12    1    1    2    0    0 -0.17295614403E+02 -0.23984488648E+02  0.11930053201E+02  0.31886049342E+02  0.00000000000E+00 0. -1.
         11    1    3    3    0    0  0.97257529857E+01  0.11841988357E+02 -0.27653713818E+02  0.31615674080E+02  0.51100000000E-03 0. -1.
        -11    1    3    3    0    0  0.48370026544E+01  0.26399921087E+00 -0.27375854028E+01  0.55642307968E+01  0.51100000000E-03 0.  1.
        -12    1    3    3    0    0  0.27328587628E+01  0.11878501080E+02  0.18461246020E+02  0.22122045781E+02  0.00000000000E+00 0.  1.
</event>
<event>
 7    1  0.3223600E-013  0.5930192E+02  0.7816164E-02  0.1266605E+00
        -11   -1    0    0    0    0  0.00000000000E+00  0.00000000000E+00  0.45593999997E+02  0.45594000000E+02  0.51100000000E-03 0.  1.
         11   -1    0    0    0    0 -0.00000000000E+00 -0.00000000000E+00 -0.45593999997E+02  0.45594000000E+02  0.51100000000E-03 0. -1.
    9900012    2    1    2    0    0  0.93630074935E+01  0.15549418556E+02  0.26215871248E+02  0.59301917895E+02  0.49999952340E+02 0.  0.
         12    1    1    2    0    0 -0.93630074935E+01 -0.15549418556E+02 -0.26215871248E+02  0.31886082105E+02  0.00000000000E+00 0. -1.
         11    1    3    3    0    0  0.99845416002E+01 -0.27580548672E+00  0.42198511023E+01  0.10843167582E+02  0.51100000000E-03 0. -1.
        -11    1    3    3    0    0  0.16877872166E+02  0.71354659652E+01 -0.91618452760E+00  0.18347120693E+02  0.51100000000E-03 0.  1.
        -12    1    3    3    0    0 -0.17499406273E+02  0.86897580772E+01  0.22912204673E+02  0.30111629619E+02  0.00000000000E+00 0.  1.
</event>
<event>
 7    1  0.3223600E-013  0.5930194E+02  0.7816164E-02  0.1266605E+00
        -11   -1    0    0    0    0  0.00000000000E+00  0.00000000000E+00  0.45593999997E+02  0.45594000000E+02  0.51100000000E-03 0. -1.
         11   -1    0    0    0    0 -0.00000000000E+00 -0.00000000000E+00 -0.45593999997E+02  0.45594000000E+02  0.51100000000E-03 0.  1.
    9900012    2    1    2    0    0 -0.17728813261E+02 -0.66491471215E+01 -0.25655381219E+02  0.59301944072E+02  0.50000000082E+02 0.  0.
         12    1    1    2    0    0  0.17728813261E+02  0.66491471215E+01  0.25655381219E+02  0.31886055928E+02  0.00000000000E+00 0. -1.
         11    1    3    3    0    0 -0.35352976736E+01 -0.81661989207E+00  0.91549968472E+01  0.98478000194E+01  0.51100000000E-03 0. -1.
        -11    1    3    3    0    0 -0.10837744004E+02  0.95199161540E+01 -0.41650742495E+01  0.15014437800E+02  0.51100000000E-03 0.  1.
        -12    1    3    3    0    0 -0.33557715834E+01 -0.15352443383E+02 -0.30645303817E+02  0.34439706253E+02  0.00000000000E+00 0.  1.
</event>
<event>
 7    1  0.3223600E-013  0.5930194E+02  0.7816164E-02  0.1266605E+00
        -11   -1    0    0    0    0  0.00000000000E+00  0.00000000000E+00  0.45593999997E+02  0.45594000000E+02  0.51100000000E-03 0. -1.
         11   -1    0    0    0    0 -0.00000000000E+00 -0.00000000000E+00 -0.45593999997E+02  0.45594000000E+02  0.51100000000E-03 0.  1.
    9900012    2    1    2    0    0 -0.19998938157E+02  0.16939347316E+01 -0.24776882754E+02  0.59301939389E+02  0.49999991541E+02 0.  0.
         12    1    1    2    0    0  0.19998938157E+02 -0.16939347316E+01  0.24776882754E+02  0.31886060611E+02  0.00000000000E+00 0. -1.
         11    1    3    3    0    0  0.21337931037E+01 -0.26279135509E+00  0.10230150054E+02  0.10453616728E+02  0.51100000000E-03 0. -1.
        -11    1    3    3    0    0 -0.59563459374E+01 -0.11291328686E+02 -0.97740606370E+01  0.16078072708E+02  0.51100000000E-03 0.  1.
        -12    1    3    3    0    0 -0.16176385323E+02  0.13248054773E+02 -0.25232972171E+02  0.32770249953E+02  0.00000000000E+00 0.  1.
</event>
<event>
 7    1  0.3223600E-013  0.5930196E+02  0.7816164E-02  0.1266605E+00
        -11   -1    0    0    0    0  0.00000000000E+00  0.00000000000E+00  0.45593999997E+02  0.45594000000E+02  0.51100000000E-03 0.  1.
         11   -1    0    0    0    0 -0.00000000000E+00 -0.00000000000E+00 -0.45593999997E+02  0.45594000000E+02  0.51100000000E-03 0. -1.
    9900012    2    1    2    0    0 -0.18678867377E+02 -0.79175604706E+01  0.24599429028E+02  0.59301956677E+02  0.50000023070E+02 0.  0.
         12    1    1    2    0    0  0.18678867377E+02  0.79175604706E+01 -0.24599429028E+02  0.31886043323E+02  0.00000000000E+00 0. -1.
         11    1    3    3    0    0 -0.20963123151E+02  0.18153410846E+01  0.13231922565E+02  0.24856221968E+02  0.51100000000E-03 0. -1.
        -11    1    3    3    0    0 -0.10788299821E+02 -0.54271671619E+01  0.15890056608E+02  0.19958343010E+02  0.51100000000E-03 0.  1.
         12    1    3    3    0    0  0.13072555595E+02 -0.43057343934E+01 -0.45225501446E+01  0.14487391700E+02  0.00000000000E+00 0. -1.
</event>
<event>
 7    1  0.3223600E-013  0.5930177E+02  0.7816164E-02  0.1266605E+00
        -11   -1    0    0    0    0  0.00000000000E+00  0.00000000000E+00  0.45593999997E+02  0.45594000000E+02  0.51100000000E-03 0.  1.
         11   -1    0    0    0    0 -0.00000000000E+00 -0.00000000000E+00 -0.45593999997E+02  0.45594000000E+02  0.51100000000E-03 0. -1.
    9900012    2    1    2    0    0 -0.71852865063E+01 -0.26210060485E+02  0.16677405153E+02  0.59301773264E+02  0.49999688568E+02 0.  0.
         12    1    1    2    0    0  0.71852865063E+01  0.26210060485E+02 -0.16677405153E+02  0.31886226736E+02  0.00000000000E+00 0. -1.
         11    1    3    3    0    0  0.11024426139E+02 -0.11505744446E+02  0.19946641622E+02  0.25530151571E+02  0.51100000000E-03 0. -1.
        -11    1    3    3    0    0  0.54483104331E+01 -0.63171493956E+01  0.64734334387E+00  0.83671689793E+01  0.51100000000E-03 0.  1.
         12    1    3    3    0    0 -0.23658023078E+02 -0.83871666434E+01 -0.39165798129E+01  0.25404452714E+02  0.00000000000E+00 0. -1.
</event>
<event>
 7    1  0.3223600E-013  0.5930194E+02  0.7816164E-02  0.1266605E+00
        -11   -1    0    0    0    0  0.00000000000E+00  0.00000000000E+00  0.45593999997E+02  0.45594000000E+02  0.51100000000E-03 0.  1.
         11   -1    0    0    0    0 -0.00000000000E+00 -0.00000000000E+00 -0.45593999997E+02  0.45594000000E+02  0.51100000000E-03 0. -1.
    9900012    2    1    2    0    0 -0.15103001381E+01 -0.25710188945E+02  0.18799630271E+02  0.59301938462E+02  0.49999989849E+02 0.  0.
         12    1    1    2    0    0  0.15103001381E+01  0.25710188945E+02 -0.18799630271E+02  0.31886061538E+02  0.00000000000E+00 0. -1.
         11    1    3    3    0    0  0.24662438610E+01 -0.15565288234E+01 -0.37089091237E+01  0.47181720941E+01  0.51100000000E-03 0. -1.
        -11    1    3    3    0    0  0.14392835520E+02  0.59895149720E+00 -0.28313861287E+01  0.14680912944E+02  0.51100000000E-03 0.  1.
        -12    1    3    3    0    0 -0.18369379519E+02 -0.24752611619E+02  0.25339925523E+02  0.39902853424E+02  0.00000000000E+00 0.  1.
</event>
<event>
 7    1  0.3223600E-013  0.5930195E+02  0.7816164E-02  0.1266605E+00
        -11   -1    0    0    0    0  0.00000000000E+00  0.00000000000E+00  0.45593999997E+02  0.45594000000E+02  0.51100000000E-03 0. -1.
         11   -1    0    0    0    0 -0.00000000000E+00 -0.00000000000E+00 -0.45593999997E+02  0.45594000000E+02  0.51100000000E-03 0.  1.
    9900012    2    1    2    0    0  0.28618164957E+02 -0.74369631469E+01 -0.11933662628E+02  0.59301951482E+02  0.50000013595E+02 0.  0.
         12    1    1    2    0    0 -0.28618164957E+02  0.74369631469E+01  0.11933662628E+02  0.31886048518E+02  0.00000000000E+00 0. -1.
         11    1    3    3    0    0 -0.81917620450E+01  0.14159081002E+01 -0.32301659112E+01  0.89187293503E+01  0.51100000000E-03 0. -1.
        -11    1    3    3    0    0  0.19146127601E+02  0.53163718414E+00 -0.19767856141E+02  0.27524988227E+02  0.51100000000E-03 0.  1.
        -12    1    3    3    0    0  0.17663799401E+02 -0.93845084312E+01  0.11064359424E+02  0.22858233905E+02  0.00000000000E+00 0.  1.
</event>
<event>
 7    1  0.3223600E-013  0.5930193E+02  0.7816164E-02  0.1266605E+00
        -11   -1    0    0    0    0  0.00000000000E+00  0.00000000000E+00  0.45593999997E+02  0.45594000000E+02  0.51100000000E-03 0. -1.
         11   -1    0    0    0    0 -0.00000000000E+00 -0.00000000000E+00 -0.45593999997E+02  0.45594000000E+02  0.51100000000E-03 0.  1.
    9900012    2    1    2    0    0  0.11016923106E+02 -0.22751532596E+02 -0.19434932000E+02  0.59301930752E+02  0.49999975789E+02 0.  0.
         12    1    1    2    0    0 -0.11016923106E+02  0.22751532596E+02  0.19434932000E+02  0.31886069248E+02  0.00000000000E+00 0. -1.
         11    1    3    3    0    0  0.12075591907E+02 -0.48351804327E+00  0.75330268626E+01  0.14240793643E+02  0.51100000000E-03 0. -1.
        -11    1    3    3    0    0 -0.51070788476E+01  0.34949493241E+01 -0.15274338468E+02  0.16480362285E+02  0.51100000000E-03 0.  1.
        -12    1    3    3    0    0  0.40484100467E+01 -0.25762963877E+02 -0.11693620395E+02  0.28580774825E+02  0.00000000000E+00 0.  1.
</event>
<event>
 7    1  0.3223600E-013  0.5930194E+02  0.7816164E-02  0.1266605E+00
        -11   -1    0    0    0    0  0.00000000000E+00  0.00000000000E+00  0.45593999997E+02  0.45594000000E+02  0.51100000000E-03 0. -1.
         11   -1    0    0    0    0 -0.00000000000E+00 -0.00000000000E+00 -0.45593999997E+02  0.45594000000E+02  0.51100000000E-03 0.  1.
    9900012    2    1    2    0    0 -0.26258546333E+02 -0.18193441171E+01 -0.17997209170E+02  0.59301940249E+02  0.49999993108E+02 0.  0.
         12    1    1    2    0    0  0.26258546333E+02  0.18193441171E+01  0.17997209170E+02  0.31886059751E+02  0.00000000000E+00 0. -1.
         11    1    3    3    0    0  0.57461064589E+01  0.60560538998E+01  0.20998528217E+01  0.86083047348E+01  0.51100000000E-03 0. -1.
        -11    1    3    3    0    0 -0.30516576727E+01  0.10495288312E+02 -0.10333291839E+02  0.15041296878E+02  0.51100000000E-03 0.  1.
        -12    1    3    3    0    0 -0.28952995119E+02 -0.18370686329E+02 -0.97637701530E+01  0.35652338635E+02  0.00000000000E+00 0.  1.
</event>
<event>
 7    1  0.3223600E-013  0.5930196E+02  0.7816164E-02  0.1266605E+00
        -11   -1    0    0    0    0  0.00000000000E+00  0.00000000000E+00  0.45593999997E+02  0.45594000000E+02  0.51100000000E-03 0.  1.
         11   -1    0    0    0    0 -0.00000000000E+00 -0.00000000000E+00 -0.45593999997E+02  0.45594000000E+02  0.51100000000E-03 0. -1.
    9900012    2    1    2    0    0 -0.31703267265E+02  0.33713527890E+01  0.50652160244E+00  0.59301956987E+02  0.50000023634E+02 0.  0.
         12    1    1    2    0    0  0.31703267265E+02 -0.33713527890E+01 -0.50652160244E+00  0.31886043013E+02  0.00000000000E+00 0. -1.
         11    1    3    3    0    0 -0.15541107879E+02 -0.62156552224E+01 -0.84674041112E+01  0.18757860662E+02  0.51100000000E-03 0. -1.
        -11    1    3    3    0    0  0.95977409232E+01 -0.18244177038E+01 -0.25613614816E+01  0.10099787309E+02  0.51100000000E-03 0.  1.
        -12    1    3    3    0    0 -0.25759900309E+02  0.11411425715E+02  0.11535287195E+02  0.30444309016E+02  0.00000000000E+00 0.  1.
</event>
<event>
 7    1  0.3223600E-013  0.5930196E+02  0.7816164E-02  0.1266605E+00
        -11   -1    0    0    0    0  0.00000000000E+00  0.00000000000E+00  0.45593999997E+02  0.45594000000E+02  0.51100000000E-03 0.  1.
         11   -1    0    0    0    0 -0.00000000000E+00 -0.00000000000E+00 -0.45593999997E+02  0.45594000000E+02  0.51100000000E-03 0. -1.
    9900012    2    1    2    0    0 -0.20923611067E+02  0.63316366515E+01  0.23212769019E+02  0.59301956528E+02  0.50000022798E+02 0.  0.
         12    1    1    2    0    0  0.20923611067E+02 -0.63316366515E+01 -0.23212769019E+02  0.31886043472E+02  0.00000000000E+00 0. -1.
         11    1    3    3    0    0  0.42791400984E+01  0.55643680302E+01 -0.88716680929E+01  0.11312812496E+02  0.51100000000E-03 0. -1.
        -11    1    3    3    0    0 -0.32630455841E+01  0.10796460991E+02  0.74923607529E+01  0.13540550444E+02  0.51100000000E-03 0.  1.
        -12    1    3    3    0    0 -0.21939705582E+02 -0.10029192369E+02  0.24592076359E+02  0.34448593588E+02  0.00000000000E+00 0.  1.
</event>
<event>
 7    1  0.3223600E-013  0.5930192E+02  0.7816164E-02  0.1266605E+00
        -11   -1    0    0    0    0  0.00000000000E+00  0.00000000000E+00  0.45593999997E+02  0.45594000000E+02  0.51100000000E-03 0. -1.
         11   -1    0    0    0    0 -0.00000000000E+00 -0.00000000000E+00 -0.45593999997E+02  0.45594000000E+02  0.51100000000E-03 0.  1.
    9900012    2    1    2    0    0  0.15419074113E+02 -0.15022524976E+02 -0.23522288517E+02  0.59301919020E+02  0.49999954392E+02 0.  0.
         12    1    1    2    0    0 -0.15419074113E+02  0.15022524976E+02  0.23522288517E+02  0.31886080980E+02  0.00000000000E+00 0. -1.
         11    1    3    3    0    0 -0.47690477711E+01 -0.99357432086E+00 -0.35574026549E+01  0.60320908883E+01  0.51100000000E-03 0. -1.
        -11    1    3    3    0    0  0.18851335036E+02  0.11666526115E+02 -0.15755083044E+02  0.27197487131E+02  0.51100000000E-03 0.  1.
         12    1    3    3    0    0  0.13367868485E+01 -0.25695476770E+02 -0.42098028183E+01  0.26072341001E+02  0.00000000000E+00 0. -1.
</event>
<event>
 7    1  0.3223600E-013  0.5930195E+02  0.7816164E-02  0.1266605E+00
        -11   -1    0    0    0    0  0.00000000000E+00  0.00000000000E+00  0.45593999997E+02  0.45594000000E+02  0.51100000000E-03 0. -1.
         11   -1    0    0    0    0 -0.00000000000E+00 -0.00000000000E+00 -0.45593999997E+02  0.45594000000E+02  0.51100000000E-03 0.  1.
    9900012    2    1    2    0    0  0.14154644974E+02  0.22022902333E+02 -0.18203248381E+02  0.59301945789E+02  0.50000003213E+02 0.  0.
         12    1    1    2    0    0 -0.14154644974E+02 -0.22022902333E+02  0.18203248381E+02  0.31886054211E+02  0.00000000000E+00 0. -1.
         11    1    3    3    0    0 -0.98820259374E+01  0.17140501133E+01 -0.11666814615E+02  0.15385284136E+02  0.51100000000E-03 0. -1.
        -11    1    3    3    0    0  0.19191671408E+02  0.12483305915E+02 -0.18065991422E+02  0.29163902762E+02  0.51100000000E-03 0.  1.
        -12    1    3    3    0    0  0.48449995033E+01  0.78255463043E+01  0.11529557656E+02  0.14752758891E+02  0.00000000000E+00 0.  1.
</event>
<event>
 7    1  0.3223600E-013  0.5930193E+02  0.7816164E-02  0.1266605E+00
        -11   -1    0    0    0    0  0.00000000000E+00  0.00000000000E+00  0.45593999997E+02  0.45594000000E+02  0.51100000000E-03 0.  1.
         11   -1    0    0    0    0 -0.00000000000E+00 -0.00000000000E+00 -0.45593999997E+02  0.45594000000E+02  0.51100000000E-03 0. -1.
    9900012    2    1    2    0    0 -0.20158339899E+02 -0.18512297658E+02  0.16360243641E+02  0.59301930878E+02  0.49999976018E+02 0.  0.
         12    1    1    2    0    0  0.20158339899E+02  0.18512297658E+02 -0.16360243641E+02  0.31886069122E+02  0.00000000000E+00 0. -1.
         11    1    3    3    0    0  0.50876807144E+01  0.42825401747E+01 -0.36427262986E+01  0.75824864356E+01  0.51100000000E-03 0. -1.
        -11    1    3    3    0    0  0.30524853001E+01  0.34820931172E+01  0.11188837493E+02  0.12109199961E+02  0.51100000000E-03 0.  1.
        -12    1    3    3    0    0 -0.28298505914E+02 -0.26276930950E+02  0.88141324465E+01  0.39610244481E+02  0.00000000000E+00 0.  1.
</event>
<event>
 7    1  0.3223600E-013  0.5930192E+02  0.7816164E-02  0.1266605E+00
        -11   -1    0    0    0    0  0.00000000000E+00  0.00000000000E+00  0.45593999997E+02  0.45594000000E+02  0.51100000000E-03 0.  1.
         11   -1    0    0    0    0 -0.00000000000E+00 -0.00000000000E+00 -0.45593999997E+02  0.45594000000E+02  0.51100000000E-03 0. -1.
    9900012    2    1    2    0    0  0.22032403261E+02  0.93115096555E+01  0.21085334505E+02  0.59301916253E+02  0.49999949346E+02 0.  0.
         12    1    1    2    0    0 -0.22032403261E+02 -0.93115096555E+01 -0.21085334505E+02  0.31886083747E+02  0.00000000000E+00 0. -1.
         11    1    3    3    0    0 -0.84534627750E+01  0.44963272395E+01  0.91534883409E+01  0.13246295354E+02  0.51100000000E-03 0. -1.
        -11    1    3    3    0    0  0.95605219285E+01  0.15665518138E+02  0.12951735701E+02  0.22462401831E+02  0.51100000000E-03 0.  1.
        -12    1    3    3    0    0  0.20925344108E+02 -0.10850335722E+02 -0.10198895373E+01  0.23593219068E+02  0.00000000000E+00 0.  1.
</event>
<event>
 7    1  0.3223600E-013  0.5930195E+02  0.7816164E-02  0.1266605E+00
        -11   -1    0    0    0    0  0.00000000000E+00  0.00000000000E+00  0.45593999997E+02  0.45594000000E+02  0.51100000000E-03 0.  1.
         11   -1    0    0    0    0 -0.00000000000E+00 -0.00000000000E+00 -0.45593999997E+02  0.45594000000E+02  0.51100000000E-03 0. -1.
    9900012    2    1    2    0    0 -0.55242869323E+01 -0.15229231164E+02  0.27464027159E+02  0.59301952648E+02  0.50000015721E+02 0.  0.
         12    1    1    2    0    0  0.55242869323E+01  0.15229231164E+02 -0.27464027159E+02  0.31886047352E+02  0.00000000000E+00 0. -1.
         11    1    3    3    0    0  0.13440792693E+02 -0.82393515016E+01  0.13123287093E+02  0.20512495845E+02  0.51100000000E-03 0. -1.
        -11    1    3    3    0    0  0.30774171918E+01  0.11885095588E+01  0.14911167816E+02  0.15271737866E+02  0.51100000000E-03 0.  1.
         12    1    3    3    0    0 -0.22042496818E+02 -0.81783892208E+01 -0.57042774971E+00  0.23517718937E+02  0.00000000000E+00 0. -1.
</event>
<event>
 7    1  0.3223600E-013  0.5930193E+02  0.7816164E-02  0.1266605E+00
        -11   -1    0    0    0    0  0.00000000000E+00  0.00000000000E+00  0.45593999997E+02  0.45594000000E+02  0.51100000000E-03 0.  1.
         11   -1    0    0    0    0 -0.00000000000E+00 -0.00000000000E+00 -0.45593999997E+02  0.45594000000E+02  0.51100000000E-03 0. -1.
    9900012    2    1    2    0    0  0.52162729183E+01  0.17563623526E+01  0.31407439460E+02  0.59301928350E+02  0.49999971407E+02 0.  0.
         12    1    1    2    0    0 -0.52162729183E+01 -0.17563623526E+01 -0.31407439460E+02  0.31886071650E+02  0.00000000000E+00 0. -1.
         11    1    3    3    0    0  0.68663549397E-02 -0.66397241426E+01  0.82732262805E+00  0.66910721733E+01  0.51100000000E-03 0. -1.
        -11    1    3    3    0    0 -0.16286981805E+02 -0.53758504600E+01  0.10298959685E+02  0.20005852027E+02  0.51100000000E-03 0.  1.
        -12    1    3    3    0    0  0.21496388368E+02  0.13771936955E+02  0.20281157147E+02  0.32605004149E+02  0.00000000000E+00 0.  1.
</event>
<event>
 7    1  0.3223600E-013  0.5930195E+02  0.7816164E-02  0.1266605E+00
        -11   -1    0    0    0    0  0.00000000000E+00  0.00000000000E+00  0.45593999997E+02  0.45594000000E+02  0.51100000000E-03 0. -1.
         11   -1    0    0    0    0 -0.00000000000E+00 -0.00000000000E+00 -0.45593999997E+02  0.45594000000E+02  0.51100000000E-03 0.  1.
    9900012    2    1    2    0    0  0.55946288858E+01  0.29460037571E+02 -0.10840953402E+02  0.59301953573E+02  0.50000017409E+02 0.  0.
         12    1    1    2    0    0 -0.55946288858E+01 -0.29460037571E+02  0.10840953402E+02  0.31886046427E+02  0.00000000000E+00 0. -1.
         11    1    3    3    0    0 -0.11246240671E+02 -0.94009322184E+01 -0.53568758470E+01  0.15606139013E+02  0.51100000000E-03 0. -1.
        -11    1    3    3    0    0  0.16612879965E+01  0.63176962002E+01 -0.41946855287E+01  0.77632821687E+01  0.51100000000E-03 0.  1.
        -12    1    3    3    0    0  0.15179581560E+02  0.32543273590E+02 -0.12893920259E+01  0.35932532391E+02  0.00000000000E+00 0.  1.
</event>
<event>
 7    1  0.3223600E-013  0.5930194E+02  0.7816164E-02  0.1266605E+00
        -11   -1    0    0    0    0  0.00000000000E+00  0.00000000000E+00  0.45593999997E+02  0.45594000000E+02  0.51100000000E-03 0. -1.
         11   -1    0    0    0    0 -0.00000000000E+00 -0.00000000000E+00 -0.45593999997E+02  0.45594000000E+02  0.51100000000E-03 0.  1.
    9900012    2    1    2    0    0  0.30982567129E+02 -0.10944889286E+01  0.74567911758E+01  0.59301935543E+02  0.49999984526E+02 0.  0.
         12    1    1    2    0    0 -0.30982567129E+02  0.10944889286E+01 -0.74567911758E+01  0.31886064457E+02  0.00000000000E+00 0. -1.
         11    1    3    3    0    0 -0.39193454789E+01 -0.75640941055E+00  0.88691548209E+01  0.97260131441E+01  0.51100000000E-03 0. -1.
        -11    1    3    3    0    0  0.58701586448E+01  0.11691090431E+02  0.96546482535E+01  0.16258923431E+02  0.51100000000E-03 0.  1.
        -12    1    3    3    0    0  0.29031753963E+02 -0.12029169949E+02 -0.11067011899E+02  0.33316998968E+02  0.00000000000E+00 0.  1.
</event>
<event>
 7    1  0.3223600E-013  0.5930194E+02  0.7816164E-02  0.1266605E+00
        -11   -1    0    0    0    0  0.00000000000E+00  0.00000000000E+00  0.45593999997E+02  0.45594000000E+02  0.51100000000E-03 0.  1.
         11   -1    0    0    0    0 -0.00000000000E+00 -0.00000000000E+00 -0.45593999997E+02  0.45594000000E+02  0.51100000000E-03 0. -1.
    9900012    2    1    2    0    0  0.23825658427E+02  0.19297673768E+02 -0.87555002130E+01  0.59301937272E+02  0.49999987678E+02 0.  0.
         12    1    1    2    0    0 -0.23825658427E+02 -0.19297673768E+02  0.87555002130E+01  0.31886062728E+02  0.00000000000E+00 0. -1.
         11    1    3    3    0    0  0.14578957516E+02  0.15547684225E+02 -0.96747346789E+01  0.23406772063E+02  0.51100000000E-03 0. -1.
        -11    1    3    3    0    0  0.16483844733E+02  0.13393565235E+02  0.70371445081E+01  0.22374676086E+02  0.51100000000E-03 0.  1.
         12    1    3    3    0    0 -0.72371438221E+01 -0.96435756919E+01 -0.61179100422E+01  0.13520489123E+02  0.00000000000E+00 0. -1.
</event>
<event>
 7    1  0.3223600E-013  0.5930197E+02  0.7816164E-02  0.1266605E+00
        -11   -1    0    0    0    0  0.00000000000E+00  0.00000000000E+00  0.45593999997E+02  0.45594000000E+02  0.51100000000E-03 0. -1.
         11   -1    0    0    0    0 -0.00000000000E+00 -0.00000000000E+00 -0.45593999997E+02  0.45594000000E+02  0.51100000000E-03 0.  1.
    9900012    2    1    2    0    0 -0.10565976604E+02  0.26344160005E+02 -0.14528055693E+02  0.59301968102E+02  0.50000043906E+02 0.  0.
         12    1    1    2    0    0  0.10565976604E+02 -0.26344160005E+02  0.14528055693E+02  0.31886031898E+02  0.00000000000E+00 0. -1.
         11    1    3    3    0    0 -0.11335012035E+02  0.26876671101E+02 -0.20869256591E+01  0.29243686606E+02  0.51100000000E-03 0. -1.
        -11    1    3    3    0    0 -0.78723692418E+01  0.27359310782E+01  0.54252593431E+01  0.99444937299E+01  0.51100000000E-03 0.  1.
        -12    1    3    3    0    0  0.86414046727E+01 -0.32684421740E+01 -0.17866389377E+02  0.20113787767E+02  0.00000000000E+00 0.  1.
</event>
<event>
 7    1  0.3223600E-013  0.5930201E+02  0.7816164E-02  0.1266605E+00
        -11   -1    0    0    0    0  0.00000000000E+00  0.00000000000E+00  0.45593999997E+02  0.45594000000E+02  0.51100000000E-03 0.  1.
         11   -1    0    0    0    0 -0.00000000000E+00 -0.00000000000E+00 -0.45593999997E+02  0.45594000000E+02  0.51100000000E-03 0. -1.
    9900012    2    1    2    0    0 -0.10511006183E+02 -0.76537004552E+01  0.29114534505E+02  0.59302007760E+02  0.50000116233E+02 0.  0.
         12    1    1    2    0    0  0.10511006183E+02  0.76537004552E+01 -0.29114534505E+02  0.31885992240E+02  0.00000000000E+00 0. -1.
         11    1    3    3    0    0 -0.22481400254E+01 -0.11574134313E+01 -0.11963286256E+02  0.12227590022E+02  0.51100000000E-03 0. -1.
        -11    1    3    3    0    0 -0.79503605714E+00  0.47106455461E+01  0.11180733996E+01  0.49063583421E+01  0.51100000000E-03 0.  1.
        -12    1    3    3    0    0 -0.74678301004E+01 -0.11206932570E+02  0.39959747362E+02  0.42168059397E+02  0.00000000000E+00 0.  1.
</event>
<event>
 7    1  0.3223600E-013  0.5930194E+02  0.7816164E-02  0.1266605E+00
        -11   -1    0    0    0    0  0.00000000000E+00  0.00000000000E+00  0.45593999997E+02  0.45594000000E+02  0.51100000000E-03 0. -1.
         11   -1    0    0    0    0 -0.00000000000E+00 -0.00000000000E+00 -0.45593999997E+02  0.45594000000E+02  0.51100000000E-03 0.  1.
    9900012    2    1    2    0    0 -0.17014480479E+02  0.14116229761E+02 -0.22977384939E+02  0.59301941804E+02  0.49999995945E+02 0.  0.
         12    1    1    2    0    0  0.17014480479E+02 -0.14116229761E+02  0.22977384939E+02  0.31886058196E+02  0.00000000000E+00 0. -1.
         11    1    3    3    0    0 -0.88403696209E+01 -0.15964440062E+02 -0.18209891996E+02  0.25780140579E+02  0.51100000000E-03 0. -1.
        -11    1    3    3    0    0  0.23169607244E+01  0.10631097296E+02  0.15427192232E+00  0.10881743279E+02  0.51100000000E-03 0.  1.
        -12    1    3    3    0    0 -0.10491071582E+02  0.19449572527E+02 -0.49217648659E+01  0.22640057946E+02  0.00000000000E+00 0.  1.
</event>
<event>
 7    1  0.3223600E-013  0.5930192E+02  0.7816164E-02  0.1266605E+00
        -11   -1    0    0    0    0  0.00000000000E+00  0.00000000000E+00  0.45593999997E+02  0.45594000000E+02  0.51100000000E-03 0. -1.
         11   -1    0    0    0    0 -0.00000000000E+00 -0.00000000000E+00 -0.45593999997E+02  0.45594000000E+02  0.51100000000E-03 0.  1.
    9900012    2    1    2    0    0 -0.17220723396E+01  0.79014589109E+01 -0.30843529851E+02  0.59301922792E+02  0.49999961271E+02 0.  0.
         12    1    1    2    0    0  0.17220723396E+01 -0.79014589109E+01  0.30843529851E+02  0.31886077208E+02  0.00000000000E+00 0. -1.
         11    1    3    3    0    0  0.95335099793E+01  0.60575065330E-01 -0.71658749677E+01  0.11926493457E+02  0.51100000000E-03 0. -1.
        -11    1    3    3    0    0  0.61488441383E+01 -0.12546133215E+02 -0.10671321360E+02  0.17580979572E+02  0.51100000000E-03 0.  1.
        -12    1    3    3    0    0 -0.17404426457E+02  0.20387017061E+02 -0.13006333523E+02  0.29794449763E+02  0.00000000000E+00 0.  1.
</event>
<event>
 7    1  0.3223600E-013  0.5930195E+02  0.7816164E-02  0.1266605E+00
        -11   -1    0    0    0    0  0.00000000000E+00  0.00000000000E+00  0.45593999997E+02  0.45594000000E+02  0.51100000000E-03 0.  1.
         11   -1    0    0    0    0 -0.00000000000E+00 -0.00000000000E+00 -0.45593999997E+02  0.45594000000E+02  0.51100000000E-03 0. -1.
    9900012    2    1    2    0    0 -0.53902954130E+01 -0.31393625168E+02  0.14510237415E+01  0.59301945748E+02  0.50000003138E+02 0.  0.
         12    1    1    2    0    0  0.53902954130E+01  0.31393625168E+02 -0.14510237415E+01  0.31886054252E+02  0.00000000000E+00 0. -1.
         11    1    3    3    0    0 -0.13639482963E+02 -0.23422688991E+02 -0.71831144214E+01  0.28040238731E+02  0.51100000000E-03 0. -1.
        -11    1    3    3    0    0 -0.60046394562E+01  0.37585130408E+01 -0.46900652465E+01  0.84958123540E+01  0.51100000000E-03 0.  1.
        -12    1    3    3    0    0  0.14253827007E+02 -0.11729449218E+02  0.13324203409E+02  0.22765894663E+02  0.00000000000E+00 0.  1.
</event>
<event>
 7    1  0.3223600E-013  0.5930197E+02  0.7816164E-02  0.1266605E+00
        -11   -1    0    0    0    0  0.00000000000E+00  0.00000000000E+00  0.45593999997E+02  0.45594000000E+02  0.51100000000E-03 0.  1.
         11   -1    0    0    0    0 -0.00000000000E+00 -0.00000000000E+00 -0.45593999997E+02  0.45594000000E+02  0.51100000000E-03 0. -1.
    9900012    2    1    2    0    0 -0.13814819293E+02  0.27813074559E+02  0.72320465760E+01  0.59301970987E+02  0.50000049168E+02 0.  0.
         12    1    1    2    0    0  0.13814819293E+02 -0.27813074559E+02 -0.72320465760E+01  0.31886029013E+02  0.00000000000E+00 0. -1.
         11    1    3    3    0    0 -0.22183985284E+02  0.10053261303E+02 -0.87916865955E+01  0.25893841341E+02  0.51100000000E-03 0. -1.
        -11    1    3    3    0    0 -0.57548542652E+01 -0.12150751550E+00  0.65791596408E+01  0.87417648979E+01  0.51100000000E-03 0.  1.
         12    1    3    3    0    0  0.14124020257E+02  0.17881320771E+02  0.94445735307E+01  0.24666364749E+02  0.00000000000E+00 0. -1.
</event>
<event>
 7    1  0.3223600E-013  0.5930199E+02  0.7816164E-02  0.1266605E+00
        -11   -1    0    0    0    0  0.00000000000E+00  0.00000000000E+00  0.45593999997E+02  0.45594000000E+02  0.51100000000E-03 0. -1.
         11   -1    0    0    0    0 -0.00000000000E+00 -0.00000000000E+00 -0.45593999997E+02  0.45594000000E+02  0.51100000000E-03 0.  1.
    9900012    2    1    2    0    0  0.30201488310E+02  0.10009467277E+02  0.20972392761E+01  0.59301988272E+02  0.50000080691E+02 0.  0.
         12    1    1    2    0    0 -0.30201488310E+02 -0.10009467277E+02 -0.20972392761E+01  0.31886011728E+02  0.00000000000E+00 0. -1.
         11    1    3    3    0    0  0.82967800637E+01  0.13790953171E+01  0.40583573214E+01  0.93385613307E+01  0.51100000000E-03 0. -1.
        -11    1    3    3    0    0 -0.91407727243E-01 -0.41627740184E+01  0.17462083490E+02  0.17951640677E+02  0.51100000000E-03 0.  1.
        -12    1    3    3    0    0  0.21996115974E+02  0.12793145978E+02 -0.19423201536E+02  0.32011786265E+02  0.00000000000E+00 0.  1.
</event>
<event>
 7    1  0.3223600E-013  0.5930193E+02  0.7816164E-02  0.1266605E+00
        -11   -1    0    0    0    0  0.00000000000E+00  0.00000000000E+00  0.45593999997E+02  0.45594000000E+02  0.51100000000E-03 0.  1.
         11   -1    0    0    0    0 -0.00000000000E+00 -0.00000000000E+00 -0.45593999997E+02  0.45594000000E+02  0.51100000000E-03 0. -1.
    9900012    2    1    2    0    0 -0.30806921758E+02  0.65112507106E+01  0.50257718923E+01  0.59301934123E+02  0.49999981936E+02 0.  0.
         12    1    1    2    0    0  0.30806921758E+02 -0.65112507106E+01 -0.50257718923E+01  0.31886065877E+02  0.00000000000E+00 0. -1.
         11    1    3    3    0    0 -0.74992315383E+01 -0.10427210010E+02 -0.43089551201E+01  0.13547408488E+02  0.51100000000E-03 0. -1.
        -11    1    3    3    0    0 -0.16779257696E+01 -0.93652505643E+01 -0.22615327769E+01  0.97794623463E+01  0.51100000000E-03 0.  1.
        -12    1    3    3    0    0 -0.21629764450E+02  0.26303711285E+02  0.11596259789E+02  0.35975063288E+02  0.00000000000E+00 0.  1.
</event>
<event>
 7    1  0.3223600E-013  0.5930191E+02  0.7816164E-02  0.1266605E+00
        -11   -1    0    0    0    0  0.00000000000E+00  0.00000000000E+00  0.45593999997E+02  0.45594000000E+02  0.51100000000E-03 0.  1.
         11   -1    0    0    0    0 -0.00000000000E+00 -0.00000000000E+00 -0.45593999997E+02  0.45594000000E+02  0.51100000000E-03 0. -1.
    9900012    2    1    2    0    0  0.17548510457E+02 -0.71620696836E+01  0.25641325572E+02  0.59301905248E+02  0.49999929276E+02 0.  0.
         12    1    1    2    0    0 -0.17548510457E+02  0.71620696836E+01 -0.25641325572E+02  0.31886094752E+02  0.00000000000E+00 0. -1.
         11    1    3    3    0    0 -0.10059331077E+02  0.39457529397E+01 -0.80866464494E+00  0.10835730097E+02  0.51100000000E-03 0. -1.
        -11    1    3    3    0    0  0.12638169894E+02 -0.17000170718E+02  0.24297786498E+02  0.32235253554E+02  0.51100000000E-03 0.  1.
         12    1    3    3    0    0  0.14969671639E+02  0.58923480947E+01  0.21522037191E+01  0.16230921597E+02  0.00000000000E+00 0. -1.
</event>
<event>
 7    1  0.3223600E-013  0.5930194E+02  0.7816164E-02  0.1266605E+00
        -11   -1    0    0    0    0  0.00000000000E+00  0.00000000000E+00  0.45593999997E+02  0.45594000000E+02  0.51100000000E-03 0.  1.
         11   -1    0    0    0    0 -0.00000000000E+00 -0.00000000000E+00 -0.45593999997E+02  0.45594000000E+02  0.51100000000E-03 0. -1.
    9900012    2    1    2    0    0  0.31432317787E+02  0.18692860085E+01  0.50235307971E+01  0.59301942023E+02  0.49999996344E+02 0.  0.
         12    1    1    2    0    0 -0.31432317787E+02 -0.18692860085E+01 -0.50235307971E+01  0.31886057977E+02  0.00000000000E+00 0. -1.
         11    1    3    3    0    0  0.62846245629E+01  0.14944851602E+00  0.65524824192E+00  0.63204581539E+01  0.51100000000E-03 0.  1.
        -11    1    3    3    0    0  0.36830356559E+01  0.22396163262E+02  0.46894565886E+01  0.23176364768E+02  0.51100000000E-03 0. -1.
         12    1    3    3    0    0  0.21464657568E+02 -0.20676325770E+02 -0.32117403344E+00  0.29805119101E+02  0.00000000000E+00 0. -1.
</event>
<event>
 7    1  0.3223600E-013  0.5930196E+02  0.7816164E-02  0.1266605E+00
        -11   -1    0    0    0    0  0.00000000000E+00  0.00000000000E+00  0.45593999997E+02  0.45594000000E+02  0.51100000000E-03 0.  1.
         11   -1    0    0    0    0 -0.00000000000E+00 -0.00000000000E+00 -0.45593999997E+02  0.45594000000E+02  0.51100000000E-03 0. -1.
    9900012    2    1    2    0    0  0.28037145241E+02 -0.11441588031E+02  0.99863900847E+01  0.59301961725E+02  0.50000032275E+02 0.  0.
         12    1    1    2    0    0 -0.28037145241E+02  0.11441588031E+02 -0.99863900847E+01  0.31886038275E+02  0.00000000000E+00 0. -1.
         11    1    3    3    0    0 -0.23426529613E+01 -0.10310672755E+02  0.15317867461E+01  0.10683836691E+02  0.51100000000E-03 0. -1.
        -11    1    3    3    0    0  0.28724065123E+02 -0.15119947724E+02  0.11059118771E+02  0.34292693749E+02  0.51100000000E-03 0.  1.
         12    1    3    3    0    0  0.16557330798E+01  0.13989032447E+02 -0.26045154324E+01  0.14325431284E+02  0.00000000000E+00 0. -1.
</event>
<event>
 7    1  0.3223600E-013  0.5930197E+02  0.7816164E-02  0.1266605E+00
        -11   -1    0    0    0    0  0.00000000000E+00  0.00000000000E+00  0.45593999997E+02  0.45594000000E+02  0.51100000000E-03 0. -1.
         11   -1    0    0    0    0 -0.00000000000E+00 -0.00000000000E+00 -0.45593999997E+02  0.45594000000E+02  0.51100000000E-03 0.  1.
    9900012    2    1    2    0    0  0.23829061267E+02  0.20361932343E+02  0.58554376794E+01  0.59301974847E+02  0.50000056208E+02 0.  0.
         12    1    1    2    0    0 -0.23829061267E+02 -0.20361932343E+02 -0.58554376794E+01  0.31886025153E+02  0.00000000000E+00 0. -1.
         11    1    3    3    0    0  0.20344138545E+01  0.10648147122E+02 -0.18527895025E+01  0.10997940992E+02  0.51100000000E-03 0. -1.
        -11    1    3    3    0    0  0.27016837729E+02  0.19342504209E+02  0.13557275199E+02  0.35886511408E+02  0.51100000000E-03 0.  1.
         12    1    3    3    0    0 -0.52221903166E+01 -0.96287189875E+01 -0.58490480167E+01  0.12417522448E+02  0.00000000000E+00 0. -1.
</event>
<event>
 7    1  0.3223600E-013  0.5930192E+02  0.7816164E-02  0.1266605E+00
        -11   -1    0    0    0    0  0.00000000000E+00  0.00000000000E+00  0.45593999997E+02  0.45594000000E+02  0.51100000000E-03 0. -1.
         11   -1    0    0    0    0 -0.00000000000E+00 -0.00000000000E+00 -0.45593999997E+02  0.45594000000E+02  0.51100000000E-03 0.  1.
    9900012    2    1    2    0    0 -0.16906775581E+02 -0.18516161030E+02 -0.19698601447E+02  0.59301918730E+02  0.49999953862E+02 0.  0.
         12    1    1    2    0    0  0.16906775581E+02  0.18516161030E+02  0.19698601447E+02  0.31886081270E+02  0.00000000000E+00 0. -1.
         11    1    3    3    0    0 -0.23128582288E+02 -0.94736629730E+01  0.39756694317E+01  0.25307855628E+02  0.51100000000E-03 0. -1.
        -11    1    3    3    0    0 -0.26615057795E+00  0.52921052225E+01  0.31153718170E+00  0.53079439986E+01  0.51100000000E-03 0.  1.
        -12    1    3    3    0    0  0.64879572851E+01 -0.14334603279E+02 -0.23985808060E+02  0.28686119103E+02  0.00000000000E+00 0.  1.
</event>
<event>
 7    1  0.3223600E-013  0.5930195E+02  0.7816164E-02  0.1266605E+00
        -11   -1    0    0    0    0  0.00000000000E+00  0.00000000000E+00  0.45593999997E+02  0.45594000000E+02  0.51100000000E-03 0.  1.
         11   -1    0    0    0    0 -0.00000000000E+00 -0.00000000000E+00 -0.45593999997E+02  0.45594000000E+02  0.51100000000E-03 0. -1.
    9900012    2    1    2    0    0  0.24451298479E+02  0.10503130416E+02  0.17565264870E+02  0.59301948570E+02  0.50000008285E+02 0.  0.
         12    1    1    2    0    0 -0.24451298479E+02 -0.10503130416E+02 -0.17565264870E+02  0.31886051430E+02  0.00000000000E+00 0. -1.
         11    1    3    3    0    0  0.87986497247E+00 -0.13991408376E+02  0.16635424964E+01  0.14117402191E+02  0.51100000000E-03 0. -1.
        -11    1    3    3    0    0  0.12823901277E+02  0.22156797420E+01  0.15772700923E+02  0.20448466333E+02  0.51100000000E-03 0.  1.
         12    1    3    3    0    0  0.10747532229E+02  0.22278859050E+02  0.12902145060E+00  0.24736080047E+02  0.00000000000E+00 0. -1.
</event>
<event>
 7    1  0.3223600E-013  0.5930197E+02  0.7816164E-02  0.1266605E+00
        -11   -1    0    0    0    0  0.00000000000E+00  0.00000000000E+00  0.45593999997E+02  0.45594000000E+02  0.51100000000E-03 0. -1.
         11   -1    0    0    0    0 -0.00000000000E+00 -0.00000000000E+00 -0.45593999997E+02  0.45594000000E+02  0.51100000000E-03 0.  1.
    9900012    2    1    2    0    0 -0.29524558747E+02 -0.11485540996E+02 -0.36196436698E+01  0.59301967926E+02  0.50000043584E+02 0.  0.
         12    1    1    2    0    0  0.29524558747E+02  0.11485540996E+02  0.36196436698E+01  0.31886032074E+02  0.00000000000E+00 0. -1.
         11    1    3    3    0    0  0.35459617688E+01  0.11580720782E+01  0.64923468442E+01  0.74876928096E+01  0.51100000000E-03 0.  1.
        -11    1    3    3    0    0 -0.70466723466E+01 -0.18991951818E+02  0.52614768207E+01  0.20929237052E+02  0.51100000000E-03 0. -1.
        -12    1    3    3    0    0 -0.26023848169E+02  0.63483387434E+01 -0.15373467335E+02  0.30885038064E+02  0.00000000000E+00 0.  1.
</event>
<event>
 7    1  0.3223600E-013  0.5930195E+02  0.7816164E-02  0.1266605E+00
        -11   -1    0    0    0    0  0.00000000000E+00  0.00000000000E+00  0.45593999997E+02  0.45594000000E+02  0.51100000000E-03 0.  1.
         11   -1    0    0    0    0 -0.00000000000E+00 -0.00000000000E+00 -0.45593999997E+02  0.45594000000E+02  0.51100000000E-03 0. -1.
    9900012    2    1    2    0    0  0.27220537545E+02  0.14190807892E+02  0.86245837486E+01  0.59301950736E+02  0.50000012234E+02 0.  0.
         12    1    1    2    0    0 -0.27220537545E+02 -0.14190807892E+02 -0.86245837486E+01  0.31886049264E+02  0.00000000000E+00 0. -1.
         11    1    3    3    0    0  0.62107919577E+01 -0.56061936087E+01  0.14419662573E+02  0.16671233083E+02  0.51100000000E-03 0. -1.
        -11    1    3    3    0    0  0.11216334033E+02  0.38525860918E+01  0.11954771334E+02  0.16839392110E+02  0.51100000000E-03 0.  1.
         12    1    3    3    0    0  0.97934115539E+01  0.15944415409E+02 -0.17749850158E+02  0.25791325542E+02  0.00000000000E+00 0. -1.
</event>
<event>
 7    1  0.3223600E-013  0.5930189E+02  0.7816164E-02  0.1266605E+00
        -11   -1    0    0    0    0  0.00000000000E+00  0.00000000000E+00  0.45593999997E+02  0.45594000000E+02  0.51100000000E-03 0.  1.
         11   -1    0    0    0    0 -0.00000000000E+00 -0.00000000000E+00 -0.45593999997E+02  0.45594000000E+02  0.51100000000E-03 0. -1.
    9900012    2    1    2    0    0 -0.92680597098E+01 -0.19949792189E+02  0.23083169367E+02  0.59301892567E+02  0.49999906149E+02 0.  0.
         12    1    1    2    0    0  0.92680597098E+01  0.19949792189E+02 -0.23083169367E+02  0.31886107433E+02  0.00000000000E+00 0. -1.
         11    1    3    3    0    0  0.40312123953E+01 -0.84995081050E+00  0.57482704004E+01  0.70721780672E+01  0.51100000000E-03 0. -1.
        -11    1    3    3    0    0 -0.14497051156E+02  0.97955396780E+01  0.15292619682E+02  0.23237497860E+02  0.51100000000E-03 0.  1.
        -12    1    3    3    0    0  0.11977790506E+01 -0.28895381056E+02  0.20422792851E+01  0.28992216640E+02  0.00000000000E+00 0.  1.
</event>
<event>
 7    1  0.3223600E-013  0.5930193E+02  0.7816164E-02  0.1266605E+00
        -11   -1    0    0    0    0  0.00000000000E+00  0.00000000000E+00  0.45593999997E+02  0.45594000000E+02  0.51100000000E-03 0. -1.
         11   -1    0    0    0    0 -0.00000000000E+00 -0.00000000000E+00 -0.45593999997E+02  0.45594000000E+02  0.51100000000E-03 0.  1.
    9900012    2    1    2    0    0 -0.30736030243E+01 -0.21286251772E+02 -0.23540807161E+02  0.59301934833E+02  0.49999983231E+02 0.  0.
         12    1    1    2    0    0  0.30736030243E+01  0.21286251772E+02  0.23540807161E+02  0.31886065167E+02  0.00000000000E+00 0. -1.
         11    1    3    3    0    0 -0.12309710518E+02 -0.46991466333E+01  0.17508455373E+01  0.13291967968E+02  0.51100000000E-03 0. -1.
        -11    1    3    3    0    0  0.33641945867E+01 -0.24994247183E+02 -0.90350209801E+01  0.26789210549E+02  0.51100000000E-03 0.  1.
        -12    1    3    3    0    0  0.58719129069E+01  0.84071420445E+01 -0.16256631718E+02  0.19220756316E+02  0.00000000000E+00 0.  1.
</event>
<event>
 7    1  0.3223600E-013  0.5930192E+02  0.7816164E-02  0.1266605E+00
        -11   -1    0    0    0    0  0.00000000000E+00  0.00000000000E+00  0.45593999997E+02  0.45594000000E+02  0.51100000000E-03 0. -1.
         11   -1    0    0    0    0 -0.00000000000E+00 -0.00000000000E+00 -0.45593999997E+02  0.45594000000E+02  0.51100000000E-03 0.  1.
    9900012    2    1    2    0    0 -0.22852971008E+02  0.51781461265E+01 -0.21625225856E+02  0.59301923500E+02  0.49999962563E+02 0.  0.
         12    1    1    2    0    0  0.22852971008E+02 -0.51781461265E+01  0.21625225856E+02  0.31886076500E+02  0.00000000000E+00 0. -1.
         11    1    3    3    0    0 -0.16291660152E+02  0.65680439175E+01  0.77600975273E+01  0.19203554496E+02  0.51100000000E-03 0. -1.
        -11    1    3    3    0    0 -0.16458684557E+02  0.20468717918E+01 -0.15474598998E+02  0.22683500521E+02  0.51100000000E-03 0.  1.
        -12    1    3    3    0    0  0.98973737010E+01 -0.34367695828E+01 -0.13910724386E+02  0.17414868483E+02  0.00000000000E+00 0.  1.
</event>
<event>
 7    1  0.3223600E-013  0.5930192E+02  0.7816164E-02  0.1266605E+00
        -11   -1    0    0    0    0  0.00000000000E+00  0.00000000000E+00  0.45593999997E+02  0.45594000000E+02  0.51100000000E-03 0.  1.
         11   -1    0    0    0    0 -0.00000000000E+00 -0.00000000000E+00 -0.45593999997E+02  0.45594000000E+02  0.51100000000E-03 0. -1.
    9900012    2    1    2    0    0  0.21253853545E+02  0.13692215856E+02  0.19429853976E+02  0.59301916968E+02  0.49999950650E+02 0.  0.
         12    1    1    2    0    0 -0.21253853545E+02 -0.13692215856E+02 -0.19429853976E+02  0.31886083032E+02  0.00000000000E+00 0. -1.
         11    1    3    3    0    0  0.61619611153E+01 -0.42862726263E+01  0.22595490786E+02  0.23809622045E+02  0.51100000000E-03 0. -1.
        -11    1    3    3    0    0  0.27868637676E+01  0.90970180280E+01  0.11130987522E+02  0.14643129110E+02  0.51100000000E-03 0.  1.
         12    1    3    3    0    0  0.12305028662E+02  0.88814704546E+01 -0.14296624332E+02  0.20849165813E+02  0.00000000000E+00 0. -1.
</event>
<event>
 7    1  0.3223600E-013  0.5930194E+02  0.7816164E-02  0.1266605E+00
        -11   -1    0    0    0    0  0.00000000000E+00  0.00000000000E+00  0.45593999997E+02  0.45594000000E+02  0.51100000000E-03 0.  1.
         11   -1    0    0    0    0 -0.00000000000E+00 -0.00000000000E+00 -0.45593999997E+02  0.45594000000E+02  0.51100000000E-03 0. -1.
    9900012    2    1    2    0    0 -0.82764005699E+01  0.92717479921E+01  0.29364209053E+02  0.59301938930E+02  0.49999990704E+02 0.  0.
         12    1    1    2    0    0  0.82764005699E+01 -0.92717479921E+01 -0.29364209053E+02  0.31886061070E+02  0.00000000000E+00 0. -1.
         11    1    3    3    0    0 -0.34890761931E+01 -0.18245810491E+02  0.69431851205E+01  0.19831567589E+02  0.51100000000E-03 0. -1.
        -11    1    3    3    0    0  0.57082048822E+01  0.48023051491E+01  0.53138430863E+01  0.91587480765E+01  0.51100000000E-03 0.  1.
        -12    1    3    3    0    0 -0.10495529259E+02  0.22715253334E+02  0.17107180846E+02  0.30311623265E+02  0.00000000000E+00 0.  1.
</event>
<event>
 7    1  0.3223600E-013  0.5930195E+02  0.7816164E-02  0.1266605E+00
        -11   -1    0    0    0    0  0.00000000000E+00  0.00000000000E+00  0.45593999997E+02  0.45594000000E+02  0.51100000000E-03 0.  1.
         11   -1    0    0    0    0 -0.00000000000E+00 -0.00000000000E+00 -0.45593999997E+02  0.45594000000E+02  0.51100000000E-03 0. -1.
    9900012    2    1    2    0    0  0.23097727258E+02  0.15407158002E+02  0.15679121280E+02  0.59301947151E+02  0.50000005695E+02 0.  0.
         12    1    1    2    0    0 -0.23097727258E+02 -0.15407158002E+02 -0.15679121280E+02  0.31886052849E+02  0.00000000000E+00 0. -1.
         11    1    3    3    0    0  0.45894530614E+01 -0.74539276719E+01  0.14895218990E+02  0.17276911361E+02  0.51100000000E-03 0. -1.
        -11    1    3    3    0    0  0.15229895119E+02  0.89012758223E+01  0.14002552883E+02  0.22522297931E+02  0.51100000000E-03 0.  1.
         12    1    3    3    0    0  0.32783790781E+01  0.13959809852E+02 -0.13218650593E+02  0.19502737859E+02  0.00000000000E+00 0. -1.
</event>
<event>
 7    1  0.3223600E-013  0.5930193E+02  0.7816164E-02  0.1266605E+00
        -11   -1    0    0    0    0  0.00000000000E+00  0.00000000000E+00  0.45593999997E+02  0.45594000000E+02  0.51100000000E-03 0.  1.
         11   -1    0    0    0    0 -0.00000000000E+00 -0.00000000000E+00 -0.45593999997E+02  0.45594000000E+02  0.51100000000E-03 0. -1.
    9900012    2    1    2    0    0 -0.27363328571E+02  0.16299679488E+02  0.15133271837E+01  0.59301929984E+02  0.49999974388E+02 0.  0.
         12    1    1    2    0    0  0.27363328571E+02 -0.16299679488E+02 -0.15133271837E+01  0.31886070016E+02  0.00000000000E+00 0. -1.
         11    1    3    3    0    0 -0.26760899265E+02  0.12258857821E+02  0.54591402049E+01  0.29937059585E+02  0.51100000000E-03 0. -1.
        -11    1    3    3    0    0 -0.11100663453E+02 -0.33632218542E+00  0.73635134166E+01  0.13325133088E+02  0.51100000000E-03 0.  1.
         12    1    3    3    0    0  0.10498234148E+02  0.43771438528E+01 -0.11309326438E+02  0.16039737311E+02  0.00000000000E+00 0. -1.
</event>
<event>
 7    1  0.3223600E-013  0.5930195E+02  0.7816164E-02  0.1266605E+00
        -11   -1    0    0    0    0  0.00000000000E+00  0.00000000000E+00  0.45593999997E+02  0.45594000000E+02  0.51100000000E-03 0.  1.
         11   -1    0    0    0    0 -0.00000000000E+00 -0.00000000000E+00 -0.45593999997E+02  0.45594000000E+02  0.51100000000E-03 0. -1.
    9900012    2    1    2    0    0  0.15312995943E+01 -0.29447721697E+02  0.12132883255E+02  0.59301952147E+02  0.50000014807E+02 0.  0.
         12    1    1    2    0    0 -0.15312995943E+01  0.29447721697E+02 -0.12132883255E+02  0.31886047853E+02  0.00000000000E+00 0. -1.
         11    1    3    3    0    0  0.57663772012E+01 -0.10006884594E+02 -0.50867348440E+01  0.12619972937E+02  0.51100000000E-03 0. -1.
        -11    1    3    3    0    0  0.47876144811E+01 -0.27468910936E+02  0.30278544133E+01  0.28046928942E+02  0.51100000000E-03 0.  1.
         12    1    3    3    0    0 -0.90226920880E+01  0.80280738330E+01  0.14191763685E+02  0.18635050268E+02  0.00000000000E+00 0. -1.
</event>
<event>
 7    1  0.3223600E-013  0.5930199E+02  0.7816164E-02  0.1266605E+00
        -11   -1    0    0    0    0  0.00000000000E+00  0.00000000000E+00  0.45593999997E+02  0.45594000000E+02  0.51100000000E-03 0. -1.
         11   -1    0    0    0    0 -0.00000000000E+00 -0.00000000000E+00 -0.45593999997E+02  0.45594000000E+02  0.51100000000E-03 0.  1.
    9900012    2    1    2    0    0 -0.24069236603E+02  0.19400354389E+02 -0.78112737892E+01  0.59301985836E+02  0.50000076248E+02 0.  0.
         12    1    1    2    0    0  0.24069236603E+02 -0.19400354389E+02  0.78112737892E+01  0.31886014164E+02  0.00000000000E+00 0. -1.
         11    1    3    3    0    0 -0.12697663308E+01  0.35932634038E+01  0.11481167123E+02  0.12097150375E+02  0.51100000000E-03 0. -1.
        -11    1    3    3    0    0 -0.20697407913E+02  0.20733646509E+01  0.29201459669E+01  0.21004970555E+02  0.51100000000E-03 0.  1.
        -12    1    3    3    0    0 -0.21020623596E+01  0.13733726334E+02 -0.22212586879E+02  0.26199864905E+02  0.00000000000E+00 0.  1.
</event>
<event>
 7    1  0.3223600E-013  0.5930192E+02  0.7816164E-02  0.1266605E+00
        -11   -1    0    0    0    0  0.00000000000E+00  0.00000000000E+00  0.45593999997E+02  0.45594000000E+02  0.51100000000E-03 0.  1.
         11   -1    0    0    0    0 -0.00000000000E+00 -0.00000000000E+00 -0.45593999997E+02  0.45594000000E+02  0.51100000000E-03 0. -1.
    9900012    2    1    2    0    0  0.60506584222E+01  0.30592619495E+02 -0.66485518048E+01  0.59301920342E+02  0.49999956802E+02 0.  0.
         12    1    1    2    0    0 -0.60506584222E+01 -0.30592619495E+02  0.66485518048E+01  0.31886079658E+02  0.00000000000E+00 0. -1.
         11    1    3    3    0    0  0.36909254039E+01  0.60901753955E+01 -0.65489568133E+01  0.96748127779E+01  0.51100000000E-03 0. -1.
        -11    1    3    3    0    0 -0.14662230150E+02  0.19731568607E+02 -0.12937550514E+02  0.27779416953E+02  0.51100000000E-03 0.  1.
        -12    1    3    3    0    0  0.17021963168E+02  0.47708754918E+01  0.12837955522E+02  0.21847690611E+02  0.00000000000E+00 0.  1.
</event>
<event>
 7    1  0.3223600E-013  0.5930199E+02  0.7816164E-02  0.1266605E+00
        -11   -1    0    0    0    0  0.00000000000E+00  0.00000000000E+00  0.45593999997E+02  0.45594000000E+02  0.51100000000E-03 0. -1.
         11   -1    0    0    0    0 -0.00000000000E+00 -0.00000000000E+00 -0.45593999997E+02  0.45594000000E+02  0.51100000000E-03 0.  1.
    9900012    2    1    2    0    0 -0.97172332956E+01 -0.64532794715E+01 -0.29675714688E+02  0.59301992393E+02  0.50000088207E+02 0.  0.
         12    1    1    2    0    0  0.97172332956E+01  0.64532794715E+01  0.29675714688E+02  0.31886007607E+02  0.00000000000E+00 0. -1.
         11    1    3    3    0    0 -0.91141187097E+01 -0.11727265761E+02 -0.11019658393E+02  0.18494020478E+02  0.51100000000E-03 0. -1.
        -11    1    3    3    0    0 -0.15325860886E+02  0.31766913325E+01 -0.20533492469E+02  0.25818553270E+02  0.51100000000E-03 0.  1.
        -12    1    3    3    0    0  0.14722746300E+02  0.20972949568E+01  0.18774361739E+01  0.14989418646E+02  0.00000000000E+00 0.  1.
</event>
<event>
 7    1  0.3223600E-013  0.5930205E+02  0.7816164E-02  0.1266604E+00
        -11   -1    0    0    0    0  0.00000000000E+00  0.00000000000E+00  0.45593999997E+02  0.45594000000E+02  0.51100000000E-03 0. -1.
         11   -1    0    0    0    0 -0.00000000000E+00 -0.00000000000E+00 -0.45593999997E+02  0.45594000000E+02  0.51100000000E-03 0.  1.
    9900012    2    1    2    0    0 -0.35865232649E+01 -0.29456468042E+02 -0.11669081548E+02  0.59302045055E+02  0.50000184249E+02 0.  0.
         12    1    1    2    0    0  0.35865232649E+01  0.29456468042E+02  0.11669081548E+02  0.31885954945E+02  0.00000000000E+00 0. -1.
         11    1    3    3    0    0 -0.13841114587E+02 -0.11013213087E+02  0.18853090181E+01  0.17788246284E+02  0.51100000000E-03 0. -1.
        -11    1    3    3    0    0 -0.11511423532E+02 -0.11372000615E+02 -0.37141878794E+01  0.16602122201E+02  0.51100000000E-03 0.  1.
        -12    1    3    3    0    0  0.21766014855E+02 -0.70712543404E+01 -0.98402026863E+01  0.24911676569E+02  0.00000000000E+00 0.  1.
</event>
<event>
 7    1  0.3223600E-013  0.5930194E+02  0.7816164E-02  0.1266605E+00
        -11   -1    0    0    0    0  0.00000000000E+00  0.00000000000E+00  0.45593999997E+02  0.45594000000E+02  0.51100000000E-03 0.  1.
         11   -1    0    0    0    0 -0.00000000000E+00 -0.00000000000E+00 -0.45593999997E+02  0.45594000000E+02  0.51100000000E-03 0. -1.
    9900012    2    1    2    0    0  0.94731524200E+01  0.30428181025E+02 -0.10515758414E+01  0.59301943032E+02  0.49999998183E+02 0.  0.
         12    1    1    2    0    0 -0.94731524200E+01 -0.30428181025E+02  0.10515758414E+01  0.31886056968E+02  0.00000000000E+00 0. -1.
         11    1    3    3    0    0  0.22306496542E+02  0.27109568620E+02  0.32343398450E-01  0.35107115306E+02  0.51100000000E-03 0.  1.
        -11    1    3    3    0    0 -0.55882893616E+01  0.11410186739E+02  0.20979114724E+01  0.12877211352E+02  0.51100000000E-03 0. -1.
         12    1    3    3    0    0 -0.72450547605E+01 -0.80915743344E+01 -0.31818307123E+01  0.11317616373E+02  0.00000000000E+00 0. -1.
</event>
<event>
 7    1  0.3223600E-013  0.5930190E+02  0.7816164E-02  0.1266605E+00
        -11   -1    0    0    0    0  0.00000000000E+00  0.00000000000E+00  0.45593999997E+02  0.45594000000E+02  0.51100000000E-03 0. -1.
         11   -1    0    0    0    0 -0.00000000000E+00 -0.00000000000E+00 -0.45593999997E+02  0.45594000000E+02  0.51100000000E-03 0.  1.
    9900012    2    1    2    0    0 -0.15297894003E+02 -0.25149592956E+02 -0.12255442301E+02  0.59301898753E+02  0.49999917429E+02 0.  0.
         12    1    1    2    0    0  0.15297894003E+02  0.25149592956E+02  0.12255442301E+02  0.31886101247E+02  0.00000000000E+00 0. -1.
         11    1    3    3    0    0  0.45041804176E+01 -0.21553593328E+02  0.58135550715E+01  0.22773722784E+02  0.51100000000E-03 0. -1.
        -11    1    3    3    0    0 -0.22138570108E+02 -0.10467242297E+02 -0.13886177254E+02  0.28151471840E+02  0.51100000000E-03 0.  1.
         12    1    3    3    0    0  0.23364956874E+01  0.68712426699E+01 -0.41828201183E+01  0.83767041292E+01  0.00000000000E+00 0. -1.
</event>
<event>
 7    1  0.3223600E-013  0.5930200E+02  0.7816164E-02  0.1266605E+00
        -11   -1    0    0    0    0  0.00000000000E+00  0.00000000000E+00  0.45593999997E+02  0.45594000000E+02  0.51100000000E-03 0. -1.
         11   -1    0    0    0    0 -0.00000000000E+00 -0.00000000000E+00 -0.45593999997E+02  0.45594000000E+02  0.51100000000E-03 0.  1.
    9900012    2    1    2    0    0 -0.28073975923E+02 -0.52441960041E+01 -0.14179808253E+02  0.59302004987E+02  0.50000111175E+02 0.  0.
         12    1    1    2    0    0  0.28073975923E+02  0.52441960041E+01  0.14179808253E+02  0.31885995013E+02  0.00000000000E+00 0. -1.
         11    1    3    3    0    0 -0.79537153672E+01  0.77087749203E+01  0.34391592448E+01  0.11598043606E+02  0.51100000000E-03 0. -1.
        -11    1    3    3    0    0  0.82410773821E+01  0.57350857759E+01 -0.65207357735E+01  0.11971907140E+02  0.51100000000E-03 0.  1.
         12    1    3    3    0    0 -0.28361337938E+02 -0.18688056700E+02 -0.11098231724E+02  0.35732054241E+02  0.00000000000E+00 0. -1.
</event>
<event>
 7    1  0.3223600E-013  0.5930191E+02  0.7816164E-02  0.1266605E+00
        -11   -1    0    0    0    0  0.00000000000E+00  0.00000000000E+00  0.45593999997E+02  0.45594000000E+02  0.51100000000E-03 0.  1.
         11   -1    0    0    0    0 -0.00000000000E+00 -0.00000000000E+00 -0.45593999997E+02  0.45594000000E+02  0.51100000000E-03 0. -1.
    9900012    2    1    2    0    0 -0.15806455237E+02 -0.25970934574E+02  0.96119258458E+01  0.59301912308E+02  0.49999942151E+02 0.  0.
         12    1    1    2    0    0  0.15806455237E+02  0.25970934574E+02 -0.96119258458E+01  0.31886087692E+02  0.00000000000E+00 0. -1.
         11    1    3    3    0    0 -0.18830348040E+02 -0.32422310749E+00 -0.28066244248E+00  0.18835230278E+02  0.51100000000E-03 0. -1.
        -11    1    3    3    0    0 -0.12901995987E+01 -0.60069772084E+01  0.17822316768E+02  0.18851614398E+02  0.51100000000E-03 0.  1.
         12    1    3    3    0    0  0.43140924016E+01 -0.19639734258E+02 -0.79297284797E+01  0.21615067632E+02  0.00000000000E+00 0. -1.
</event>
<event>
 7    1  0.3223600E-013  0.5930192E+02  0.7816164E-02  0.1266605E+00
        -11   -1    0    0    0    0  0.00000000000E+00  0.00000000000E+00  0.45593999997E+02  0.45594000000E+02  0.51100000000E-03 0. -1.
         11   -1    0    0    0    0 -0.00000000000E+00 -0.00000000000E+00 -0.45593999997E+02  0.45594000000E+02  0.51100000000E-03 0.  1.
    9900012    2    1    2    0    0 -0.88138450392E+01 -0.21819068106E+02 -0.21516662540E+02  0.59301915822E+02  0.49999948559E+02 0.  0.
         12    1    1    2    0    0  0.88138450392E+01  0.21819068106E+02  0.21516662540E+02  0.31886084178E+02  0.00000000000E+00 0. -1.
         11    1    3    3    0    0 -0.52059679532E+01  0.72356349633E+00  0.71822281546E+00  0.53048553926E+01  0.51100000000E-03 0. -1.
        -11    1    3    3    0    0 -0.23020683401E+02 -0.17897596677E+02 -0.14762612010E+02  0.32683490399E+02  0.51100000000E-03 0.  1.
         12    1    3    3    0    0  0.19412806315E+02 -0.46450349251E+01 -0.74722733456E+01  0.21313570030E+02  0.00000000000E+00 0. -1.
</event>
<event>
 7    1  0.3223600E-013  0.5930193E+02  0.7816164E-02  0.1266605E+00
        -11   -1    0    0    0    0  0.00000000000E+00  0.00000000000E+00  0.45593999997E+02  0.45594000000E+02  0.51100000000E-03 0.  1.
         11   -1    0    0    0    0 -0.00000000000E+00 -0.00000000000E+00 -0.45593999997E+02  0.45594000000E+02  0.51100000000E-03 0. -1.
    9900012    2    1    2    0    0  0.31386472644E+02  0.14287663834E+01 -0.54377870519E+01  0.59301928332E+02  0.49999971375E+02 0.  0.
         12    1    1    2    0    0 -0.31386472644E+02 -0.14287663834E+01  0.54377870519E+01  0.31886071668E+02  0.00000000000E+00 0. -1.
         11    1    3    3    0    0 -0.21279475846E+01 -0.67642173716E+01 -0.13557664662E+02  0.15300100292E+02  0.51100000000E-03 0. -1.
        -11    1    3    3    0    0  0.55431512975E+01  0.13476007512E+02  0.71694856869E+00  0.14589150773E+02  0.51100000000E-03 0.  1.
        -12    1    3    3    0    0  0.27971268931E+02 -0.52830237574E+01  0.74029290418E+01  0.29412677267E+02  0.00000000000E+00 0.  1.
</event>
<event>
 7    1  0.3223600E-013  0.5930195E+02  0.7816164E-02  0.1266605E+00
        -11   -1    0    0    0    0  0.00000000000E+00  0.00000000000E+00  0.45593999997E+02  0.45594000000E+02  0.51100000000E-03 0.  1.
         11   -1    0    0    0    0 -0.00000000000E+00 -0.00000000000E+00 -0.45593999997E+02  0.45594000000E+02  0.51100000000E-03 0. -1.
    9900012    2    1    2    0    0 -0.19408831615E+02  0.20304876522E+02  0.15090715726E+02  0.59301945738E+02  0.50000003120E+02 0.  0.
         12    1    1    2    0    0  0.19408831615E+02 -0.20304876522E+02 -0.15090715726E+02  0.31886054262E+02  0.00000000000E+00 0. -1.
         11    1    3    3    0    0  0.47153906099E+00  0.86643975849E+01 -0.33691517107E+01  0.93083466903E+01  0.51100000000E-03 0. -1.
        -11    1    3    3    0    0  0.38539710284E+01 -0.46255177576E+01  0.20287805168E+02  0.21162314287E+02  0.51100000000E-03 0.  1.
         12    1    3    3    0    0 -0.23734341704E+02  0.16265996695E+02 -0.18279377307E+01  0.28831284761E+02  0.00000000000E+00 0. -1.
</event>
<event>
 7    1  0.3223600E-013  0.5930195E+02  0.7816164E-02  0.1266605E+00
        -11   -1    0    0    0    0  0.00000000000E+00  0.00000000000E+00  0.45593999997E+02  0.45594000000E+02  0.51100000000E-03 0.  1.
         11   -1    0    0    0    0 -0.00000000000E+00 -0.00000000000E+00 -0.45593999997E+02  0.45594000000E+02  0.51100000000E-03 0. -1.
    9900012    2    1    2    0    0  0.12884290625E+02 -0.62663886688E+01  0.28485922523E+02  0.59301947346E+02  0.50000006052E+02 0.  0.
         12    1    1    2    0    0 -0.12884290625E+02  0.62663886688E+01 -0.28485922523E+02  0.31886052654E+02  0.00000000000E+00 0. -1.
         11    1    3    3    0    0 -0.12788419082E+02 -0.85788384426E+01  0.10101717251E+02  0.18416971068E+02  0.51100000000E-03 0. -1.
        -11    1    3    3    0    0  0.21563143621E+02 -0.31702416233E+01  0.57431795468E+00  0.21802509859E+02  0.51100000000E-03 0.  1.
         12    1    3    3    0    0  0.41095660865E+01  0.54826913971E+01  0.17809887318E+02  0.19082466419E+02  0.00000000000E+00 0. -1.
</event>
<event>
 7    1  0.3223600E-013  0.5930197E+02  0.7816164E-02  0.1266605E+00
        -11   -1    0    0    0    0  0.00000000000E+00  0.00000000000E+00  0.45593999997E+02  0.45594000000E+02  0.51100000000E-03 0.  1.
         11   -1    0    0    0    0 -0.00000000000E+00 -0.00000000000E+00 -0.45593999997E+02  0.45594000000E+02  0.51100000000E-03 0. -1.
    9900012    2    1    2    0    0 -0.21516283971E+02 -0.25269382490E+01  0.23396222784E+02  0.59301966484E+02  0.50000040955E+02 0.  0.
         12    1    1    2    0    0  0.21516283971E+02  0.25269382490E+01 -0.23396222784E+02  0.31886033516E+02  0.00000000000E+00 0. -1.
         11    1    3    3    0    0 -0.14316377071E+00 -0.42533145326E+01 -0.32669654101E+01  0.53650949321E+01  0.51100000000E-03 0. -1.
        -11    1    3    3    0    0 -0.20228723333E+02 -0.80209868516E+01 -0.36585996334E+01  0.22066327953E+02  0.51100000000E-03 0.  1.
        -12    1    3    3    0    0 -0.11443968669E+01  0.97473631352E+01  0.30321787827E+02  0.31870543599E+02  0.00000000000E+00 0.  1.
</event>
<event>
 7    1  0.3223600E-013  0.5930195E+02  0.7816164E-02  0.1266605E+00
        -11   -1    0    0    0    0  0.00000000000E+00  0.00000000000E+00  0.45593999997E+02  0.45594000000E+02  0.51100000000E-03 0.  1.
         11   -1    0    0    0    0 -0.00000000000E+00 -0.00000000000E+00 -0.45593999997E+02  0.45594000000E+02  0.51100000000E-03 0. -1.
    9900012    2    1    2    0    0 -0.96735408309E+01  0.81555629388E+01  0.29268234373E+02  0.59301950662E+02  0.50000012099E+02 0.  0.
         12    1    1    2    0    0  0.96735408309E+01 -0.81555629388E+01 -0.29268234373E+02  0.31886049338E+02  0.00000000000E+00 0. -1.
         11    1    3    3    0    0  0.18071942166E+02 -0.29205302794E+01  0.18341314273E+02  0.25913865020E+02  0.51100000000E-03 0.  1.
        -11    1    3    3    0    0 -0.14055196057E+02  0.10942720495E+02  0.52845741513E+01  0.18580053613E+02  0.51100000000E-03 0. -1.
        -12    1    3    3    0    0 -0.13690286939E+02  0.13337272351E+00  0.56423459489E+01  0.14808032029E+02  0.00000000000E+00 0.  1.
</event>
<event>
 7    1  0.3223600E-013  0.5930190E+02  0.7816164E-02  0.1266605E+00
        -11   -1    0    0    0    0  0.00000000000E+00  0.00000000000E+00  0.45593999997E+02  0.45594000000E+02  0.51100000000E-03 0. -1.
         11   -1    0    0    0    0 -0.00000000000E+00 -0.00000000000E+00 -0.45593999997E+02  0.45594000000E+02  0.51100000000E-03 0.  1.
    9900012    2    1    2    0    0 -0.17966104023E+02 -0.12626121432E+02 -0.23119760837E+02  0.59301903071E+02  0.49999925305E+02 0.  0.
         12    1    1    2    0    0  0.17966104023E+02  0.12626121432E+02  0.23119760837E+02  0.31886096929E+02  0.00000000000E+00 0. -1.
         11    1    3    3    0    0 -0.10867218830E+02 -0.10431392561E+02 -0.25725061583E+02  0.29810890452E+02  0.51100000000E-03 0.  1.
        -11    1    3    3    0    0  0.39103820020E+01 -0.10567478086E+02  0.88378409893E+01  0.14320269345E+02  0.51100000000E-03 0. -1.
         12    1    3    3    0    0 -0.11009267195E+02  0.83727492150E+01 -0.62325402436E+01  0.15170743274E+02  0.00000000000E+00 0. -1.
</event>
<event>
 7    1  0.3223600E-013  0.5930191E+02  0.7816164E-02  0.1266605E+00
        -11   -1    0    0    0    0  0.00000000000E+00  0.00000000000E+00  0.45593999997E+02  0.45594000000E+02  0.51100000000E-03 0. -1.
         11   -1    0    0    0    0 -0.00000000000E+00 -0.00000000000E+00 -0.45593999997E+02  0.45594000000E+02  0.51100000000E-03 0.  1.
    9900012    2    1    2    0    0 -0.13616602611E+02  0.22664278846E+02 -0.17822488160E+02  0.59301913905E+02  0.49999945063E+02 0.  0.
         12    1    1    2    0    0  0.13616602611E+02 -0.22664278846E+02  0.17822488160E+02  0.31886086095E+02  0.00000000000E+00 0. -1.
         11    1    3    3    0    0 -0.11560272452E+02 -0.82625202037E+00 -0.23039507703E+01  0.11816546914E+02  0.51100000000E-03 0. -1.
        -11    1    3    3    0    0 -0.60710849757E+01 -0.91156570382E+01 -0.85684879289E+01  0.13905835526E+02  0.51100000000E-03 0.  1.
         12    1    3    3    0    0  0.40147548170E+01  0.32606187904E+02 -0.69500494612E+01  0.33579531465E+02  0.00000000000E+00 0. -1.
</event>
<event>
 7    1  0.3223600E-013  0.5930192E+02  0.7816164E-02  0.1266605E+00
        -11   -1    0    0    0    0  0.00000000000E+00  0.00000000000E+00  0.45593999997E+02  0.45594000000E+02  0.51100000000E-03 0. -1.
         11   -1    0    0    0    0 -0.00000000000E+00 -0.00000000000E+00 -0.45593999997E+02  0.45594000000E+02  0.51100000000E-03 0.  1.
    9900012    2    1    2    0    0  0.89265510973E+01 -0.25831918706E+02 -0.16424088745E+02  0.59301921068E+02  0.49999958128E+02 0.  0.
         12    1    1    2    0    0 -0.89265510973E+01  0.25831918706E+02  0.16424088745E+02  0.31886078932E+02  0.00000000000E+00 0. -1.
         11    1    3    3    0    0  0.21948211433E+02 -0.37249831533E+01 -0.90375938575E+00  0.22280400936E+02  0.51100000000E-03 0. -1.
        -11    1    3    3    0    0 -0.51574264907E+01 -0.70798534205E+00 -0.13098384067E+02  0.14094962103E+02  0.51100000000E-03 0.  1.
        -12    1    3    3    0    0 -0.78642338448E+01 -0.21398950211E+02 -0.24219452926E+01  0.22926558030E+02  0.00000000000E+00 0.  1.
</event>
<event>
 7    1  0.3223600E-013  0.5930194E+02  0.7816164E-02  0.1266605E+00
        -11   -1    0    0    0    0  0.00000000000E+00  0.00000000000E+00  0.45593999997E+02  0.45594000000E+02  0.51100000000E-03 0. -1.
         11   -1    0    0    0    0 -0.00000000000E+00 -0.00000000000E+00 -0.45593999997E+02  0.45594000000E+02  0.51100000000E-03 0.  1.
    9900012    2    1    2    0    0 -0.66940581546E+01 -0.15958296716E+02 -0.26781396673E+02  0.59301939465E+02  0.49999991679E+02 0.  0.
         12    1    1    2    0    0  0.66940581546E+01  0.15958296716E+02  0.26781396673E+02  0.31886060535E+02  0.00000000000E+00 0. -1.
         11    1    3    3    0    0 -0.71764352732E+01 -0.10142950886E+02 -0.13243299711E+02  0.18159451077E+02  0.51100000000E-03 0. -1.
        -11    1    3    3    0    0 -0.43100145560E+01 -0.19088392151E+02 -0.17745634041E+02  0.26416859544E+02  0.51100000000E-03 0.  1.
         12    1    3    3    0    0  0.47923916746E+01  0.13273046321E+02  0.42075370787E+01  0.14725628844E+02  0.00000000000E+00 0. -1.
</event>
<event>
 7    1  0.3223600E-013  0.5930195E+02  0.7816164E-02  0.1266605E+00
        -11   -1    0    0    0    0  0.00000000000E+00  0.00000000000E+00  0.45593999997E+02  0.45594000000E+02  0.51100000000E-03 0.  1.
         11   -1    0    0    0    0 -0.00000000000E+00 -0.00000000000E+00 -0.45593999997E+02  0.45594000000E+02  0.51100000000E-03 0. -1.
    9900012    2    1    2    0    0  0.18013990623E+02  0.45030119717E+01  0.25921793858E+02  0.59301947064E+02  0.50000005538E+02 0.  0.
         12    1    1    2    0    0 -0.18013990623E+02 -0.45030119717E+01 -0.25921793858E+02  0.31886052936E+02  0.00000000000E+00 0. -1.
         11    1    3    3    0    0 -0.15087211110E+01  0.31932305958E+01 -0.13892933675E+01  0.37951412820E+01  0.51100000000E-03 0. -1.
        -11    1    3    3    0    0 -0.79633838515E+01 -0.90096600898E+01  0.22835860318E+02  0.25808253990E+02  0.51100000000E-03 0.  1.
        -12    1    3    3    0    0  0.27486095585E+02  0.10319441466E+02  0.44752269081E+01  0.29698551792E+02  0.00000000000E+00 0.  1.
</event>
<event>
 7    1  0.3223600E-013  0.5930204E+02  0.7816164E-02  0.1266604E+00
        -11   -1    0    0    0    0  0.00000000000E+00  0.00000000000E+00  0.45593999997E+02  0.45594000000E+02  0.51100000000E-03 0. -1.
         11   -1    0    0    0    0 -0.00000000000E+00 -0.00000000000E+00 -0.45593999997E+02  0.45594000000E+02  0.51100000000E-03 0.  1.
    9900012    2    1    2    0    0  0.19056019425E+02 -0.12942946087E+01 -0.25532475031E+02  0.59302041396E+02  0.50000177577E+02 0.  0.
         12    1    1    2    0    0 -0.19056019425E+02  0.12942946087E+01  0.25532475031E+02  0.31885958604E+02  0.00000000000E+00 0. -1.
         11    1    3    3    0    0  0.21949957198E+02 -0.65509911017E+01  0.13537919205E+01  0.22946652441E+02  0.51100000000E-03 0. -1.
        -11    1    3    3    0    0 -0.47873791943E+01  0.10060191457E+02 -0.24864843371E+01  0.11415299222E+02  0.51100000000E-03 0.  1.
        -12    1    3    3    0    0  0.18934414209E+01 -0.48034949643E+01 -0.24399782615E+02  0.24940089734E+02  0.00000000000E+00 0.  1.
</event>
<event>
 7    1  0.3223600E-013  0.5930198E+02  0.7816164E-02  0.1266605E+00
        -11   -1    0    0    0    0  0.00000000000E+00  0.00000000000E+00  0.45593999997E+02  0.45594000000E+02  0.51100000000E-03 0. -1.
         11   -1    0    0    0    0 -0.00000000000E+00 -0.00000000000E+00 -0.45593999997E+02  0.45594000000E+02  0.51100000000E-03 0.  1.
    9900012    2    1    2    0    0  0.31671078871E+02  0.28029800483E+00 -0.36854708779E+01  0.59301976425E+02  0.50000059085E+02 0.  0.
         12    1    1    2    0    0 -0.31671078871E+02 -0.28029800483E+00  0.36854708779E+01  0.31886023575E+02  0.00000000000E+00 0. -1.
         11    1    3    3    0    0  0.16579729654E-01  0.56225925862E+01 -0.94487297783E+01  0.10995104227E+02  0.51100000000E-03 0. -1.
        -11    1    3    3    0    0  0.20386939018E+00 -0.13512597887E+02 -0.44778939438E+01  0.14236691990E+02  0.51100000000E-03 0.  1.
         12    1    3    3    0    0  0.31450629751E+02  0.81703033054E+01  0.10241152844E+02  0.34070180208E+02  0.00000000000E+00 0. -1.
</event>
<event>
 7    1  0.3223600E-013  0.5930194E+02  0.7816164E-02  0.1266605E+00
        -11   -1    0    0    0    0  0.00000000000E+00  0.00000000000E+00  0.45593999997E+02  0.45594000000E+02  0.51100000000E-03 0. -1.
         11   -1    0    0    0    0 -0.00000000000E+00 -0.00000000000E+00 -0.45593999997E+02  0.45594000000E+02  0.51100000000E-03 0.  1.
    9900012    2    1    2    0    0  0.29632514631E+02 -0.11772440371E+02  0.21068681645E+00  0.59301942473E+02  0.49999997165E+02 0.  0.
         12    1    1    2    0    0 -0.29632514631E+02  0.11772440371E+02 -0.21068681645E+00  0.31886057527E+02  0.00000000000E+00 0. -1.
         11    1    3    3    0    0  0.64610356536E+01  0.74660675738E+01 -0.15702170695E+01  0.99976361526E+01  0.51100000000E-03 0.  1.
        -11    1    3    3    0    0  0.84873291118E+01  0.37794920228E+01  0.16014128428E+02  0.18514092605E+02  0.51100000000E-03 0. -1.
         12    1    3    3    0    0  0.14684149866E+02 -0.23017999968E+02 -0.14233224542E+02  0.30790213716E+02  0.00000000000E+00 0. -1.
</event>
<event>
 7    1  0.3223600E-013  0.5930193E+02  0.7816164E-02  0.1266605E+00
        -11   -1    0    0    0    0  0.00000000000E+00  0.00000000000E+00  0.45593999997E+02  0.45594000000E+02  0.51100000000E-03 0. -1.
         11   -1    0    0    0    0 -0.00000000000E+00 -0.00000000000E+00 -0.45593999997E+02  0.45594000000E+02  0.51100000000E-03 0.  1.
    9900012    2    1    2    0    0  0.84297847100E+01 -0.30613920666E+02  0.29065731258E+01  0.59301928179E+02  0.49999971096E+02 0.  0.
         12    1    1    2    0    0 -0.84297847100E+01  0.30613920666E+02 -0.29065731258E+01  0.31886071821E+02  0.00000000000E+00 0. -1.
         11    1    3    3    0    0 -0.25951702011E+00 -0.22337769479E+01  0.35182713449E+01  0.41755648785E+01  0.51100000000E-03 0. -1.
        -11    1    3    3    0    0  0.23243080229E+02 -0.60987278141E+01  0.10579480087E+02  0.26255678598E+02  0.51100000000E-03 0.  1.
        -12    1    3    3    0    0 -0.14553778499E+02 -0.22281415904E+02 -0.11191178306E+02  0.28870684702E+02  0.00000000000E+00 0.  1.
</event>
<event>
 7    1  0.3223600E-013  0.5930196E+02  0.7816164E-02  0.1266605E+00
        -11   -1    0    0    0    0  0.00000000000E+00  0.00000000000E+00  0.45593999997E+02  0.45594000000E+02  0.51100000000E-03 0. -1.
         11   -1    0    0    0    0 -0.00000000000E+00 -0.00000000000E+00 -0.45593999997E+02  0.45594000000E+02  0.51100000000E-03 0.  1.
    9900012    2    1    2    0    0 -0.24996998902E+02 -0.15550186129E+02  0.12249938802E+02  0.59301964759E+02  0.50000037808E+02 0.  0.
         12    1    1    2    0    0  0.24996998902E+02  0.15550186129E+02 -0.12249938802E+02  0.31886035241E+02  0.00000000000E+00 0. -1.
         11    1    3    3    0    0 -0.48800005438E+01 -0.16453598915E+02  0.12806408562E+02  0.21413533643E+02  0.51100000000E-03 0. -1.
        -11    1    3    3    0    0 -0.21390050261E+02 -0.11484305650E+02 -0.47695068172E+01  0.24742104235E+02  0.51100000000E-03 0.  1.
         12    1    3    3    0    0  0.12730519026E+01  0.12387718436E+02  0.42130370581E+01  0.13146326881E+02  0.00000000000E+00 0. -1.
</event>
<event>
 7    1  0.3223600E-013  0.5930197E+02  0.7816164E-02  0.1266605E+00
        -11   -1    0    0    0    0  0.00000000000E+00  0.00000000000E+00  0.45593999997E+02  0.45594000000E+02  0.51100000000E-03 0.  1.
         11   -1    0    0    0    0 -0.00000000000E+00 -0.00000000000E+00 -0.45593999997E+02  0.45594000000E+02  0.51100000000E-03 0. -1.
    9900012    2    1    2    0    0  0.25144721442E+02  0.88394563545E+00  0.19587764483E+02  0.59301970242E+02  0.50000047808E+02 0.  0.
         12    1    1    2    0    0 -0.25144721442E+02 -0.88394563545E+00 -0.19587764483E+02  0.31886029758E+02  0.00000000000E+00 0. -1.
         11    1    3    3    0    0  0.13874253981E+02  0.24755093162E+01  0.98230368111E+01  0.17178915052E+02  0.51100000000E-03 0. -1.
        -11    1    3    3    0    0  0.94309375582E+01  0.11353995895E+02  0.20461482313E+02  0.25229507817E+02  0.51100000000E-03 0.  1.
         12    1    3    3    0    0  0.18395299024E+01 -0.12945559576E+02 -0.10696754640E+02  0.16893547373E+02  0.00000000000E+00 0. -1.
</event>
<event>
 7    1  0.3223600E-013  0.5930198E+02  0.7816164E-02  0.1266605E+00
        -11   -1    0    0    0    0  0.00000000000E+00  0.00000000000E+00  0.45593999997E+02  0.45594000000E+02  0.51100000000E-03 0. -1.
         11   -1    0    0    0    0 -0.00000000000E+00 -0.00000000000E+00 -0.45593999997E+02  0.45594000000E+02  0.51100000000E-03 0.  1.
    9900012    2    1    2    0    0  0.44530926249E+01  0.23416841549E+02 -0.21178750328E+02  0.59301984766E+02  0.50000074296E+02 0.  0.
         12    1    1    2    0    0 -0.44530926249E+01 -0.23416841549E+02  0.21178750328E+02  0.31886015234E+02  0.00000000000E+00 0. -1.
         11    1    3    3    0    0 -0.42694492003E+01 -0.32534087699E+01 -0.21374313231E+02  0.22038015597E+02  0.51100000000E-03 0. -1.
        -11    1    3    3    0    0  0.16018742641E+02  0.19323659637E+02 -0.51327644059E+01  0.25619313189E+02  0.51100000000E-03 0.  1.
         12    1    3    3    0    0 -0.72962008159E+01  0.73465906816E+01  0.53283273083E+01  0.11644655980E+02  0.00000000000E+00 0. -1.
</event>
<event>
 7    1  0.3223600E-013  0.5930195E+02  0.7816164E-02  0.1266605E+00
        -11   -1    0    0    0    0  0.00000000000E+00  0.00000000000E+00  0.45593999997E+02  0.45594000000E+02  0.51100000000E-03 0. -1.
         11   -1    0    0    0    0 -0.00000000000E+00 -0.00000000000E+00 -0.45593999997E+02  0.45594000000E+02  0.51100000000E-03 0.  1.
    9900012    2    1    2    0    0 -0.98239003920E+01 -0.29860099883E+02  0.53465660116E+01  0.59301947374E+02  0.50000006103E+02 0.  0.
         12    1    1    2    0    0  0.98239003920E+01  0.29860099883E+02 -0.53465660116E+01  0.31886052626E+02  0.00000000000E+00 0. -1.
         11    1    3    3    0    0 -0.27707403827E+01 -0.26708994888E+01  0.54153108153E+01  0.66435154726E+01  0.51100000000E-03 0. -1.
        -11    1    3    3    0    0 -0.23996566257E+02 -0.25853820141E+02  0.29474222814E+01  0.35396927923E+02  0.51100000000E-03 0.  1.
         12    1    3    3    0    0  0.16943406248E+02 -0.13353802535E+01 -0.30161670851E+01  0.17261503978E+02  0.00000000000E+00 0. -1.
</event>
<event>
 7    1  0.3223600E-013  0.5930194E+02  0.7816164E-02  0.1266605E+00
        -11   -1    0    0    0    0  0.00000000000E+00  0.00000000000E+00  0.45593999997E+02  0.45594000000E+02  0.51100000000E-03 0. -1.
         11   -1    0    0    0    0 -0.00000000000E+00 -0.00000000000E+00 -0.45593999997E+02  0.45594000000E+02  0.51100000000E-03 0.  1.
    9900012    2    1    2    0    0 -0.52521349603E+01  0.22967745209E+02 -0.21485313882E+02  0.59301937931E+02  0.49999988881E+02 0.  0.
         12    1    1    2    0    0  0.52521349603E+01 -0.22967745209E+02  0.21485313882E+02  0.31886062069E+02  0.00000000000E+00 0. -1.
         11    1    3    3    0    0 -0.89492474317E+01  0.35502332461E+01  0.47772502963E+01  0.10747804722E+02  0.51100000000E-03 0. -1.
        -11    1    3    3    0    0 -0.10361708661E+00 -0.35548168974E+01 -0.24982499224E+02  0.25234356093E+02  0.51100000000E-03 0.  1.
         12    1    3    3    0    0  0.38007295580E+01  0.22972328861E+02 -0.12800649547E+01  0.23319777116E+02  0.00000000000E+00 0. -1.
</event>
<event>
 7    1  0.3223600E-013  0.5930194E+02  0.7816164E-02  0.1266605E+00
        -11   -1    0    0    0    0  0.00000000000E+00  0.00000000000E+00  0.45593999997E+02  0.45594000000E+02  0.51100000000E-03 0. -1.
         11   -1    0    0    0    0 -0.00000000000E+00 -0.00000000000E+00 -0.45593999997E+02  0.45594000000E+02  0.51100000000E-03 0.  1.
    9900012    2    1    2    0    0  0.21450973382E+02 -0.16044667802E+02 -0.17295806501E+02  0.59301944327E+02  0.50000000545E+02 0.  0.
         12    1    1    2    0    0 -0.21450973382E+02  0.16044667802E+02  0.17295806501E+02  0.31886055673E+02  0.00000000000E+00 0. -1.
         11    1    3    3    0    0 -0.12128417236E+02  0.65988467817E+01 -0.49103502159E+01  0.14654515448E+02  0.51100000000E-03 0. -1.
        -11    1    3    3    0    0  0.92897043373E+01 -0.14554916043E+02 -0.42101232976E+01  0.17772712965E+02  0.51100000000E-03 0.  1.
        -12    1    3    3    0    0  0.24289686281E+02 -0.80885985400E+01 -0.81753329873E+01  0.26874715913E+02  0.00000000000E+00 0.  1.
</event>
<event>
 7    1  0.3223600E-013  0.5930193E+02  0.7816164E-02  0.1266605E+00
        -11   -1    0    0    0    0  0.00000000000E+00  0.00000000000E+00  0.45593999997E+02  0.45594000000E+02  0.51100000000E-03 0.  1.
         11   -1    0    0    0    0 -0.00000000000E+00 -0.00000000000E+00 -0.45593999997E+02  0.45594000000E+02  0.51100000000E-03 0. -1.
    9900012    2    1    2    0    0  0.15044123916E+02  0.27668402955E+02  0.49854823500E+01  0.59301933752E+02  0.49999981260E+02 0.  0.
         12    1    1    2    0    0 -0.15044123916E+02 -0.27668402955E+02 -0.49854823500E+01  0.31886066248E+02  0.00000000000E+00 0. -1.
         11    1    3    3    0    0  0.64661822758E+01 -0.12219998838E+02 -0.34931413368E+01  0.14259800892E+02  0.51100000000E-03 0. -1.
        -11    1    3    3    0    0 -0.17463718798E+01  0.13932448078E+02  0.97251324452E+01  0.17080431070E+02  0.51100000000E-03 0.  1.
        -12    1    3    3    0    0  0.10324313520E+02  0.25955953715E+02 -0.12465087584E+01  0.27961701790E+02  0.00000000000E+00 0.  1.
</event>
<event>
 7    1  0.3223600E-013  0.5930168E+02  0.7816164E-02  0.1266606E+00
        -11   -1    0    0    0    0  0.00000000000E+00  0.00000000000E+00  0.45593999997E+02  0.45594000000E+02  0.51100000000E-03 0.  1.
         11   -1    0    0    0    0 -0.00000000000E+00 -0.00000000000E+00 -0.45593999997E+02  0.45594000000E+02  0.51100000000E-03 0. -1.
    9900012    2    1    2    0    0 -0.66490861138E+01 -0.29660921366E+02  0.96310210424E+01  0.59301683676E+02  0.49999525178E+02 0.  0.
         12    1    1    2    0    0  0.66490861138E+01  0.29660921366E+02 -0.96310210424E+01  0.31886316324E+02  0.00000000000E+00 0. -1.
         11    1    3    3    0    0 -0.11093867454E+02  0.12848878093E+01  0.58722445881E+01  0.12617768762E+02  0.51100000000E-03 0. -1.
        -11    1    3    3    0    0 -0.41738684729E+01 -0.11744409824E+02  0.17546562035E+02  0.21522875729E+02  0.51100000000E-03 0.  1.
        -12    1    3    3    0    0  0.86186498129E+01 -0.19201399352E+02 -0.13787785580E+02  0.25161039185E+02  0.00000000000E+00 0.  1.
</event>
<event>
 7    1  0.3223600E-013  0.5930194E+02  0.7816164E-02  0.1266605E+00
        -11   -1    0    0    0    0  0.00000000000E+00  0.00000000000E+00  0.45593999997E+02  0.45594000000E+02  0.51100000000E-03 0.  1.
         11   -1    0    0    0    0 -0.00000000000E+00 -0.00000000000E+00 -0.45593999997E+02  0.45594000000E+02  0.51100000000E-03 0. -1.
    9900012    2    1    2    0    0  0.12058428295E+02 -0.29164090442E+02  0.45574978069E+01  0.59301942694E+02  0.49999997567E+02 0.  0.
         12    1    1    2    0    0 -0.12058428295E+02  0.29164090442E+02 -0.45574978069E+01  0.31886057306E+02  0.00000000000E+00 0. -1.
         11    1    3    3    0    0 -0.18226077886E+01  0.51337901772E+01  0.91576812728E-01  0.54484940404E+01  0.51100000000E-03 0. -1.
        -11    1    3    3    0    0  0.18267555902E+02 -0.22618167381E+02  0.18974937138E+02  0.34717910853E+02  0.51100000000E-03 0.  1.
         12    1    3    3    0    0 -0.43865198188E+01 -0.11679713238E+02 -0.14509016144E+02  0.19135537801E+02  0.00000000000E+00 0. -1.
</event>
<event>
 7    1  0.3223600E-013  0.5930195E+02  0.7816164E-02  0.1266605E+00
        -11   -1    0    0    0    0  0.00000000000E+00  0.00000000000E+00  0.45593999997E+02  0.45594000000E+02  0.51100000000E-03 0. -1.
         11   -1    0    0    0    0 -0.00000000000E+00 -0.00000000000E+00 -0.45593999997E+02  0.45594000000E+02  0.51100000000E-03 0.  1.
    9900012    2    1    2    0    0 -0.48611031114E+01 -0.61767067305E+01 -0.30902078013E+02  0.59301945760E+02  0.50000003158E+02 0.  0.
         12    1    1    2    0    0  0.48611031114E+01  0.61767067305E+01  0.30902078013E+02  0.31886054240E+02  0.00000000000E+00 0. -1.
         11    1    3    3    0    0  0.63826209899E+01 -0.52251609444E+01  0.38975488383E+01  0.91231049980E+01  0.51100000000E-03 0. -1.
        -11    1    3    3    0    0 -0.53954925571E+00 -0.15294223909E+02 -0.63513420643E+01  0.16569367660E+02  0.51100000000E-03 0.  1.
         12    1    3    3    0    0 -0.10704174846E+02  0.14342678122E+02 -0.28448284787E+02  0.33609473102E+02  0.00000000000E+00 0. -1.
</event>
<event>
 7    1  0.3223600E-013  0.5930202E+02  0.7816164E-02  0.1266604E+00
        -11   -1    0    0    0    0  0.00000000000E+00  0.00000000000E+00  0.45593999997E+02  0.45594000000E+02  0.51100000000E-03 0. -1.
         11   -1    0    0    0    0 -0.00000000000E+00 -0.00000000000E+00 -0.45593999997E+02  0.45594000000E+02  0.51100000000E-03 0.  1.
    9900012    2    1    2    0    0 -0.41937350817E+01  0.13172469851E+02 -0.28733503849E+02  0.59302021587E+02  0.50000141450E+02 0.  0.
         12    1    1    2    0    0  0.41937350817E+01 -0.13172469851E+02  0.28733503849E+02  0.31885978413E+02  0.00000000000E+00 0. -1.
         11    1    3    3    0    0  0.80696207066E+01  0.13803121319E+02 -0.14434446507E+01  0.16053923795E+02  0.51100000000E-03 0. -1.
        -11    1    3    3    0    0 -0.98220833677E+00  0.14323014328E+02 -0.83431550865E+01  0.16604870060E+02  0.51100000000E-03 0.  1.
        -12    1    3    3    0    0 -0.11281147452E+02 -0.14953665796E+02 -0.18946904111E+02  0.26643227732E+02  0.00000000000E+00 0.  1.
</event>
<event>
 7    1  0.3223600E-013  0.5930167E+02  0.7816164E-02  0.1266606E+00
        -11   -1    0    0    0    0  0.00000000000E+00  0.00000000000E+00  0.45593999997E+02  0.45594000000E+02  0.51100000000E-03 0. -1.
         11   -1    0    0    0    0 -0.00000000000E+00 -0.00000000000E+00 -0.45593999997E+02  0.45594000000E+02  0.51100000000E-03 0.  1.
    9900012    2    1    2    0    0 -0.21453880378E+02 -0.12784699328E+02 -0.19824747667E+02  0.59301668442E+02  0.49999497395E+02 0.  0.
         12    1    1    2    0    0  0.21453880378E+02  0.12784699328E+02  0.19824747667E+02  0.31886331558E+02  0.00000000000E+00 0. -1.
         11    1    3    3    0    0 -0.24387247316E+01 -0.19062013159E+02 -0.43113161451E+01  0.19695054485E+02  0.51100000000E-03 0. -1.
        -11    1    3    3    0    0 -0.99664729807E+01  0.72346355820E+01  0.78018152248E+01  0.14578712451E+02  0.51100000000E-03 0.  1.
        -12    1    3    3    0    0 -0.90486826653E+01 -0.95732175073E+00 -0.23315246747E+02  0.25027901506E+02  0.00000000000E+00 0.  1.
</event>
<event>
 7    1  0.3223600E-013  0.5930192E+02  0.7816164E-02  0.1266605E+00
        -11   -1    0    0    0    0  0.00000000000E+00  0.00000000000E+00  0.45593999997E+02  0.45594000000E+02  0.51100000000E-03 0.  1.
         11   -1    0    0    0    0 -0.00000000000E+00 -0.00000000000E+00 -0.45593999997E+02  0.45594000000E+02  0.51100000000E-03 0. -1.
    9900012    2    1    2    0    0  0.15186688089E+02 -0.14223501678E+02  0.24161511146E+02  0.59301919715E+02  0.49999955659E+02 0.  0.
         12    1    1    2    0    0 -0.15186688089E+02  0.14223501678E+02 -0.24161511146E+02  0.31886080285E+02  0.00000000000E+00 0. -1.
         11    1    3    3    0    0 -0.11220175484E+01 -0.75212534822E+01  0.76559425706E+01  0.10790812492E+02  0.51100000000E-03 0.  1.
        -11    1    3    3    0    0  0.18145254778E+02 -0.22584248701E+02  0.14503817668E+02  0.32398445759E+02  0.51100000000E-03 0. -1.
         12    1    3    3    0    0 -0.18365491411E+01  0.15882000505E+02  0.20017509069E+01  0.16112661465E+02  0.00000000000E+00 0. -1.
</event>
<event>
 7    1  0.3223600E-013  0.5930192E+02  0.7816164E-02  0.1266605E+00
        -11   -1    0    0    0    0  0.00000000000E+00  0.00000000000E+00  0.45593999997E+02  0.45594000000E+02  0.51100000000E-03 0.  1.
         11   -1    0    0    0    0 -0.00000000000E+00 -0.00000000000E+00 -0.45593999997E+02  0.45594000000E+02  0.51100000000E-03 0. -1.
    9900012    2    1    2    0    0  0.25345062067E+02  0.12618971772E+02  0.14666668336E+02  0.59301924985E+02  0.49999965271E+02 0.  0.
         12    1    1    2    0    0 -0.25345062067E+02 -0.12618971772E+02 -0.14666668336E+02  0.31886075015E+02  0.00000000000E+00 0. -1.
         11    1    3    3    0    0  0.83135003757E+01  0.27724443554E+01  0.55219286874E+01  0.10358206065E+02  0.51100000000E-03 0. -1.
        -11    1    3    3    0    0  0.30207129743E+02  0.11195272391E+02 -0.10467998179E+01  0.32231981033E+02  0.51100000000E-03 0.  1.
         12    1    3    3    0    0 -0.13175568052E+02 -0.13487449748E+01  0.10191539467E+02  0.16711737887E+02  0.00000000000E+00 0. -1.
</event>
<event>
 7    1  0.3223600E-013  0.5930194E+02  0.7816164E-02  0.1266605E+00
        -11   -1    0    0    0    0  0.00000000000E+00  0.00000000000E+00  0.45593999997E+02  0.45594000000E+02  0.51100000000E-03 0.  1.
         11   -1    0    0    0    0 -0.00000000000E+00 -0.00000000000E+00 -0.45593999997E+02  0.45594000000E+02  0.51100000000E-03 0. -1.
    9900012    2    1    2    0    0  0.52314394819E+01 -0.13303511586E+02  0.28502098917E+02  0.59301936865E+02  0.49999986937E+02 0.  0.
         12    1    1    2    0    0 -0.52314394819E+01  0.13303511586E+02 -0.28502098917E+02  0.31886063135E+02  0.00000000000E+00 0. -1.
         11    1    3    3    0    0 -0.30505937559E+01  0.10142918695E+02  0.10833820999E+01  0.10647001406E+02  0.51100000000E-03 0. -1.
        -11    1    3    3    0    0 -0.43278680042E+01 -0.11094201866E+02 -0.40459902392E+01  0.12577034379E+02  0.51100000000E-03 0.  1.
        -12    1    3    3    0    0  0.12609901242E+02 -0.12352228415E+02  0.31464707057E+02  0.36077901079E+02  0.00000000000E+00 0.  1.
</event>
<event>
 7    1  0.3223600E-013  0.5930194E+02  0.7816164E-02  0.1266605E+00
        -11   -1    0    0    0    0  0.00000000000E+00  0.00000000000E+00  0.45593999997E+02  0.45594000000E+02  0.51100000000E-03 0. -1.
         11   -1    0    0    0    0 -0.00000000000E+00 -0.00000000000E+00 -0.45593999997E+02  0.45594000000E+02  0.51100000000E-03 0.  1.
    9900012    2    1    2    0    0 -0.85704936716E+01 -0.90635894287E+01 -0.29344828319E+02  0.59301937775E+02  0.49999988597E+02 0.  0.
         12    1    1    2    0    0  0.85704936716E+01  0.90635894287E+01  0.29344828319E+02  0.31886062225E+02  0.00000000000E+00 0. -1.
         11    1    3    3    0    0  0.13100687172E+02 -0.42580359600E+01 -0.34592045275E+01  0.14202991616E+02  0.51100000000E-03 0. -1.
        -11    1    3    3    0    0  0.31200642503E+01 -0.97714088270E+01 -0.22782264894E+01  0.10507404417E+02  0.51100000000E-03 0.  1.
        -12    1    3    3    0    0 -0.24791245094E+02  0.49658553584E+01 -0.23607397302E+02  0.34591541743E+02  0.00000000000E+00 0.  1.
</event>
<event>
 7    1  0.3223600E-013  0.5930187E+02  0.7816164E-02  0.1266605E+00
        -11   -1    0    0    0    0  0.00000000000E+00  0.00000000000E+00  0.45593999997E+02  0.45594000000E+02  0.51100000000E-03 0.  1.
         11   -1    0    0    0    0 -0.00000000000E+00 -0.00000000000E+00 -0.45593999997E+02  0.45594000000E+02  0.51100000000E-03 0. -1.
    9900012    2    1    2    0    0 -0.10534874184E+02  0.90362922145E+01  0.28706920750E+02  0.59301867434E+02  0.49999860312E+02 0.  0.
         12    1    1    2    0    0  0.10534874184E+02 -0.90362922145E+01 -0.28706920750E+02  0.31886132566E+02  0.00000000000E+00 0. -1.
         11    1    3    3    0    0  0.48877352095E+01  0.36688863435E+00 -0.49126694695E+00  0.49260436683E+01  0.51100000000E-03 0. -1.
        -11    1    3    3    0    0  0.12351195843E+02  0.39710312038E+01  0.21606351006E+02  0.25202292190E+02  0.51100000000E-03 0.  1.
        -12    1    3    3    0    0 -0.27773805236E+02  0.46983723764E+01  0.75918366906E+01  0.29173531576E+02  0.00000000000E+00 0.  1.
</event>
<event>
 7    1  0.3223600E-013  0.5930195E+02  0.7816164E-02  0.1266605E+00
        -11   -1    0    0    0    0  0.00000000000E+00  0.00000000000E+00  0.45593999997E+02  0.45594000000E+02  0.51100000000E-03 0.  1.
         11   -1    0    0    0    0 -0.00000000000E+00 -0.00000000000E+00 -0.45593999997E+02  0.45594000000E+02  0.51100000000E-03 0. -1.
    9900012    2    1    2    0    0  0.10381099094E+02 -0.27686596340E+02  0.11933382356E+02  0.59301945843E+02  0.50000003310E+02 0.  0.
         12    1    1    2    0    0 -0.10381099094E+02  0.27686596340E+02 -0.11933382356E+02  0.31886054157E+02  0.00000000000E+00 0. -1.
         11    1    3    3    0    0 -0.73376917501E+01 -0.17410923083E+02  0.29832406295E+01  0.19128034079E+02  0.51100000000E-03 0. -1.
        -11    1    3    3    0    0 -0.24774849058E+01 -0.12668781922E+02  0.14178939506E+02  0.19174939182E+02  0.51100000000E-03 0.  1.
         12    1    3    3    0    0  0.20196275750E+02  0.23931086659E+01 -0.52287977798E+01  0.20998972581E+02  0.00000000000E+00 0. -1.
</event>
<event>
 7    1  0.3223600E-013  0.5930194E+02  0.7816164E-02  0.1266605E+00
        -11   -1    0    0    0    0  0.00000000000E+00  0.00000000000E+00  0.45593999997E+02  0.45594000000E+02  0.51100000000E-03 0. -1.
         11   -1    0    0    0    0 -0.00000000000E+00 -0.00000000000E+00 -0.45593999997E+02  0.45594000000E+02  0.51100000000E-03 0.  1.
    9900012    2    1    2    0    0  0.26250287871E+02 -0.16926711845E+02 -0.64132450538E+01  0.59301938793E+02  0.49999990453E+02 0.  0.
         12    1    1    2    0    0 -0.26250287871E+02  0.16926711845E+02  0.64132450538E+01  0.31886061207E+02  0.00000000000E+00 0. -1.
         11    1    3    3    0    0 -0.20379196518E+01  0.28627087615E+01 -0.36157576795E+01  0.50420156504E+01  0.51100000000E-03 0. -1.
        -11    1    3    3    0    0  0.19120352408E+02  0.12292161428E+00 -0.19034612295E+02  0.26979982420E+02  0.51100000000E-03 0.  1.
         12    1    3    3    0    0  0.91678551148E+01 -0.19912342221E+02  0.16237124920E+02  0.27279940722E+02  0.00000000000E+00 0. -1.
</event>
<event>
 7    1  0.3223600E-013  0.5930195E+02  0.7816164E-02  0.1266605E+00
        -11   -1    0    0    0    0  0.00000000000E+00  0.00000000000E+00  0.45593999997E+02  0.45594000000E+02  0.51100000000E-03 0.  1.
         11   -1    0    0    0    0 -0.00000000000E+00 -0.00000000000E+00 -0.45593999997E+02  0.45594000000E+02  0.51100000000E-03 0. -1.
    9900012    2    1    2    0    0 -0.18338006527E+02 -0.19102477090E+02  0.17763246171E+02  0.59301952442E+02  0.50000015346E+02 0.  0.
         12    1    1    2    0    0  0.18338006527E+02  0.19102477090E+02 -0.17763246171E+02  0.31886047558E+02  0.00000000000E+00 0. -1.
         11    1    3    3    0    0 -0.10617340021E+02 -0.65572513627E+01 -0.26813228437E+01  0.12763813968E+02  0.51100000000E-03 0. -1.
        -11    1    3    3    0    0 -0.14476358529E+02  0.37690953031E+01 -0.48183895474E+01  0.15715849126E+02  0.51100000000E-03 0.  1.
        -12    1    3    3    0    0  0.67556920225E+01 -0.16314321030E+02  0.25262958562E+02  0.30822289348E+02  0.00000000000E+00 0.  1.
</event>
<event>
 7    1  0.3223600E-013  0.5930193E+02  0.7816164E-02  0.1266605E+00
        -11   -1    0    0    0    0  0.00000000000E+00  0.00000000000E+00  0.45593999997E+02  0.45594000000E+02  0.51100000000E-03 0.  1.
         11   -1    0    0    0    0 -0.00000000000E+00 -0.00000000000E+00 -0.45593999997E+02  0.45594000000E+02  0.51100000000E-03 0. -1.
    9900012    2    1    2    0    0 -0.37806925776E+01  0.18345452462E+02  0.25804495508E+02  0.59301933281E+02  0.49999980401E+02 0.  0.
         12    1    1    2    0    0  0.37806925776E+01 -0.18345452462E+02 -0.25804495508E+02  0.31886066719E+02  0.00000000000E+00 0. -1.
         11    1    3    3    0    0 -0.18509836706E+01  0.40200316879E+01  0.12627866152E+02  0.13380949112E+02  0.51100000000E-03 0. -1.
        -11    1    3    3    0    0 -0.18215331469E+02  0.18506181344E+02  0.26916819294E+01  0.26105980164E+02  0.51100000000E-03 0.  1.
         12    1    3    3    0    0  0.16285622562E+02 -0.41807605707E+01  0.10484947426E+02  0.19815004005E+02  0.00000000000E+00 0. -1.
</event>
<event>
 7    1  0.3223600E-013  0.5930196E+02  0.7816164E-02  0.1266605E+00
        -11   -1    0    0    0    0  0.00000000000E+00  0.00000000000E+00  0.45593999997E+02  0.45594000000E+02  0.51100000000E-03 0. -1.
         11   -1    0    0    0    0 -0.00000000000E+00 -0.00000000000E+00 -0.45593999997E+02  0.45594000000E+02  0.51100000000E-03 0.  1.
    9900012    2    1    2    0    0 -0.27502451254E+02  0.14653445478E+02  0.67536150461E+01  0.59301959080E+02  0.50000027452E+02 0.  0.
         12    1    1    2    0    0  0.27502451254E+02 -0.14653445478E+02 -0.67536150461E+01  0.31886040920E+02  0.00000000000E+00 0. -1.
         11    1    3    3    0    0 -0.15608401409E+02  0.22073530634E+02  0.45385812863E+01  0.27412801198E+02  0.51100000000E-03 0. -1.
        -11    1    3    3    0    0 -0.20797606584E+02 -0.89762416410E+01  0.28384855903E+01  0.22829155796E+02  0.51100000000E-03 0.  1.
         12    1    3    3    0    0  0.89035567394E+01  0.15561564856E+01 -0.62345183048E+00  0.90600020863E+01  0.00000000000E+00 0. -1.
</event>
<event>
 7    1  0.3223600E-013  0.5930194E+02  0.7816164E-02  0.1266605E+00
        -11   -1    0    0    0    0  0.00000000000E+00  0.00000000000E+00  0.45593999997E+02  0.45594000000E+02  0.51100000000E-03 0.  1.
         11   -1    0    0    0    0 -0.00000000000E+00 -0.00000000000E+00 -0.45593999997E+02  0.45594000000E+02  0.51100000000E-03 0. -1.
    9900012    2    1    2    0    0  0.23013544972E+01 -0.50879700600E+01  0.31393265966E+02  0.59301940039E+02  0.49999992725E+02 0.  0.
         12    1    1    2    0    0 -0.23013544972E+01  0.50879700600E+01 -0.31393265966E+02  0.31886059961E+02  0.00000000000E+00 0. -1.
         11    1    3    3    0    0  0.10645407327E+02  0.44092309767E+01 -0.42196480489E+01  0.12270755677E+02  0.51100000000E-03 0. -1.
        -11    1    3    3    0    0 -0.57483011217E+00 -0.52536110825E+01 -0.38812290151E+01  0.65570418629E+01  0.51100000000E-03 0.  1.
        -12    1    3    3    0    0 -0.77692227180E+01 -0.42435899542E+01  0.39494143030E+02  0.40474142499E+02  0.00000000000E+00 0.  1.
</event>
<event>
 7    1  0.3223600E-013  0.5930195E+02  0.7816164E-02  0.1266605E+00
        -11   -1    0    0    0    0  0.00000000000E+00  0.00000000000E+00  0.45593999997E+02  0.45594000000E+02  0.51100000000E-03 0. -1.
         11   -1    0    0    0    0 -0.00000000000E+00 -0.00000000000E+00 -0.45593999997E+02  0.45594000000E+02  0.51100000000E-03 0.  1.
    9900012    2    1    2    0    0 -0.23922662646E+02 -0.35073404489E+01 -0.20787615305E+02  0.59301950148E+02  0.50000011162E+02 0.  0.
         12    1    1    2    0    0  0.23922662646E+02  0.35073404489E+01  0.20787615305E+02  0.31886049852E+02  0.00000000000E+00 0. -1.
         11    1    3    3    0    0  0.78664013293E+01 -0.47874293557E+01 -0.56582643264E+01  0.10808131437E+02  0.51100000000E-03 0. -1.
        -11    1    3    3    0    0 -0.23572266263E+02 -0.97772074795E+01 -0.21450075037E+02  0.33336935106E+02  0.51100000000E-03 0.  1.
        -12    1    3    3    0    0 -0.82167977114E+01  0.11057296386E+02  0.63207240580E+01  0.15156883605E+02  0.00000000000E+00 0.  1.
</event>
<event>
 7    1  0.3223600E-013  0.5930195E+02  0.7816164E-02  0.1266605E+00
        -11   -1    0    0    0    0  0.00000000000E+00  0.00000000000E+00  0.45593999997E+02  0.45594000000E+02  0.51100000000E-03 0.  1.
         11   -1    0    0    0    0 -0.00000000000E+00 -0.00000000000E+00 -0.45593999997E+02  0.45594000000E+02  0.51100000000E-03 0. -1.
    9900012    2    1    2    0    0  0.17201597513E+02  0.16561841185E+02  0.21131270979E+02  0.59301950486E+02  0.50000011778E+02 0.  0.
         12    1    1    2    0    0 -0.17201597513E+02 -0.16561841185E+02 -0.21131270979E+02  0.31886049514E+02  0.00000000000E+00 0. -1.
         11    1    3    3    0    0 -0.68864366757E+01  0.20742565306E+02  0.16094650019E+02  0.27142490399E+02  0.51100000000E-03 0. -1.
        -11    1    3    3    0    0 -0.29178146553E+01 -0.36661508992E+01  0.13227215936E-01  0.46855607988E+01  0.51100000000E-03 0.  1.
         12    1    3    3    0    0  0.27005848844E+02 -0.51457322234E+00  0.50233937449E+01  0.27473899288E+02  0.00000000000E+00 0. -1.
</event>
<event>
 7    1  0.3223600E-013  0.5930196E+02  0.7816164E-02  0.1266605E+00
        -11   -1    0    0    0    0  0.00000000000E+00  0.00000000000E+00  0.45593999997E+02  0.45594000000E+02  0.51100000000E-03 0. -1.
         11   -1    0    0    0    0 -0.00000000000E+00 -0.00000000000E+00 -0.45593999997E+02  0.45594000000E+02  0.51100000000E-03 0.  1.
    9900012    2    1    2    0    0 -0.26854001552E+02  0.10163824479E+02 -0.13866453011E+02  0.59301964710E+02  0.50000037720E+02 0.  0.
         12    1    1    2    0    0  0.26854001552E+02 -0.10163824479E+02  0.13866453011E+02  0.31886035290E+02  0.00000000000E+00 0. -1.
         11    1    3    3    0    0  0.37484169265E+00  0.19226634685E+02 -0.34696053500E+00  0.19233418040E+02  0.51100000000E-03 0.  1.
        -11    1    3    3    0    0 -0.68066253894E+00 -0.50132201825E+01 -0.12169652698E+02  0.13179382578E+02  0.51100000000E-03 0. -1.
         12    1    3    3    0    0 -0.26548180706E+02 -0.40495900236E+01 -0.13498397776E+01  0.26889164092E+02  0.00000000000E+00 0. -1.
</event>
<event>
 7    1  0.3223600E-013  0.5930193E+02  0.7816164E-02  0.1266605E+00
        -11   -1    0    0    0    0  0.00000000000E+00  0.00000000000E+00  0.45593999997E+02  0.45594000000E+02  0.51100000000E-03 0.  1.
         11   -1    0    0    0    0 -0.00000000000E+00 -0.00000000000E+00 -0.45593999997E+02  0.45594000000E+02  0.51100000000E-03 0. -1.
    9900012    2    1    2    0    0  0.10448890873E+02  0.24077280117E+02 -0.18105983735E+02  0.59301931172E+02  0.49999976554E+02 0.  0.
         12    1    1    2    0    0 -0.10448890873E+02 -0.24077280117E+02  0.18105983735E+02  0.31886068828E+02  0.00000000000E+00 0. -1.
         11    1    3    3    0    0  0.13858664638E+02 -0.41901609671E+01 -0.66128299567E+00  0.14493354682E+02  0.51100000000E-03 0. -1.
        -11    1    3    3    0    0  0.11047692677E+02  0.11630831719E+02  0.99395582198E+00  0.16072202973E+02  0.51100000000E-03 0.  1.
         12    1    3    3    0    0 -0.14457466442E+02  0.16636609365E+02 -0.18438656561E+02  0.28736373517E+02  0.00000000000E+00 0. -1.
</event>
<event>
 7    1  0.3223600E-013  0.5930193E+02  0.7816164E-02  0.1266605E+00
        -11   -1    0    0    0    0  0.00000000000E+00  0.00000000000E+00  0.45593999997E+02  0.45594000000E+02  0.51100000000E-03 0. -1.
         11   -1    0    0    0    0 -0.00000000000E+00 -0.00000000000E+00 -0.45593999997E+02  0.45594000000E+02  0.51100000000E-03 0.  1.
    9900012    2    1    2    0    0  0.25035856154E+02  0.14455340631E+02 -0.13452517763E+02  0.59301934073E+02  0.49999981845E+02 0.  0.
         12    1    1    2    0    0 -0.25035856154E+02 -0.14455340631E+02  0.13452517763E+02  0.31886065927E+02  0.00000000000E+00 0. -1.
         11    1    3    3    0    0 -0.79051674237E+01 -0.75852876590E+01 -0.34734016393E+00  0.10961245655E+02  0.51100000000E-03 0. -1.
        -11    1    3    3    0    0 -0.15101866592E+01  0.98657951634E+01 -0.32345876221E+01  0.10491765118E+02  0.51100000000E-03 0.  1.
        -12    1    3    3    0    0  0.34451210237E+02  0.12174833127E+02 -0.98705899766E+01  0.37848923300E+02  0.00000000000E+00 0.  1.
</event>
<event>
 7    1  0.3223600E-013  0.5930188E+02  0.7816164E-02  0.1266605E+00
        -11   -1    0    0    0    0  0.00000000000E+00  0.00000000000E+00  0.45593999997E+02  0.45594000000E+02  0.51100000000E-03 0.  1.
         11   -1    0    0    0    0 -0.00000000000E+00 -0.00000000000E+00 -0.45593999997E+02  0.45594000000E+02  0.51100000000E-03 0. -1.
    9900012    2    1    2    0    0  0.15747687250E+02 -0.25834263282E+02  0.10066065989E+02  0.59301882369E+02  0.49999887550E+02 0.  0.
         12    1    1    2    0    0 -0.15747687250E+02  0.25834263282E+02 -0.10066065989E+02  0.31886117631E+02  0.00000000000E+00 0. -1.
         11    1    3    3    0    0  0.11228998322E+02 -0.45834660325E+01  0.57723533594E+01  0.13432000140E+02  0.51100000000E-03 0.  1.
        -11    1    3    3    0    0  0.18721092730E+02  0.36448865363E+00 -0.30785621557E+01  0.18976029885E+02  0.51100000000E-03 0. -1.
        -12    1    3    3    0    0 -0.14202403802E+02 -0.21615285903E+02  0.73722747854E+01  0.26893852345E+02  0.00000000000E+00 0.  1.
</event>
<event>
 7    1  0.3223600E-013  0.5930195E+02  0.7816164E-02  0.1266605E+00
        -11   -1    0    0    0    0  0.00000000000E+00  0.00000000000E+00  0.45593999997E+02  0.45594000000E+02  0.51100000000E-03 0.  1.
         11   -1    0    0    0    0 -0.00000000000E+00 -0.00000000000E+00 -0.45593999997E+02  0.45594000000E+02  0.51100000000E-03 0. -1.
    9900012    2    1    2    0    0 -0.77535342125E+01  0.27794254515E+02  0.13567692925E+02  0.59301950258E+02  0.50000011363E+02 0.  0.
         12    1    1    2    0    0  0.77535342125E+01 -0.27794254515E+02 -0.13567692925E+02  0.31886049742E+02  0.00000000000E+00 0. -1.
         11    1    3    3    0    0 -0.25568622542E+01  0.90865639493E+01 -0.15807440807E+01  0.95708902982E+01  0.51100000000E-03 0. -1.
        -11    1    3    3    0    0 -0.20379122923E+02  0.15023373833E+02  0.21154988173E+02  0.32993089235E+02  0.51100000000E-03 0.  1.
        -12    1    3    3    0    0  0.15182450965E+02  0.36843167325E+01 -0.60065511667E+01  0.16737970725E+02  0.00000000000E+00 0.  1.
</event>
<event>
 7    1  0.3223600E-013  0.5930194E+02  0.7816164E-02  0.1266605E+00
        -11   -1    0    0    0    0  0.00000000000E+00  0.00000000000E+00  0.45593999997E+02  0.45594000000E+02  0.51100000000E-03 0.  1.
         11   -1    0    0    0    0 -0.00000000000E+00 -0.00000000000E+00 -0.45593999997E+02  0.45594000000E+02  0.51100000000E-03 0. -1.
    9900012    2    1    2    0    0 -0.12706487141E+01  0.11727893503E+01  0.31839137158E+02  0.59301942891E+02  0.49999997927E+02 0.  0.
         12    1    1    2    0    0  0.12706487141E+01 -0.11727893503E+01 -0.31839137158E+02  0.31886057109E+02  0.00000000000E+00 0. -1.
         11    1    3    3    0    0 -0.77337859619E+01  0.49987021413E+01  0.10665964252E+02  0.14091176746E+02  0.51100000000E-03 0. -1.
        -11    1    3    3    0    0 -0.16283613949E+02 -0.53431970107E+01  0.96168468547E+01  0.19651706827E+02  0.51100000000E-03 0.  1.
         12    1    3    3    0    0  0.22746751197E+02  0.15172842198E+01  0.11556326051E+02  0.25559059318E+02  0.00000000000E+00 0. -1.
</event>
<event>
 7    1  0.3223600E-013  0.5930200E+02  0.7816164E-02  0.1266605E+00
        -11   -1    0    0    0    0  0.00000000000E+00  0.00000000000E+00  0.45593999997E+02  0.45594000000E+02  0.51100000000E-03 0. -1.
         11   -1    0    0    0    0 -0.00000000000E+00 -0.00000000000E+00 -0.45593999997E+02  0.45594000000E+02  0.51100000000E-03 0.  1.
    9900012    2    1    2    0    0  0.28409982387E+02  0.93850748332E+01 -0.11023175185E+02  0.59301998055E+02  0.50000098533E+02 0.  0.
         12    1    1    2    0    0 -0.28409982387E+02 -0.93850748332E+01  0.11023175185E+02  0.31886001945E+02  0.00000000000E+00 0. -1.
         11    1    3    3    0    0  0.11506827256E+02  0.10966034857E+02  0.87181266174E+01  0.18129167823E+02  0.51100000000E-03 0. -1.
        -11    1    3    3    0    0 -0.93120263353E+01 -0.31040617627E+01 -0.43623368615E+01  0.10741462519E+02  0.51100000000E-03 0.  1.
        -12    1    3    3    0    0  0.26215181466E+02  0.15231017387E+01 -0.15378964941E+02  0.30431367713E+02  0.00000000000E+00 0.  1.
</event>
<event>
 7    1  0.3223600E-013  0.5930195E+02  0.7816164E-02  0.1266605E+00
        -11   -1    0    0    0    0  0.00000000000E+00  0.00000000000E+00  0.45593999997E+02  0.45594000000E+02  0.51100000000E-03 0.  1.
         11   -1    0    0    0    0 -0.00000000000E+00 -0.00000000000E+00 -0.45593999997E+02  0.45594000000E+02  0.51100000000E-03 0. -1.
    9900012    2    1    2    0    0  0.94534356769E+01  0.30216148549E+02  0.37864595128E+01  0.59301947330E+02  0.50000006023E+02 0.  0.
         12    1    1    2    0    0 -0.94534356769E+01 -0.30216148549E+02 -0.37864595128E+01  0.31886052670E+02  0.00000000000E+00 0. -1.
         11    1    3    3    0    0  0.20342833082E+02  0.44777309819E+01  0.23884719261E+01  0.20966299887E+02  0.51100000000E-03 0. -1.
        -11    1    3    3    0    0 -0.19160120729E+01 -0.45573604759E+01 -0.39011622092E+01  0.62975950659E+01  0.51100000000E-03 0.  1.
        -12    1    3    3    0    0 -0.89733853323E+01  0.30295778043E+02  0.52991497960E+01  0.32038052377E+02  0.00000000000E+00 0.  1.
</event>
<event>
 7    1  0.3223600E-013  0.5930193E+02  0.7816164E-02  0.1266605E+00
        -11   -1    0    0    0    0  0.00000000000E+00  0.00000000000E+00  0.45593999997E+02  0.45594000000E+02  0.51100000000E-03 0.  1.
         11   -1    0    0    0    0 -0.00000000000E+00 -0.00000000000E+00 -0.45593999997E+02  0.45594000000E+02  0.51100000000E-03 0. -1.
    9900012    2    1    2    0    0 -0.24218153232E+02 -0.20308510588E+02  0.42150796478E+01  0.59301930241E+02  0.49999974856E+02 0.  0.
         12    1    1    2    0    0  0.24218153232E+02  0.20308510588E+02 -0.42150796478E+01  0.31886069759E+02  0.00000000000E+00 0. -1.
         11    1    3    3    0    0 -0.19181943380E+01  0.12043026358E+02 -0.54355917298E+00  0.12206941067E+02  0.51100000000E-03 0. -1.
        -11    1    3    3    0    0 -0.56153354206E+01 -0.33192434703E+01  0.11233133785E+02  0.12989713777E+02  0.51100000000E-03 0.  1.
        -12    1    3    3    0    0 -0.16684623473E+02 -0.29032293476E+02 -0.64744949644E+01  0.34105275397E+02  0.00000000000E+00 0.  1.
</event>
<event>
 7    1  0.3223600E-013  0.5930196E+02  0.7816164E-02  0.1266605E+00
        -11   -1    0    0    0    0  0.00000000000E+00  0.00000000000E+00  0.45593999997E+02  0.45594000000E+02  0.51100000000E-03 0. -1.
         11   -1    0    0    0    0 -0.00000000000E+00 -0.00000000000E+00 -0.45593999997E+02  0.45594000000E+02  0.51100000000E-03 0.  1.
    9900012    2    1    2    0    0 -0.19621534290E+01 -0.21122621735E+02 -0.23805549568E+02  0.59301962534E+02  0.50000033751E+02 0.  0.
         12    1    1    2    0    0  0.19621534290E+01  0.21122621735E+02  0.23805549568E+02  0.31886037466E+02  0.00000000000E+00 0. -1.
         11    1    3    3    0    0  0.68010225986E+01  0.43133800553E+01  0.32280084493E+01  0.86763583776E+01  0.51100000000E-03 0. -1.
        -11    1    3    3    0    0 -0.28230610981E+00 -0.97443380462E+01 -0.30877024554E+02  0.32379352469E+02  0.51100000000E-03 0.  1.
         12    1    3    3    0    0 -0.84808699178E+01 -0.15691663744E+02  0.38434665368E+01  0.18246251687E+02  0.00000000000E+00 0. -1.
</event>
<event>
 7    1  0.3223600E-013  0.5930201E+02  0.7816164E-02  0.1266605E+00
        -11   -1    0    0    0    0  0.00000000000E+00  0.00000000000E+00  0.45593999997E+02  0.45594000000E+02  0.51100000000E-03 0.  1.
         11   -1    0    0    0    0 -0.00000000000E+00 -0.00000000000E+00 -0.45593999997E+02  0.45594000000E+02  0.51100000000E-03 0. -1.
    9900012    2    1    2    0    0  0.17491425774E+02  0.24465318325E+02  0.10593127027E+02  0.59302013790E+02  0.50000127229E+02 0.  0.
         12    1    1    2    0    0 -0.17491425774E+02 -0.24465318325E+02 -0.10593127027E+02  0.31885986210E+02  0.00000000000E+00 0. -1.
         11    1    3    3    0    0 -0.12839434546E+02  0.14365234749E+02  0.72113040968E+00  0.19280328789E+02  0.51100000000E-03 0. -1.
        -11    1    3    3    0    0 -0.99725201863E+00  0.20929829165E+01  0.72140504929E+01  0.75774411151E+01  0.51100000000E-03 0.  1.
        -12    1    3    3    0    0  0.31328112339E+02  0.80071006593E+01  0.26579461249E+01  0.32444243886E+02  0.00000000000E+00 0.  1.
</event>
<event>
 7    1  0.3223600E-013  0.5930195E+02  0.7816164E-02  0.1266605E+00
        -11   -1    0    0    0    0  0.00000000000E+00  0.00000000000E+00  0.45593999997E+02  0.45594000000E+02  0.51100000000E-03 0. -1.
         11   -1    0    0    0    0 -0.00000000000E+00 -0.00000000000E+00 -0.45593999997E+02  0.45594000000E+02  0.51100000000E-03 0.  1.
    9900012    2    1    2    0    0  0.15720846260E+02 -0.26929401443E+02 -0.66620355741E+01  0.59301946823E+02  0.50000005098E+02 0.  0.
         12    1    1    2    0    0 -0.15720846260E+02  0.26929401443E+02  0.66620355741E+01  0.31886053177E+02  0.00000000000E+00 0. -1.
         11    1    3    3    0    0 -0.64873796886E+00 -0.59577755773E+01 -0.99264966233E+01  0.11595313116E+02  0.51100000000E-03 0. -1.
        -11    1    3    3    0    0 -0.12932904278E+02 -0.31999714340E+01  0.74951955337E+00  0.13343972799E+02  0.51100000000E-03 0.  1.
         12    1    3    3    0    0  0.29302488507E+02 -0.17771654432E+02  0.25149414958E+01  0.34362660908E+02  0.00000000000E+00 0. -1.
</event>
<event>
 7    1  0.3223600E-013  0.5930193E+02  0.7816164E-02  0.1266605E+00
        -11   -1    0    0    0    0  0.00000000000E+00  0.00000000000E+00  0.45593999997E+02  0.45594000000E+02  0.51100000000E-03 0. -1.
         11   -1    0    0    0    0 -0.00000000000E+00 -0.00000000000E+00 -0.45593999997E+02  0.45594000000E+02  0.51100000000E-03 0.  1.
    9900012    2    1    2    0    0 -0.12467252046E+02  0.18341152635E+02 -0.22910498692E+02  0.59301934016E+02  0.49999981742E+02 0.  0.
         12    1    1    2    0    0  0.12467252046E+02 -0.18341152635E+02  0.22910498692E+02  0.31886065984E+02  0.00000000000E+00 0. -1.
         11    1    3    3    0    0  0.27235526910E+01  0.47239015936E+00  0.37944811577E+01  0.46945691219E+01  0.51100000000E-03 0. -1.
        -11    1    3    3    0    0 -0.22219550276E+02 -0.42177882198E+01 -0.56906997454E+01  0.23321282465E+02  0.51100000000E-03 0.  1.
         12    1    3    3    0    0  0.70287455391E+01  0.22086550696E+02 -0.21014280105E+02  0.31286082430E+02  0.00000000000E+00 0. -1.
</event>
<event>
 7    1  0.3223600E-013  0.5930194E+02  0.7816164E-02  0.1266605E+00
        -11   -1    0    0    0    0  0.00000000000E+00  0.00000000000E+00  0.45593999997E+02  0.45594000000E+02  0.51100000000E-03 0. -1.
         11   -1    0    0    0    0 -0.00000000000E+00 -0.00000000000E+00 -0.45593999997E+02  0.45594000000E+02  0.51100000000E-03 0.  1.
    9900012    2    1    2    0    0  0.24325145107E+02 -0.19701778032E+02  0.60702663878E+01  0.59301939157E+02  0.49999991116E+02 0.  0.
         12    1    1    2    0    0 -0.24325145107E+02  0.19701778032E+02 -0.60702663878E+01  0.31886060843E+02  0.00000000000E+00 0. -1.
         11    1    3    3    0    0 -0.44603867485E+01 -0.12203196325E+01  0.14565604494E+02  0.15282050402E+02  0.51100000000E-03 0. -1.
        -11    1    3    3    0    0  0.14888126818E+02 -0.12224477112E+02  0.86179986884E+01  0.21103650453E+02  0.51100000000E-03 0.  1.
         12    1    3    3    0    0  0.13897405037E+02 -0.62569812879E+01 -0.17113336795E+02  0.22916238301E+02  0.00000000000E+00 0. -1.
</event>
<event>
 7    1  0.3223600E-013  0.5930192E+02  0.7816164E-02  0.1266605E+00
        -11   -1    0    0    0    0  0.00000000000E+00  0.00000000000E+00  0.45593999997E+02  0.45594000000E+02  0.51100000000E-03 0. -1.
         11   -1    0    0    0    0 -0.00000000000E+00 -0.00000000000E+00 -0.45593999997E+02  0.45594000000E+02  0.51100000000E-03 0.  1.
    9900012    2    1    2    0    0 -0.49492552034E+01  0.29222310028E+02 -0.11759394006E+02  0.59301923449E+02  0.49999962470E+02 0.  0.
         12    1    1    2    0    0  0.49492552034E+01 -0.29222310028E+02  0.11759394006E+02  0.31886076551E+02  0.00000000000E+00 0. -1.
         11    1    3    3    0    0  0.87829656232E+01  0.61753400242E+01 -0.47567971882E+01  0.11743186506E+02  0.51100000000E-03 0. -1.
        -11    1    3    3    0    0 -0.85450727137E+01 -0.20342858676E+01 -0.17733349602E+02  0.19789600174E+02  0.51100000000E-03 0.  1.
        -12    1    3    3    0    0 -0.51871481129E+01  0.25081255871E+02  0.10730752785E+02  0.27769136770E+02  0.00000000000E+00 0.  1.
</event>
<event>
 7    1  0.3223600E-013  0.5930198E+02  0.7816164E-02  0.1266605E+00
        -11   -1    0    0    0    0  0.00000000000E+00  0.00000000000E+00  0.45593999997E+02  0.45594000000E+02  0.51100000000E-03 0.  1.
         11   -1    0    0    0    0 -0.00000000000E+00 -0.00000000000E+00 -0.45593999997E+02  0.45594000000E+02  0.51100000000E-03 0. -1.
    9900012    2    1    2    0    0 -0.18552121731E+01  0.68612736235E+00  0.31824611685E+02  0.59301976543E+02  0.50000059301E+02 0.  0.
         12    1    1    2    0    0  0.18552121731E+01 -0.68612736235E+00 -0.31824611685E+02  0.31886023457E+02  0.00000000000E+00 0. -1.
         11    1    3    3    0    0  0.14992145732E+02  0.96441677766E+01  0.21394791295E+02  0.27848007120E+02  0.51100000000E-03 0. -1.
        -11    1    3    3    0    0  0.54911600776E+01 -0.37179868793E+01  0.12902916371E+01  0.67558210606E+01  0.51100000000E-03 0.  1.
        -12    1    3    3    0    0 -0.22338517983E+02 -0.52400535349E+01  0.91395287531E+01  0.24698148363E+02  0.00000000000E+00 0.  1.
</event>
<event>
 7    1  0.3223600E-013  0.5930194E+02  0.7816164E-02  0.1266605E+00
        -11   -1    0    0    0    0  0.00000000000E+00  0.00000000000E+00  0.45593999997E+02  0.45594000000E+02  0.51100000000E-03 0.  1.
         11   -1    0    0    0    0 -0.00000000000E+00 -0.00000000000E+00 -0.45593999997E+02  0.45594000000E+02  0.51100000000E-03 0. -1.
    9900012    2    1    2    0    0 -0.15956162239E+01 -0.15262280699E+02  0.27950628955E+02  0.59301939374E+02  0.49999991513E+02 0.  0.
         12    1    1    2    0    0  0.15956162239E+01  0.15262280699E+02 -0.27950628955E+02  0.31886060626E+02  0.00000000000E+00 0. -1.
         11    1    3    3    0    0 -0.17303736195E+02 -0.13976650529E+02  0.18800356255E+02  0.29124207146E+02  0.51100000000E-03 0. -1.
        -11    1    3    3    0    0  0.11168679067E+01 -0.11071135490E+02  0.25953444207E+01  0.11425990018E+02  0.51100000000E-03 0.  1.
         12    1    3    3    0    0  0.14591252065E+02  0.97855053195E+01  0.65549282794E+01  0.18751742210E+02  0.00000000000E+00 0. -1.
</event>
<event>
 7    1  0.3223600E-013  0.5930195E+02  0.7816164E-02  0.1266605E+00
        -11   -1    0    0    0    0  0.00000000000E+00  0.00000000000E+00  0.45593999997E+02  0.45594000000E+02  0.51100000000E-03 0.  1.
         11   -1    0    0    0    0 -0.00000000000E+00 -0.00000000000E+00 -0.45593999997E+02  0.45594000000E+02  0.51100000000E-03 0. -1.
    9900012    2    1    2    0    0  0.16141853300E+02  0.16941353438E+01  0.27446139493E+02  0.59301951396E+02  0.50000013438E+02 0.  0.
         12    1    1    2    0    0 -0.16141853300E+02 -0.16941353438E+01 -0.27446139493E+02  0.31886048604E+02  0.00000000000E+00 0. -1.
         11    1    3    3    0    0  0.41871984465E+01  0.87780050751E+01  0.20779650391E+02  0.22942970047E+02  0.51100000000E-03 0. -1.
        -11    1    3    3    0    0  0.16419121908E+02  0.41966885171E+01  0.14173164099E+02  0.22092495096E+02  0.51100000000E-03 0.  1.
         12    1    3    3    0    0 -0.44644670551E+01 -0.11280558248E+02 -0.75066749975E+01  0.14266486253E+02  0.00000000000E+00 0. -1.
</event>
<event>
 7    1  0.3223600E-013  0.5930196E+02  0.7816164E-02  0.1266605E+00
        -11   -1    0    0    0    0  0.00000000000E+00  0.00000000000E+00  0.45593999997E+02  0.45594000000E+02  0.51100000000E-03 0. -1.
         11   -1    0    0    0    0 -0.00000000000E+00 -0.00000000000E+00 -0.45593999997E+02  0.45594000000E+02  0.51100000000E-03 0.  1.
    9900012    2    1    2    0    0  0.69806146706E+01  0.19624720592E+02 -0.24142508799E+02  0.59301962765E+02  0.50000034172E+02 0.  0.
         12    1    1    2    0    0 -0.69806146706E+01 -0.19624720592E+02  0.24142508799E+02  0.31886037235E+02  0.00000000000E+00 0. -1.
         11    1    3    3    0    0  0.81275004433E+01  0.19656760301E+02 -0.73270639209E+01  0.22497341064E+02  0.51100000000E-03 0. -1.
        -11    1    3    3    0    0 -0.12261624545E+02  0.87653295127E+01 -0.16879396189E+02  0.22629459868E+02  0.51100000000E-03 0.  1.
        -12    1    3    3    0    0  0.11114738772E+02 -0.87973692225E+01  0.63951311643E-01  0.14175161833E+02  0.00000000000E+00 0.  1.
</event>
<event>
 7    1  0.3223600E-013  0.5930195E+02  0.7816164E-02  0.1266605E+00
        -11   -1    0    0    0    0  0.00000000000E+00  0.00000000000E+00  0.45593999997E+02  0.45594000000E+02  0.51100000000E-03 0. -1.
         11   -1    0    0    0    0 -0.00000000000E+00 -0.00000000000E+00 -0.45593999997E+02  0.45594000000E+02  0.51100000000E-03 0.  1.
    9900012    2    1    2    0    0  0.90977833824E+01  0.30323769180E+02 -0.37973121638E+01  0.59301949453E+02  0.50000009895E+02 0.  0.
         12    1    1    2    0    0 -0.90977833824E+01 -0.30323769180E+02  0.37973121638E+01  0.31886050547E+02  0.00000000000E+00 0. -1.
         11    1    3    3    0    0  0.20357687703E+02  0.12476675617E+02 -0.37731325785E+01  0.24173113428E+02  0.51100000000E-03 0. -1.
        -11    1    3    3    0    0  0.89168840955E+01  0.25174227582E+01 -0.26932559312E+01  0.96489308779E+01  0.51100000000E-03 0.  1.
        -12    1    3    3    0    0 -0.20176788416E+02  0.15329670805E+02  0.26690763458E+01  0.25479905148E+02  0.00000000000E+00 0.  1.
</event>
<event>
 7    1  0.3223600E-013  0.5930203E+02  0.7816164E-02  0.1266604E+00
        -11   -1    0    0    0    0  0.00000000000E+00  0.00000000000E+00  0.45593999997E+02  0.45594000000E+02  0.51100000000E-03 0.  1.
         11   -1    0    0    0    0 -0.00000000000E+00 -0.00000000000E+00 -0.45593999997E+02  0.45594000000E+02  0.51100000000E-03 0. -1.
    9900012    2    1    2    0    0 -0.93106951433E+01  0.29311838653E+01  0.30355134412E+02  0.59302030231E+02  0.50000157214E+02 0.  0.
         12    1    1    2    0    0  0.93106951433E+01 -0.29311838653E+01 -0.30355134412E+02  0.31885969769E+02  0.00000000000E+00 0. -1.
         11    1    3    3    0    0 -0.14209523994E+02 -0.48608045201E+01 -0.82186256026E+01  0.17119690411E+02  0.51100000000E-03 0. -1.
        -11    1    3    3    0    0 -0.26414362978E+01  0.69347120258E+01  0.90734125630E+01  0.11721528586E+02  0.51100000000E-03 0.  1.
        -12    1    3    3    0    0  0.75402651481E+01  0.85727635962E+00  0.29500347452E+02  0.30460811234E+02  0.00000000000E+00 0.  1.
</event>
<event>
 7    1  0.3223600E-013  0.5930193E+02  0.7816164E-02  0.1266605E+00
        -11   -1    0    0    0    0  0.00000000000E+00  0.00000000000E+00  0.45593999997E+02  0.45594000000E+02  0.51100000000E-03 0.  1.
         11   -1    0    0    0    0 -0.00000000000E+00 -0.00000000000E+00 -0.45593999997E+02  0.45594000000E+02  0.51100000000E-03 0. -1.
    9900012    2    1    2    0    0 -0.29170641540E+02 -0.12875905397E+02 -0.77234919018E-01  0.59301933562E+02  0.49999980913E+02 0.  0.
         12    1    1    2    0    0  0.29170641540E+02  0.12875905397E+02  0.77234919018E-01  0.31886066438E+02  0.00000000000E+00 0. -1.
         11    1    3    3    0    0 -0.22904130545E+02  0.11745328329E+01  0.17675300721E+02  0.28955051014E+02  0.51100000000E-03 0. -1.
        -11    1    3    3    0    0 -0.86839309184E+01 -0.19749887757E+01 -0.20361172103E+00  0.89080129576E+01  0.51100000000E-03 0.  1.
        -12    1    3    3    0    0  0.24174199233E+01 -0.12075449454E+02 -0.17548923919E+02  0.21438869590E+02  0.00000000000E+00 0.  1.
</event>
<event>
 7    1  0.3223600E-013  0.5930195E+02  0.7816164E-02  0.1266605E+00
        -11   -1    0    0    0    0  0.00000000000E+00  0.00000000000E+00  0.45593999997E+02  0.45594000000E+02  0.51100000000E-03 0.  1.
         11   -1    0    0    0    0 -0.00000000000E+00 -0.00000000000E+00 -0.45593999997E+02  0.45594000000E+02  0.51100000000E-03 0. -1.
    9900012    2    1    2    0    0 -0.28037429260E+01 -0.14855820841E+02  0.28074258596E+02  0.59301946890E+02  0.50000005219E+02 0.  0.
         12    1    1    2    0    0  0.28037429260E+01  0.14855820841E+02 -0.28074258596E+02  0.31886053110E+02  0.00000000000E+00 0. -1.
         11    1    3    3    0    0  0.42281308515E+01 -0.21836009756E+02  0.10057100940E+02  0.24409704876E+02  0.51100000000E-03 0. -1.
        -11    1    3    3    0    0  0.17731939952E+01  0.12595940478E+01 -0.72292269025E+01  0.75493387776E+01  0.51100000000E-03 0.  1.
        -12    1    3    3    0    0 -0.88050677727E+01  0.57205948672E+01  0.25246384558E+02  0.27342903236E+02  0.00000000000E+00 0.  1.
</event>
<event>
 7    1  0.3223600E-013  0.5930192E+02  0.7816164E-02  0.1266605E+00
        -11   -1    0    0    0    0  0.00000000000E+00  0.00000000000E+00  0.45593999997E+02  0.45594000000E+02  0.51100000000E-03 0.  1.
         11   -1    0    0    0    0 -0.00000000000E+00 -0.00000000000E+00 -0.45593999997E+02  0.45594000000E+02  0.51100000000E-03 0. -1.
    9900012    2    1    2    0    0 -0.21592510003E+02 -0.68167340202E+01  0.22450335468E+02  0.59301922888E+02  0.49999961446E+02 0.  0.
         12    1    1    2    0    0  0.21592510003E+02  0.68167340202E+01 -0.22450335468E+02  0.31886077112E+02  0.00000000000E+00 0. -1.
         11    1    3    3    0    0 -0.29501866996E+01  0.12585019251E+02  0.25751435401E+01  0.13180200136E+02  0.51100000000E-03 0. -1.
        -11    1    3    3    0    0  0.58870767932E+01 -0.13713334403E+02  0.13554264772E+02  0.20160141552E+02  0.51100000000E-03 0.  1.
        -12    1    3    3    0    0 -0.24529400097E+02 -0.56884188680E+01  0.63209271567E+01  0.25961581201E+02  0.00000000000E+00 0.  1.
</event>
<event>
 7    1  0.3223600E-013  0.5930193E+02  0.7816164E-02  0.1266605E+00
        -11   -1    0    0    0    0  0.00000000000E+00  0.00000000000E+00  0.45593999997E+02  0.45594000000E+02  0.51100000000E-03 0. -1.
         11   -1    0    0    0    0 -0.00000000000E+00 -0.00000000000E+00 -0.45593999997E+02  0.45594000000E+02  0.51100000000E-03 0.  1.
    9900012    2    1    2    0    0  0.92447329029E+01  0.29896179693E+02 -0.61216655415E+01  0.59301930382E+02  0.49999975114E+02 0.  0.
         12    1    1    2    0    0 -0.92447329029E+01 -0.29896179693E+02  0.61216655415E+01  0.31886069618E+02  0.00000000000E+00 0. -1.
         11    1    3    3    0    0  0.13608274161E+02  0.11321316938E+02 -0.17782713928E+02  0.25091477791E+02  0.51100000000E-03 0.  1.
        -11    1    3    3    0    0 -0.15084883240E+02  0.12415581374E+02  0.50046741946E+01  0.20167972810E+02  0.51100000000E-03 0. -1.
         12    1    3    3    0    0  0.10721341982E+02  0.61592813808E+01  0.66563741920E+01  0.14042479781E+02  0.00000000000E+00 0. -1.
</event>
<event>
 7    1  0.3223600E-013  0.5930195E+02  0.7816164E-02  0.1266605E+00
        -11   -1    0    0    0    0  0.00000000000E+00  0.00000000000E+00  0.45593999997E+02  0.45594000000E+02  0.51100000000E-03 0.  1.
         11   -1    0    0    0    0 -0.00000000000E+00 -0.00000000000E+00 -0.45593999997E+02  0.45594000000E+02  0.51100000000E-03 0. -1.
    9900012    2    1    2    0    0  0.92110861371E+01  0.19423993777E+02  0.23549617225E+02  0.59301951115E+02  0.50000012926E+02 0.  0.
         12    1    1    2    0    0 -0.92110861371E+01 -0.19423993777E+02 -0.23549617225E+02  0.31886048885E+02  0.00000000000E+00 0. -1.
         11    1    3    3    0    0  0.73073589535E+01 -0.44193530073E+01 -0.42188019584E+00  0.85502139762E+01  0.51100000000E-03 0. -1.
        -11    1    3    3    0    0 -0.10317190760E+02 -0.52577187414E+01  0.12823085180E+02  0.17277718175E+02  0.51100000000E-03 0.  1.
        -12    1    3    3    0    0  0.12220917944E+02  0.29101065525E+02  0.11148412241E+02  0.33474018964E+02  0.00000000000E+00 0.  1.
</event>
<event>
 7    1  0.3223600E-013  0.5930193E+02  0.7816164E-02  0.1266605E+00
        -11   -1    0    0    0    0  0.00000000000E+00  0.00000000000E+00  0.45593999997E+02  0.45594000000E+02  0.51100000000E-03 0.  1.
         11   -1    0    0    0    0 -0.00000000000E+00 -0.00000000000E+00 -0.45593999997E+02  0.45594000000E+02  0.51100000000E-03 0. -1.
    9900012    2    1    2    0    0  0.19396526091E+02 -0.88932400015E+01  0.23694015317E+02  0.59301932448E+02  0.49999978881E+02 0.  0.
         12    1    1    2    0    0 -0.19396526091E+02  0.88932400015E+01 -0.23694015317E+02  0.31886067552E+02  0.00000000000E+00 0. -1.
         11    1    3    3    0    0  0.12101938440E+02  0.75528450710E+01 -0.85736385296E+01  0.16643607198E+02  0.51100000000E-03 0. -1.
        -11    1    3    3    0    0  0.93621653912E+01  0.17956273289E+01  0.10468228826E+02  0.14158327349E+02  0.51100000000E-03 0.  1.
         12    1    3    3    0    0 -0.20675777408E+01 -0.18241712401E+02  0.21799425021E+02  0.28499997900E+02  0.00000000000E+00 0. -1.
</event>
<event>
 7    1  0.3223600E-013  0.5930202E+02  0.7816164E-02  0.1266604E+00
        -11   -1    0    0    0    0  0.00000000000E+00  0.00000000000E+00  0.45593999997E+02  0.45594000000E+02  0.51100000000E-03 0.  1.
         11   -1    0    0    0    0 -0.00000000000E+00 -0.00000000000E+00 -0.45593999997E+02  0.45594000000E+02  0.51100000000E-03 0. -1.
    9900012    2    1    2    0    0 -0.62242531925E+01 -0.10971047132E+02  0.29284985561E+02  0.59302022168E+02  0.50000142509E+02 0.  0.
         12    1    1    2    0    0  0.62242531925E+01  0.10971047132E+02 -0.29284985561E+02  0.31885977832E+02  0.00000000000E+00 0. -1.
         11    1    3    3    0    0  0.23501506570E+01 -0.16068380154E+02  0.11610730925E+02  0.19963093993E+02  0.51100000000E-03 0. -1.
        -11    1    3    3    0    0 -0.16075004810E+02 -0.92175678906E+01  0.62814779636E+01  0.19565947539E+02  0.51100000000E-03 0.  1.
        -12    1    3    3    0    0  0.75006009601E+01  0.14314900913E+02  0.11392776672E+02  0.19772980636E+02  0.00000000000E+00 0.  1.
</event>
<event>
 7    1  0.3223600E-013  0.5930196E+02  0.7816164E-02  0.1266605E+00
        -11   -1    0    0    0    0  0.00000000000E+00  0.00000000000E+00  0.45593999997E+02  0.45594000000E+02  0.51100000000E-03 0. -1.
         11   -1    0    0    0    0 -0.00000000000E+00 -0.00000000000E+00 -0.45593999997E+02  0.45594000000E+02  0.51100000000E-03 0.  1.
    9900012    2    1    2    0    0  0.24842743821E+02  0.14595109489E+02 -0.13657986226E+02  0.59301957140E+02  0.50000023913E+02 0.  0.
         12    1    1    2    0    0 -0.24842743821E+02 -0.14595109489E+02  0.13657986226E+02  0.31886042860E+02  0.00000000000E+00 0. -1.
         11    1    3    3    0    0 -0.29466672171E+01  0.89879467131E+01 -0.19935039396E+02  0.22065172326E+02  0.51100000000E-03 0. -1.
        -11    1    3    3    0    0 -0.33078414228E+01 -0.15271776765E+01 -0.21592329815E+01  0.42351356370E+01  0.51100000000E-03 0.  1.
        -12    1    3    3    0    0  0.31097252461E+02  0.71343404524E+01  0.84362861517E+01  0.33001649176E+02  0.00000000000E+00 0.  1.
</event>
<event>
 7    1  0.3223600E-013  0.5930196E+02  0.7816164E-02  0.1266605E+00
        -11   -1    0    0    0    0  0.00000000000E+00  0.00000000000E+00  0.45593999997E+02  0.45594000000E+02  0.51100000000E-03 0.  1.
         11   -1    0    0    0    0 -0.00000000000E+00 -0.00000000000E+00 -0.45593999997E+02  0.45594000000E+02  0.51100000000E-03 0. -1.
    9900012    2    1    2    0    0  0.12796514772E+02 -0.18234569017E+01  0.29148648842E+02  0.59301960505E+02  0.50000030050E+02 0.  0.
         12    1    1    2    0    0 -0.12796514772E+02  0.18234569017E+01 -0.29148648842E+02  0.31886039495E+02  0.00000000000E+00 0. -1.
         11    1    3    3    0    0  0.99851165108E+01 -0.81895495046E+01 -0.69383983013E+01  0.14659899184E+02  0.51100000000E-03 0. -1.
        -11    1    3    3    0    0  0.11326617461E+02  0.23280905986E+01  0.58272898526E+01  0.12948728749E+02  0.51100000000E-03 0.  1.
        -12    1    3    3    0    0 -0.85152191996E+01  0.40380020043E+01  0.30259757291E+02  0.31693332572E+02  0.00000000000E+00 0.  1.
</event>
<event>
 7    1  0.3223600E-013  0.5930194E+02  0.7816164E-02  0.1266605E+00
        -11   -1    0    0    0    0  0.00000000000E+00  0.00000000000E+00  0.45593999997E+02  0.45594000000E+02  0.51100000000E-03 0.  1.
         11   -1    0    0    0    0 -0.00000000000E+00 -0.00000000000E+00 -0.45593999997E+02  0.45594000000E+02  0.51100000000E-03 0. -1.
    9900012    2    1    2    0    0 -0.23716276148E+02  0.15626592017E+02  0.14493741464E+02  0.59301942325E+02  0.49999996895E+02 0.  0.
         12    1    1    2    0    0  0.23716276148E+02 -0.15626592017E+02 -0.14493741464E+02  0.31886057675E+02  0.00000000000E+00 0. -1.
         11    1    3    3    0    0 -0.73319383303E+00 -0.32924474661E+01  0.29949051017E+01  0.45107915428E+01  0.51100000000E-03 0. -1.
        -11    1    3    3    0    0 -0.27122447838E+02  0.89773935082E+01  0.24691704950E+02  0.37761105182E+02  0.51100000000E-03 0.  1.
         12    1    3    3    0    0  0.41393655234E+01  0.99416459746E+01 -0.13192868587E+02  0.17030045601E+02  0.00000000000E+00 0. -1.
</event>
<event>
 7    1  0.3223600E-013  0.5930194E+02  0.7816164E-02  0.1266605E+00
        -11   -1    0    0    0    0  0.00000000000E+00  0.00000000000E+00  0.45593999997E+02  0.45594000000E+02  0.51100000000E-03 0.  1.
         11   -1    0    0    0    0 -0.00000000000E+00 -0.00000000000E+00 -0.45593999997E+02  0.45594000000E+02  0.51100000000E-03 0. -1.
    9900012    2    1    2    0    0 -0.23171450735E+02 -0.19587575571E+02  0.98046579697E+01  0.59301944054E+02  0.50000000048E+02 0.  0.
         12    1    1    2    0    0  0.23171450735E+02  0.19587575571E+02 -0.98046579697E+01  0.31886055946E+02  0.00000000000E+00 0. -1.
         11    1    3    3    0    0 -0.13769849818E+01  0.76853216040E+01 -0.42089376693E+00  0.78190413492E+01  0.51100000000E-03 0. -1.
        -11    1    3    3    0    0 -0.28596037021E+02 -0.15640371653E+02  0.16598477271E+02  0.36576823355E+02  0.51100000000E-03 0.  1.
         12    1    3    3    0    0  0.68015712680E+01 -0.11632525522E+02 -0.63729255346E+01  0.14906079350E+02  0.00000000000E+00 0. -1.
</event>
<event>
 7    1  0.3223600E-013  0.5930195E+02  0.7816164E-02  0.1266605E+00
        -11   -1    0    0    0    0  0.00000000000E+00  0.00000000000E+00  0.45593999997E+02  0.45594000000E+02  0.51100000000E-03 0.  1.
         11   -1    0    0    0    0 -0.00000000000E+00 -0.00000000000E+00 -0.45593999997E+02  0.45594000000E+02  0.51100000000E-03 0. -1.
    9900012    2    1    2    0    0 -0.13301671729E+02  0.25262143629E+02  0.14198928777E+02  0.59301953680E+02  0.50000017603E+02 0.  0.
         12    1    1    2    0    0  0.13301671729E+02 -0.25262143629E+02 -0.14198928777E+02  0.31886046320E+02  0.00000000000E+00 0. -1.
         11    1    3    3    0    0  0.68056603302E+00 -0.59140803481E+01 -0.62811617797E+01  0.86540458777E+01  0.51100000000E-03 0. -1.
        -11    1    3    3    0    0 -0.48484077677E+01 -0.20176773528E+01  0.14865028646E+02  0.15765378419E+02  0.51100000000E-03 0.  1.
        -12    1    3    3    0    0 -0.91338299940E+01  0.33193901330E+02  0.56150619105E+01  0.34882529383E+02  0.00000000000E+00 0.  1.
</event>
<event>
 7    1  0.3223600E-013  0.5930196E+02  0.7816164E-02  0.1266605E+00
        -11   -1    0    0    0    0  0.00000000000E+00  0.00000000000E+00  0.45593999997E+02  0.45594000000E+02  0.51100000000E-03 0.  1.
         11   -1    0    0    0    0 -0.00000000000E+00 -0.00000000000E+00 -0.45593999997E+02  0.45594000000E+02  0.51100000000E-03 0. -1.
    9900012    2    1    2    0    0 -0.18541955616E+02 -0.22589480246E+02  0.12752677482E+02  0.59301960440E+02  0.50000029932E+02 0.  0.
         12    1    1    2    0    0  0.18541955616E+02  0.22589480246E+02 -0.12752677482E+02  0.31886039560E+02  0.00000000000E+00 0. -1.
         11    1    3    3    0    0 -0.46736924787E+01 -0.14531382422E+02  0.14868313888E+02  0.21308947290E+02  0.51100000000E-03 0.  1.
        -11    1    3    3    0    0 -0.91917423678E+01 -0.17366267632E+02 -0.12497101263E+02  0.23286324731E+02  0.51100000000E-03 0. -1.
         12    1    3    3    0    0 -0.46765207697E+01  0.93081698078E+01  0.10381464857E+02  0.14706688419E+02  0.00000000000E+00 0. -1.
</event>
<event>
 7    1  0.3223600E-013  0.5930194E+02  0.7816164E-02  0.1266605E+00
        -11   -1    0    0    0    0  0.00000000000E+00  0.00000000000E+00  0.45593999997E+02  0.45594000000E+02  0.51100000000E-03 0. -1.
         11   -1    0    0    0    0 -0.00000000000E+00 -0.00000000000E+00 -0.45593999997E+02  0.45594000000E+02  0.51100000000E-03 0.  1.
    9900012    2    1    2    0    0 -0.22287756648E+02 -0.18037777366E+02 -0.13950449179E+02  0.59301944412E+02  0.50000000700E+02 0.  0.
         12    1    1    2    0    0  0.22287756648E+02  0.18037777366E+02  0.13950449179E+02  0.31886055588E+02  0.00000000000E+00 0. -1.
         11    1    3    3    0    0  0.27018456337E+01 -0.35928027214E+01  0.58331705711E+01  0.73643791589E+01  0.51100000000E-03 0. -1.
        -11    1    3    3    0    0 -0.24646325131E+02  0.68779683288E+01 -0.52244059404E+01  0.26115937825E+02  0.51100000000E-03 0.  1.
        -12    1    3    3    0    0 -0.34327715045E+00 -0.21322942973E+02 -0.14559213809E+02  0.25821627427E+02  0.00000000000E+00 0.  1.
</event>
<event>
 7    1  0.3223600E-013  0.5930192E+02  0.7816164E-02  0.1266605E+00
        -11   -1    0    0    0    0  0.00000000000E+00  0.00000000000E+00  0.45593999997E+02  0.45594000000E+02  0.51100000000E-03 0.  1.
         11   -1    0    0    0    0 -0.00000000000E+00 -0.00000000000E+00 -0.45593999997E+02  0.45594000000E+02  0.51100000000E-03 0. -1.
    9900012    2    1    2    0    0 -0.23781743435E+02 -0.16826220263E+02  0.12962597412E+02  0.59301922461E+02  0.49999960667E+02 0.  0.
         12    1    1    2    0    0  0.23781743435E+02  0.16826220263E+02 -0.12962597412E+02  0.31886077539E+02  0.00000000000E+00 0. -1.
         11    1    3    3    0    0  0.69916547333E+00 -0.15356411883E+02  0.23240223859E+02  0.27864246331E+02  0.51100000000E-03 0. -1.
        -11    1    3    3    0    0 -0.40163510832E+01 -0.56077917069E+01  0.20440835078E+01  0.71942116663E+01  0.51100000000E-03 0.  1.
         12    1    3    3    0    0 -0.20464557826E+02  0.41379833276E+01 -0.12321709955E+02  0.24243464464E+02  0.00000000000E+00 0. -1.
</event>
<event>
 7    1  0.3223600E-013  0.5930193E+02  0.7816164E-02  0.1266605E+00
        -11   -1    0    0    0    0  0.00000000000E+00  0.00000000000E+00  0.45593999997E+02  0.45594000000E+02  0.51100000000E-03 0.  1.
         11   -1    0    0    0    0 -0.00000000000E+00 -0.00000000000E+00 -0.45593999997E+02  0.45594000000E+02  0.51100000000E-03 0. -1.
    9900012    2    1    2    0    0  0.58867948329E+01 -0.13570436094E+02  0.28247306601E+02  0.59301930637E+02  0.49999975578E+02 0.  0.
         12    1    1    2    0    0 -0.58867948329E+01  0.13570436094E+02 -0.28247306601E+02  0.31886069363E+02  0.00000000000E+00 0. -1.
         11    1    3    3    0    0  0.66359926991E+01  0.40905207436E+01 -0.20583109750E+01  0.80625928452E+01  0.51100000000E-03 0. -1.
        -11    1    3    3    0    0  0.89341816376E+01 -0.71313158557E+01 -0.54971892299E+01  0.12684413942E+02  0.51100000000E-03 0.  1.
        -12    1    3    3    0    0 -0.96833795038E+01 -0.10529640982E+02  0.35802806806E+02  0.38554923849E+02  0.00000000000E+00 0.  1.
</event>
<event>
 7    1  0.3223600E-013  0.5930195E+02  0.7816164E-02  0.1266605E+00
        -11   -1    0    0    0    0  0.00000000000E+00  0.00000000000E+00  0.45593999997E+02  0.45594000000E+02  0.51100000000E-03 0. -1.
         11   -1    0    0    0    0 -0.00000000000E+00 -0.00000000000E+00 -0.45593999997E+02  0.45594000000E+02  0.51100000000E-03 0.  1.
    9900012    2    1    2    0    0  0.30624724513E+02 -0.88770695118E+01  0.20929833798E+00  0.59301954143E+02  0.50000018448E+02 0.  0.
         12    1    1    2    0    0 -0.30624724513E+02  0.88770695118E+01 -0.20929833798E+00  0.31886045857E+02  0.00000000000E+00 0. -1.
         11    1    3    3    0    0 -0.13167408614E+01  0.11816978416E+02  0.63346890313E+01  0.13472307552E+02  0.51100000000E-03 0. -1.
        -11    1    3    3    0    0  0.32214767685E+01  0.20597846256E+01 -0.82851086387E+01  0.91248918180E+01  0.51100000000E-03 0.  1.
         12    1    3    3    0    0  0.28719988606E+02 -0.22753832553E+02  0.21597179454E+01  0.36704754773E+02  0.00000000000E+00 0. -1.
</event>
<event>
 7    1  0.3223600E-013  0.5930195E+02  0.7816164E-02  0.1266605E+00
        -11   -1    0    0    0    0  0.00000000000E+00  0.00000000000E+00  0.45593999997E+02  0.45594000000E+02  0.51100000000E-03 0.  1.
         11   -1    0    0    0    0 -0.00000000000E+00 -0.00000000000E+00 -0.45593999997E+02  0.45594000000E+02  0.51100000000E-03 0. -1.
    9900012    2    1    2    0    0 -0.19813403644E+02 -0.17655373226E+01  0.24920514514E+02  0.59301950862E+02  0.50000012464E+02 0.  0.
         12    1    1    2    0    0  0.19813403644E+02  0.17655373226E+01 -0.24920514514E+02  0.31886049138E+02  0.00000000000E+00 0. -1.
         11    1    3    3    0    0 -0.21396197018E+02  0.98031662001E+01  0.77766861190E+01  0.24786612548E+02  0.51100000000E-03 0. -1.
        -11    1    3    3    0    0 -0.12968026313E+02 -0.48271207177E+01  0.66669724389E+01  0.15359665447E+02  0.51100000000E-03 0.  1.
         12    1    3    3    0    0  0.14550819686E+02 -0.67415828050E+01  0.10476855956E+02  0.19155672867E+02  0.00000000000E+00 0. -1.
</event>
<event>
 7    1  0.3223600E-013  0.5930194E+02  0.7816164E-02  0.1266605E+00
        -11   -1    0    0    0    0  0.00000000000E+00  0.00000000000E+00  0.45593999997E+02  0.45594000000E+02  0.51100000000E-03 0.  1.
         11   -1    0    0    0    0 -0.00000000000E+00 -0.00000000000E+00 -0.45593999997E+02  0.45594000000E+02  0.51100000000E-03 0. -1.
    9900012    2    1    2    0    0 -0.10014445507E+02  0.22540149363E+02  0.20208254336E+02  0.59301937286E+02  0.49999987704E+02 0.  0.
         12    1    1    2    0    0  0.10014445507E+02 -0.22540149363E+02 -0.20208254336E+02  0.31886062714E+02  0.00000000000E+00 0. -1.
         11    1    3    3    0    0 -0.38250236924E+01  0.29029400720E+02 -0.67554198976E+00  0.29288107990E+02  0.51100000000E-03 0. -1.
        -11    1    3    3    0    0  0.55521399641E+01  0.14670132704E+01  0.13939121097E+01  0.59094312203E+01  0.51100000000E-03 0.  1.
         12    1    3    3    0    0 -0.11741561779E+02 -0.79562646270E+01  0.19489884216E+02  0.24104398075E+02  0.00000000000E+00 0. -1.
</event>
<event>
 7    1  0.3223600E-013  0.5930195E+02  0.7816164E-02  0.1266605E+00
        -11   -1    0    0    0    0  0.00000000000E+00  0.00000000000E+00  0.45593999997E+02  0.45594000000E+02  0.51100000000E-03 0. -1.
         11   -1    0    0    0    0 -0.00000000000E+00 -0.00000000000E+00 -0.45593999997E+02  0.45594000000E+02  0.51100000000E-03 0.  1.
    9900012    2    1    2    0    0  0.45425390575E+01 -0.34094221223E+01 -0.31376131341E+02  0.59301946023E+02  0.50000003639E+02 0.  0.
         12    1    1    2    0    0 -0.45425390575E+01  0.34094221223E+01  0.31376131341E+02  0.31886053977E+02  0.00000000000E+00 0. -1.
         11    1    3    3    0    0 -0.12597309295E+02 -0.55396781609E+01 -0.28579211836E+02  0.31719892576E+02  0.51100000000E-03 0. -1.
        -11    1    3    3    0    0 -0.23932368446E+00  0.68146146200E+01 -0.62553336947E+01  0.92534019765E+01  0.51100000000E-03 0.  1.
         12    1    3    3    0    0  0.17379172037E+02 -0.46843585814E+01  0.34584141899E+01  0.18328651471E+02  0.00000000000E+00 0. -1.
</event>
<event>
 7    1  0.3223600E-013  0.5930193E+02  0.7816164E-02  0.1266605E+00
        -11   -1    0    0    0    0  0.00000000000E+00  0.00000000000E+00  0.45593999997E+02  0.45594000000E+02  0.51100000000E-03 0.  1.
         11   -1    0    0    0    0 -0.00000000000E+00 -0.00000000000E+00 -0.45593999997E+02  0.45594000000E+02  0.51100000000E-03 0. -1.
    9900012    2    1    2    0    0 -0.74510595224E+01  0.94568944601E+01  0.29525761811E+02  0.59301925432E+02  0.49999966086E+02 0.  0.
         12    1    1    2    0    0  0.74510595224E+01 -0.94568944601E+01 -0.29525761811E+02  0.31886074568E+02  0.00000000000E+00 0. -1.
         11    1    3    3    0    0  0.89706959623E+01  0.67375429608E+01  0.81599119648E+01  0.13872708270E+02  0.51100000000E-03 0. -1.
        -11    1    3    3    0    0 -0.33924325054E+01  0.18803279403E+02  0.12964493055E+02  0.23090041036E+02  0.51100000000E-03 0.  1.
         12    1    3    3    0    0 -0.13029322979E+02 -0.16083927903E+02  0.84013567913E+01  0.22339176127E+02  0.00000000000E+00 0. -1.
</event>
<event>
 7    1  0.3223600E-013  0.5930197E+02  0.7816164E-02  0.1266605E+00
        -11   -1    0    0    0    0  0.00000000000E+00  0.00000000000E+00  0.45593999997E+02  0.45594000000E+02  0.51100000000E-03 0.  1.
         11   -1    0    0    0    0 -0.00000000000E+00 -0.00000000000E+00 -0.45593999997E+02  0.45594000000E+02  0.51100000000E-03 0. -1.
    9900012    2    1    2    0    0  0.29597496001E+02  0.11790840685E+02 -0.12974570378E+01  0.59301967190E+02  0.50000042242E+02 0.  0.
         12    1    1    2    0    0 -0.29597496001E+02 -0.11790840685E+02  0.12974570378E+01  0.31886032810E+02  0.00000000000E+00 0. -1.
         11    1    3    3    0    0  0.20437843651E+02  0.11325089768E+02 -0.64075456411E+01  0.24228490518E+02  0.51100000000E-03 0. -1.
        -11    1    3    3    0    0  0.72718796212E+01 -0.13159025570E+02  0.12416021799E+02  0.19498661101E+02  0.51100000000E-03 0.  1.
         12    1    3    3    0    0  0.18877727284E+01  0.13624776488E+02 -0.73059331954E+01  0.15574815571E+02  0.00000000000E+00 0. -1.
</event>
<event>
 7    1  0.3223600E-013  0.5930193E+02  0.7816164E-02  0.1266605E+00
        -11   -1    0    0    0    0  0.00000000000E+00  0.00000000000E+00  0.45593999997E+02  0.45594000000E+02  0.51100000000E-03 0. -1.
         11   -1    0    0    0    0 -0.00000000000E+00 -0.00000000000E+00 -0.45593999997E+02  0.45594000000E+02  0.51100000000E-03 0.  1.
    9900012    2    1    2    0    0 -0.21315323667E+02 -0.43748386388E+01 -0.23307495971E+02  0.59301927733E+02  0.49999970283E+02 0.  0.
         12    1    1    2    0    0  0.21315323667E+02  0.43748386388E+01  0.23307495971E+02  0.31886072267E+02  0.00000000000E+00 0. -1.
         11    1    3    3    0    0  0.12977900249E+01 -0.75090480944E+01 -0.85154371625E+01  0.11427280191E+02  0.51100000000E-03 0. -1.
        -11    1    3    3    0    0 -0.27444575161E+02 -0.61422412170E+01 -0.21542549463E+02  0.35426166467E+02  0.51100000000E-03 0.  1.
         12    1    3    3    0    0  0.48314614691E+01  0.92764506726E+01  0.67504906543E+01  0.12448481075E+02  0.00000000000E+00 0. -1.
</event>
<event>
 7    1  0.3223600E-013  0.5930196E+02  0.7816164E-02  0.1266605E+00
        -11   -1    0    0    0    0  0.00000000000E+00  0.00000000000E+00  0.45593999997E+02  0.45594000000E+02  0.51100000000E-03 0.  1.
         11   -1    0    0    0    0 -0.00000000000E+00 -0.00000000000E+00 -0.45593999997E+02  0.45594000000E+02  0.51100000000E-03 0. -1.
    9900012    2    1    2    0    0  0.16099792368E+02 -0.27502536251E+02 -0.10614887116E+01  0.59301959593E+02  0.50000028387E+02 0.  0.
         12    1    1    2    0    0 -0.16099792368E+02  0.27502536251E+02  0.10614887116E+01  0.31886040407E+02  0.00000000000E+00 0. -1.
         11    1    3    3    0    0 -0.99535211916E+01  0.69908385803E+01  0.27618998939E+01  0.12472870538E+02  0.51100000000E-03 0. -1.
        -11    1    3    3    0    0  0.13365938957E+02 -0.74781124110E+01 -0.69514864116E+01  0.16819442709E+02  0.51100000000E-03 0.  1.
        -12    1    3    3    0    0  0.12687374602E+02 -0.27015262421E+02  0.31280978061E+01  0.30009646347E+02  0.00000000000E+00 0.  1.
</event>
<event>
 7    1  0.3223600E-013  0.5930195E+02  0.7816164E-02  0.1266605E+00
        -11   -1    0    0    0    0  0.00000000000E+00  0.00000000000E+00  0.45593999997E+02  0.45594000000E+02  0.51100000000E-03 0. -1.
         11   -1    0    0    0    0 -0.00000000000E+00 -0.00000000000E+00 -0.45593999997E+02  0.45594000000E+02  0.51100000000E-03 0.  1.
    9900012    2    1    2    0    0 -0.19605489874E+02 -0.75327059923E+01 -0.23991735849E+02  0.59301948476E+02  0.50000008112E+02 0.  0.
         12    1    1    2    0    0  0.19605489874E+02  0.75327059923E+01  0.23991735849E+02  0.31886051524E+02  0.00000000000E+00 0. -1.
         11    1    3    3    0    0 -0.13444538990E+02  0.52824441450E+01 -0.36917073461E+01  0.14909344324E+02  0.51100000000E-03 0. -1.
        -11    1    3    3    0    0  0.64295622144E+01  0.99534964303E+01 -0.12515423914E+02  0.17235057222E+02  0.51100000000E-03 0.  1.
         12    1    3    3    0    0 -0.12590513098E+02 -0.22768646568E+02 -0.77846045893E+01  0.27157546929E+02  0.00000000000E+00 0. -1.
</event>
<event>
 7    1  0.3223600E-013  0.5930191E+02  0.7816164E-02  0.1266605E+00
        -11   -1    0    0    0    0  0.00000000000E+00  0.00000000000E+00  0.45593999997E+02  0.45594000000E+02  0.51100000000E-03 0.  1.
         11   -1    0    0    0    0 -0.00000000000E+00 -0.00000000000E+00 -0.45593999997E+02  0.45594000000E+02  0.51100000000E-03 0. -1.
    9900012    2    1    2    0    0 -0.40525069982E+01 -0.12964141228E+02  0.28848409353E+02  0.59301913803E+02  0.49999944878E+02 0.  0.
         12    1    1    2    0    0  0.40525069982E+01  0.12964141228E+02 -0.28848409353E+02  0.31886086197E+02  0.00000000000E+00 0. -1.
         11    1    3    3    0    0 -0.11109745404E+02  0.10054102873E+02 -0.45279389672E+01  0.15652912160E+02  0.51100000000E-03 0. -1.
        -11    1    3    3    0    0  0.73331973474E+01 -0.56377939881E+01  0.53958196820E+01  0.10708658865E+02  0.51100000000E-03 0.  1.
        -12    1    3    3    0    0 -0.27595894119E+00 -0.17380450113E+02  0.27980528638E+02  0.32940342778E+02  0.00000000000E+00 0.  1.
</event>
<event>
 7    1  0.3223600E-013  0.5930196E+02  0.7816164E-02  0.1266605E+00
        -11   -1    0    0    0    0  0.00000000000E+00  0.00000000000E+00  0.45593999997E+02  0.45594000000E+02  0.51100000000E-03 0. -1.
         11   -1    0    0    0    0 -0.00000000000E+00 -0.00000000000E+00 -0.45593999997E+02  0.45594000000E+02  0.51100000000E-03 0.  1.
    9900012    2    1    2    0    0  0.11708260260E+02  0.22000170421E+02 -0.19890424521E+02  0.59301955333E+02  0.50000020619E+02 0.  0.
         12    1    1    2    0    0 -0.11708260260E+02 -0.22000170421E+02  0.19890424521E+02  0.31886044667E+02  0.00000000000E+00 0. -1.
         11    1    3    3    0    0  0.18720207535E+02  0.51943093169E+01 -0.78845989387E+01  0.20966495180E+02  0.51100000000E-03 0. -1.
        -11    1    3    3    0    0  0.10519535816E+02  0.11372520696E+02 -0.12604322219E+02  0.19971574791E+02  0.51100000000E-03 0.  1.
        -12    1    3    3    0    0 -0.17531483091E+02  0.54333404074E+01  0.59849663709E+00  0.18363885362E+02  0.00000000000E+00 0.  1.
</event>
<event>
 7    1  0.3223600E-013  0.5930196E+02  0.7816164E-02  0.1266605E+00
        -11   -1    0    0    0    0  0.00000000000E+00  0.00000000000E+00  0.45593999997E+02  0.45594000000E+02  0.51100000000E-03 0.  1.
         11   -1    0    0    0    0 -0.00000000000E+00 -0.00000000000E+00 -0.45593999997E+02  0.45594000000E+02  0.51100000000E-03 0. -1.
    9900012    2    1    2    0    0  0.10817629146E+02  0.18770272429E+02  0.23396053642E+02  0.59301959898E+02  0.50000028943E+02 0.  0.
         12    1    1    2    0    0 -0.10817629146E+02 -0.18770272429E+02 -0.23396053642E+02  0.31886040102E+02  0.00000000000E+00 0. -1.
         11    1    3    3    0    0 -0.45817833582E+01 -0.50088831819E+00 -0.81549118837E+01  0.93672950173E+01  0.51100000000E-03 0. -1.
        -11    1    3    3    0    0  0.57860776809E+01 -0.51592860276E+01  0.19621932981E+02  0.21097800393E+02  0.51100000000E-03 0.  1.
        -12    1    3    3    0    0  0.96133348230E+01  0.24430446775E+02  0.11929032544E+02  0.28836864488E+02  0.00000000000E+00 0.  1.
</event>
<event>
 7    1  0.3223600E-013  0.5930195E+02  0.7816164E-02  0.1266605E+00
        -11   -1    0    0    0    0  0.00000000000E+00  0.00000000000E+00  0.45593999997E+02  0.45594000000E+02  0.51100000000E-03 0.  1.
         11   -1    0    0    0    0 -0.00000000000E+00 -0.00000000000E+00 -0.45593999997E+02  0.45594000000E+02  0.51100000000E-03 0. -1.
    9900012    2    1    2    0    0  0.16233352895E+02 -0.27411581146E+02  0.13430249277E+01  0.59301949083E+02  0.50000009219E+02 0.  0.
         12    1    1    2    0    0 -0.16233352895E+02  0.27411581146E+02 -0.13430249277E+01  0.31886050917E+02  0.00000000000E+00 0. -1.
         11    1    3    3    0    0 -0.31105448796E+01  0.96867517254E+00  0.98303813104E+01  0.10356168114E+02  0.51100000000E-03 0. -1.
        -11    1    3    3    0    0  0.15878015857E+02  0.19160361611E+01  0.31614424542E+01  0.16302677718E+02  0.51100000000E-03 0.  1.
         12    1    3    3    0    0  0.34658819178E+01 -0.30296292480E+02 -0.11648798837E+02  0.32643103251E+02  0.00000000000E+00 0. -1.
</event>
<event>
 7    1  0.3223600E-013  0.5930195E+02  0.7816164E-02  0.1266605E+00
        -11   -1    0    0    0    0  0.00000000000E+00  0.00000000000E+00  0.45593999997E+02  0.45594000000E+02  0.51100000000E-03 0.  1.
         11   -1    0    0    0    0 -0.00000000000E+00 -0.00000000000E+00 -0.45593999997E+02  0.45594000000E+02  0.51100000000E-03 0. -1.
    9900012    2    1    2    0    0  0.19861310122E+02 -0.15486037271E+02  0.19555856160E+02  0.59301945050E+02  0.50000001864E+02 0.  0.
         12    1    1    2    0    0 -0.19861310122E+02  0.15486037271E+02 -0.19555856160E+02  0.31886054950E+02  0.00000000000E+00 0. -1.
         11    1    3    3    0    0  0.86462916349E+01  0.55159250036E+01  0.74534656523E+01  0.12678246652E+02  0.51100000000E-03 0.  1.
        -11    1    3    3    0    0 -0.89069490077E+01 -0.56947472078E+01 -0.88503537214E+01  0.13787409026E+02  0.51100000000E-03 0. -1.
         12    1    3    3    0    0  0.20121967495E+02 -0.15307215067E+02  0.20952744230E+02  0.32836289372E+02  0.00000000000E+00 0. -1.
</event>
<event>
 7    1  0.3223600E-013  0.5930193E+02  0.7816164E-02  0.1266605E+00
        -11   -1    0    0    0    0  0.00000000000E+00  0.00000000000E+00  0.45593999997E+02  0.45594000000E+02  0.51100000000E-03 0. -1.
         11   -1    0    0    0    0 -0.00000000000E+00 -0.00000000000E+00 -0.45593999997E+02  0.45594000000E+02  0.51100000000E-03 0.  1.
    9900012    2    1    2    0    0  0.24292073187E+02  0.12004666718E+02 -0.16807870975E+02  0.59301931421E+02  0.49999977008E+02 0.  0.
         12    1    1    2    0    0 -0.24292073187E+02 -0.12004666718E+02  0.16807870975E+02  0.31886068579E+02  0.00000000000E+00 0. -1.
         11    1    3    3    0    0  0.75401733128E+01  0.46329188306E+01  0.45414557412E+01  0.99470081426E+01  0.51100000000E-03 0. -1.
        -11    1    3    3    0    0  0.29688171558E+02  0.41394220734E+00 -0.15959853373E+02  0.33708690253E+02  0.51100000000E-03 0.  1.
        -12    1    3    3    0    0 -0.12936271684E+02  0.69578056799E+01 -0.53894733435E+01  0.15646233025E+02  0.00000000000E+00 0.  1.
</event>
<event>
 7    1  0.3223600E-013  0.5930195E+02  0.7816164E-02  0.1266605E+00
        -11   -1    0    0    0    0  0.00000000000E+00  0.00000000000E+00  0.45593999997E+02  0.45594000000E+02  0.51100000000E-03 0. -1.
         11   -1    0    0    0    0 -0.00000000000E+00 -0.00000000000E+00 -0.45593999997E+02  0.45594000000E+02  0.51100000000E-03 0.  1.
    9900012    2    1    2    0    0  0.30271468575E+02 -0.64691832813E+01 -0.76490453165E+01  0.59301952326E+02  0.50000015134E+02 0.  0.
         12    1    1    2    0    0 -0.30271468575E+02  0.64691832813E+01  0.76490453165E+01  0.31886047674E+02  0.00000000000E+00 0. -1.
         11    1    3    3    0    0 -0.61515207034E+01 -0.51215371152E+01  0.89502828925E-01  0.80049584885E+01  0.51100000000E-03 0. -1.
        -11    1    3    3    0    0  0.17392746059E+02 -0.17916347224E+02 -0.22984921280E+00  0.24971102183E+02  0.51100000000E-03 0.  1.
         12    1    3    3    0    0  0.19030243219E+02  0.16568701058E+02 -0.75086989327E+01  0.26325891654E+02  0.00000000000E+00 0. -1.
</event>
<event>
 7    1  0.3223600E-013  0.5930186E+02  0.7816164E-02  0.1266605E+00
        -11   -1    0    0    0    0  0.00000000000E+00  0.00000000000E+00  0.45593999997E+02  0.45594000000E+02  0.51100000000E-03 0.  1.
         11   -1    0    0    0    0 -0.00000000000E+00 -0.00000000000E+00 -0.45593999997E+02  0.45594000000E+02  0.51100000000E-03 0. -1.
    9900012    2    1    2    0    0 -0.56721376721E+00  0.14762330622E+02  0.28257352400E+02  0.59301857218E+02  0.49999841680E+02 0.  0.
         12    1    1    2    0    0  0.56721376721E+00 -0.14762330622E+02 -0.28257352400E+02  0.31886142782E+02  0.00000000000E+00 0. -1.
         11    1    3    3    0    0 -0.15438461859E+02  0.21597632171E+01  0.44306020480E+01  0.16206199940E+02  0.51100000000E-03 0. -1.
        -11    1    3    3    0    0  0.94104291352E+01  0.14779888574E+02  0.29892091080E+02  0.34648786302E+02  0.51100000000E-03 0.  1.
         12    1    3    3    0    0  0.54608189564E+01 -0.21773211687E+01 -0.60653407286E+01  0.84468709769E+01  0.00000000000E+00 0. -1.
</event>
<event>
 7    1  0.3223600E-013  0.5930195E+02  0.7816164E-02  0.1266605E+00
        -11   -1    0    0    0    0  0.00000000000E+00  0.00000000000E+00  0.45593999997E+02  0.45594000000E+02  0.51100000000E-03 0.  1.
         11   -1    0    0    0    0 -0.00000000000E+00 -0.00000000000E+00 -0.45593999997E+02  0.45594000000E+02  0.51100000000E-03 0. -1.
    9900012    2    1    2    0    0  0.29662941655E+01  0.26026333337E+02 -0.18181063791E+02  0.59301952759E+02  0.50000015924E+02 0.  0.
         12    1    1    2    0    0 -0.29662941655E+01 -0.26026333337E+02  0.18181063791E+02  0.31886047241E+02  0.00000000000E+00 0. -1.
         11    1    3    3    0    0 -0.39251455393E+01 -0.49936789650E+01 -0.11855123521E+02  0.13449444266E+02  0.51100000000E-03 0. -1.
        -11    1    3    3    0    0 -0.12570119675E+02  0.74148914710E+01  0.86273721487E-01  0.14594381370E+02  0.51100000000E-03 0.  1.
        -12    1    3    3    0    0  0.19461559380E+02  0.23605120831E+02 -0.64122139915E+01  0.31258127123E+02  0.00000000000E+00 0.  1.
</event>
<event>
 7    1  0.3223600E-013  0.5930200E+02  0.7816164E-02  0.1266605E+00
        -11   -1    0    0    0    0  0.00000000000E+00  0.00000000000E+00  0.45593999997E+02  0.45594000000E+02  0.51100000000E-03 0.  1.
         11   -1    0    0    0    0 -0.00000000000E+00 -0.00000000000E+00 -0.45593999997E+02  0.45594000000E+02  0.51100000000E-03 0. -1.
    9900012    2    1    2    0    0 -0.11078562318E+02  0.22870915830E+02  0.19258856414E+02  0.59302001751E+02  0.50000105274E+02 0.  0.
         12    1    1    2    0    0  0.11078562318E+02 -0.22870915830E+02 -0.19258856414E+02  0.31885998249E+02  0.00000000000E+00 0. -1.
         11    1    3    3    0    0  0.33276212625E+01  0.92039640525E+01  0.26386829624E+01  0.10136501644E+02  0.51100000000E-03 0. -1.
        -11    1    3    3    0    0  0.23603274997E+01  0.13908908455E+02  0.26270254314E+02  0.29818704572E+02  0.51100000000E-03 0.  1.
         12    1    3    3    0    0 -0.16766511080E+02 -0.24195667765E+00 -0.96500808629E+01  0.19346795536E+02  0.00000000000E+00 0. -1.
</event>
<event>
 7    1  0.3223600E-013  0.5930194E+02  0.7816164E-02  0.1266605E+00
        -11   -1    0    0    0    0  0.00000000000E+00  0.00000000000E+00  0.45593999997E+02  0.45594000000E+02  0.51100000000E-03 0.  1.
         11   -1    0    0    0    0 -0.00000000000E+00 -0.00000000000E+00 -0.45593999997E+02  0.45594000000E+02  0.51100000000E-03 0. -1.
    9900012    2    1    2    0    0 -0.45632334244E+01  0.13921360087E+02  0.28321259835E+02  0.59301935260E+02  0.49999984010E+02 0.  0.
         12    1    1    2    0    0  0.45632334244E+01 -0.13921360087E+02 -0.28321259835E+02  0.31886064740E+02  0.00000000000E+00 0. -1.
         11    1    3    3    0    0  0.12843341484E+02  0.56303205815E+01  0.20766898547E+02  0.25058252251E+02  0.51100000000E-03 0.  1.
        -11    1    3    3    0    0  0.72143331222E+01  0.44214022898E+01  0.14630337240E+01  0.85869592141E+01  0.51100000000E-03 0. -1.
        -12    1    3    3    0    0 -0.24620908031E+02  0.38696372160E+01  0.60913275635E+01  0.25656723796E+02  0.00000000000E+00 0.  1.
</event>
<event>
 7    1  0.3223600E-013  0.5930194E+02  0.7816164E-02  0.1266605E+00
        -11   -1    0    0    0    0  0.00000000000E+00  0.00000000000E+00  0.45593999997E+02  0.45594000000E+02  0.51100000000E-03 0. -1.
         11   -1    0    0    0    0 -0.00000000000E+00 -0.00000000000E+00 -0.45593999997E+02  0.45594000000E+02  0.51100000000E-03 0.  1.
    9900012    2    1    2    0    0  0.19174708136E+02  0.24433905004E+02 -0.72135548865E+01  0.59301944741E+02  0.50000001302E+02 0.  0.
         12    1    1    2    0    0 -0.19174708136E+02 -0.24433905004E+02  0.72135548865E+01  0.31886055259E+02  0.00000000000E+00 0. -1.
         11    1    3    3    0    0 -0.13627894892E+01  0.45635582412E+01 -0.36800364233E+01  0.60187978326E+01  0.51100000000E-03 0. -1.
        -11    1    3    3    0    0  0.74423454409E+01 -0.26710003596E+01 -0.20639880837E+02  0.22102656623E+02  0.51100000000E-03 0.  1.
         12    1    3    3    0    0  0.13095152184E+02  0.22541347123E+02  0.17106362373E+02  0.31180490286E+02  0.00000000000E+00 0. -1.
</event>
<event>
 7    1  0.3223600E-013  0.5930196E+02  0.7816164E-02  0.1266605E+00
        -11   -1    0    0    0    0  0.00000000000E+00  0.00000000000E+00  0.45593999997E+02  0.45594000000E+02  0.51100000000E-03 0.  1.
         11   -1    0    0    0    0 -0.00000000000E+00 -0.00000000000E+00 -0.45593999997E+02  0.45594000000E+02  0.51100000000E-03 0. -1.
    9900012    2    1    2    0    0  0.14675290217E+02  0.28306103071E+02 -0.34651646489E+00  0.59301957793E+02  0.50000025104E+02 0.  0.
         12    1    1    2    0    0 -0.14675290217E+02 -0.28306103071E+02  0.34651646489E+00  0.31886042207E+02  0.00000000000E+00 0. -1.
         11    1    3    3    0    0  0.37054790129E+01 -0.30881766545E+01 -0.14191155943E+02  0.14988539523E+02  0.51100000000E-03 0. -1.
        -11    1    3    3    0    0  0.95194671291E+01  0.54810364986E+01  0.14693672404E+02  0.18345735867E+02  0.51100000000E-03 0.  1.
        -12    1    3    3    0    0  0.14503440745E+01  0.25913243227E+02 -0.84903292560E+00  0.25967682403E+02  0.00000000000E+00 0.  1.
</event>
<event>
 7    1  0.3223600E-013  0.5930196E+02  0.7816164E-02  0.1266605E+00
        -11   -1    0    0    0    0  0.00000000000E+00  0.00000000000E+00  0.45593999997E+02  0.45594000000E+02  0.51100000000E-03 0. -1.
         11   -1    0    0    0    0 -0.00000000000E+00 -0.00000000000E+00 -0.45593999997E+02  0.45594000000E+02  0.51100000000E-03 0.  1.
    9900012    2    1    2    0    0  0.21356513261E+02 -0.16093065759E+02 -0.17367564181E+02  0.59301957446E+02  0.50000024471E+02 0.  0.
         12    1    1    2    0    0 -0.21356513261E+02  0.16093065759E+02  0.17367564181E+02  0.31886042554E+02  0.00000000000E+00 0. -1.
         11    1    3    3    0    0 -0.26658278386E+00  0.33069438035E+01  0.24656328604E+01  0.41335565030E+01  0.51100000000E-03 0. -1.
        -11    1    3    3    0    0  0.18577584006E+02  0.95181599405E+01 -0.14968602784E+02  0.25686203801E+02  0.51100000000E-03 0.  1.
         12    1    3    3    0    0  0.30455120382E+01 -0.28918169503E+02 -0.48645942576E+01  0.29482197141E+02  0.00000000000E+00 0. -1.
</event>
<event>
 7    1  0.3223600E-013  0.5930195E+02  0.7816164E-02  0.1266605E+00
        -11   -1    0    0    0    0  0.00000000000E+00  0.00000000000E+00  0.45593999997E+02  0.45594000000E+02  0.51100000000E-03 0.  1.
         11   -1    0    0    0    0 -0.00000000000E+00 -0.00000000000E+00 -0.45593999997E+02  0.45594000000E+02  0.51100000000E-03 0. -1.
    9900012    2    1    2    0    0  0.81934341131E+01 -0.28246549544E+02  0.12317487293E+02  0.59301946357E+02  0.50000004248E+02 0.  0.
         12    1    1    2    0    0 -0.81934341131E+01  0.28246549544E+02 -0.12317487293E+02  0.31886053643E+02  0.00000000000E+00 0. -1.
         11    1    3    3    0    0  0.60295893442E+01 -0.14514362299E+01 -0.73322324706E+01  0.96033456698E+01  0.51100000000E-03 0. -1.
        -11    1    3    3    0    0  0.98166729122E+01  0.57935950793E+01  0.91451206055E+01  0.14613898938E+02  0.51100000000E-03 0.  1.
         12    1    3    3    0    0 -0.76528281433E+01 -0.32588708394E+02  0.10504599158E+02  0.35084701749E+02  0.00000000000E+00 0. -1.
</event>
<event>
 7    1  0.3223600E-013  0.5930195E+02  0.7816164E-02  0.1266605E+00
        -11   -1    0    0    0    0  0.00000000000E+00  0.00000000000E+00  0.45593999997E+02  0.45594000000E+02  0.51100000000E-03 0. -1.
         11   -1    0    0    0    0 -0.00000000000E+00 -0.00000000000E+00 -0.45593999997E+02  0.45594000000E+02  0.51100000000E-03 0.  1.
    9900012    2    1    2    0    0 -0.20481578610E+02 -0.15956614447E+02 -0.18509775845E+02  0.59301946485E+02  0.50000004481E+02 0.  0.
         12    1    1    2    0    0  0.20481578610E+02  0.15956614447E+02  0.18509775845E+02  0.31886053515E+02  0.00000000000E+00 0. -1.
         11    1    3    3    0    0 -0.14035651354E+01 -0.70049950802E+01  0.26704423918E+01  0.76270055718E+01  0.51100000000E-03 0. -1.
        -11    1    3    3    0    0 -0.23359903086E+02 -0.33153512068E+00  0.49041489560E+01  0.23871440362E+02  0.51100000000E-03 0.  1.
        -12    1    3    3    0    0  0.42818896114E+01 -0.86200842465E+01 -0.26084367192E+02  0.27803500551E+02  0.00000000000E+00 0.  1.
</event>
<event>
 7    1  0.3223600E-013  0.5930195E+02  0.7816164E-02  0.1266605E+00
        -11   -1    0    0    0    0  0.00000000000E+00  0.00000000000E+00  0.45593999997E+02  0.45594000000E+02  0.51100000000E-03 0.  1.
         11   -1    0    0    0    0 -0.00000000000E+00 -0.00000000000E+00 -0.45593999997E+02  0.45594000000E+02  0.51100000000E-03 0. -1.
    9900012    2    1    2    0    0 -0.30054109296E+02  0.96671571286E+01 -0.44739804834E+01  0.59301954245E+02  0.50000018635E+02 0.  0.
         12    1    1    2    0    0  0.30054109296E+02 -0.96671571286E+01  0.44739804834E+01  0.31886045755E+02  0.00000000000E+00 0. -1.
         11    1    3    3    0    0  0.19269992807E+01  0.32383945836E+00 -0.30309870456E+01  0.36062558082E+01  0.51100000000E-03 0. -1.
        -11    1    3    3    0    0 -0.14438876967E+02  0.26315000429E+02  0.50514913454E+01  0.30438100807E+02  0.51100000000E-03 0.  1.
         12    1    3    3    0    0 -0.17542231609E+02 -0.16971682758E+02 -0.64944847832E+01  0.25257597631E+02  0.00000000000E+00 0. -1.
</event>
<event>
 7    1  0.3223600E-013  0.5930195E+02  0.7816164E-02  0.1266605E+00
        -11   -1    0    0    0    0  0.00000000000E+00  0.00000000000E+00  0.45593999997E+02  0.45594000000E+02  0.51100000000E-03 0.  1.
         11   -1    0    0    0    0 -0.00000000000E+00 -0.00000000000E+00 -0.45593999997E+02  0.45594000000E+02  0.51100000000E-03 0. -1.
    9900012    2    1    2    0    0 -0.53479099935E+01 -0.42641740738E+01  0.31143814240E+02  0.59301945255E+02  0.50000002237E+02 0.  0.
         12    1    1    2    0    0  0.53479099935E+01  0.42641740738E+01 -0.31143814240E+02  0.31886054745E+02  0.00000000000E+00 0. -1.
         11    1    3    3    0    0 -0.19217980239E+02 -0.54720276987E+01  0.19522401979E+02  0.27935605075E+02  0.51100000000E-03 0. -1.
        -11    1    3    3    0    0  0.77875105368E+00  0.71807380108E+01 -0.54434977724E+01  0.90443971520E+01  0.51100000000E-03 0.  1.
        -12    1    3    3    0    0  0.13091319192E+02 -0.59728843859E+01  0.17064910033E+02  0.22321943027E+02  0.00000000000E+00 0.  1.
</event>
<event>
 7    1  0.3223600E-013  0.5930192E+02  0.7816164E-02  0.1266605E+00
        -11   -1    0    0    0    0  0.00000000000E+00  0.00000000000E+00  0.45593999997E+02  0.45594000000E+02  0.51100000000E-03 0. -1.
         11   -1    0    0    0    0 -0.00000000000E+00 -0.00000000000E+00 -0.45593999997E+02  0.45594000000E+02  0.51100000000E-03 0.  1.
    9900012    2    1    2    0    0  0.27050568168E+02  0.10454261860E+01 -0.16849205511E+02  0.59301923408E+02  0.49999962394E+02 0.  0.
         12    1    1    2    0    0 -0.27050568168E+02 -0.10454261860E+01  0.16849205511E+02  0.31886076592E+02  0.00000000000E+00 0. -1.
         11    1    3    3    0    0 -0.91819793362E+01 -0.76381647246E+00 -0.10480533982E+02  0.13954703613E+02  0.51100000000E-03 0. -1.
        -11    1    3    3    0    0  0.43060749777E+01 -0.93730321644E+01  0.19821821278E+01  0.10503573674E+02  0.51100000000E-03 0.  1.
         12    1    3    3    0    0  0.31926472526E+02  0.11182274823E+02 -0.83508536572E+01  0.34843646121E+02  0.00000000000E+00 0. -1.
</event>
<event>
 7    1  0.3223600E-013  0.5930195E+02  0.7816164E-02  0.1266605E+00
        -11   -1    0    0    0    0  0.00000000000E+00  0.00000000000E+00  0.45593999997E+02  0.45594000000E+02  0.51100000000E-03 0.  1.
         11   -1    0    0    0    0 -0.00000000000E+00 -0.00000000000E+00 -0.45593999997E+02  0.45594000000E+02  0.51100000000E-03 0. -1.
    9900012    2    1    2    0    0  0.16059407061E+02 -0.18918069634E+02  0.20023042390E+02  0.59301950694E+02  0.50000012157E+02 0.  0.
         12    1    1    2    0    0 -0.16059407061E+02  0.18918069634E+02 -0.20023042390E+02  0.31886049306E+02  0.00000000000E+00 0. -1.
         11    1    3    3    0    0  0.79460125298E+01 -0.29527831798E+02  0.13865163055E+02  0.33574911952E+02  0.51100000000E-03 0. -1.
        -11    1    3    3    0    0  0.61281283094E+01  0.17487348651E+01  0.12919295273E+02  0.14405562148E+02  0.51100000000E-03 0.  1.
        -12    1    3    3    0    0  0.19852662215E+01  0.88610272989E+01 -0.67614159375E+01  0.11321476593E+02  0.00000000000E+00 0.  1.
</event>
<event>
 7    1  0.3223600E-013  0.5930230E+02  0.7816164E-02  0.1266604E+00
        -11   -1    0    0    0    0  0.00000000000E+00  0.00000000000E+00  0.45593999997E+02  0.45594000000E+02  0.51100000000E-03 0.  1.
         11   -1    0    0    0    0 -0.00000000000E+00 -0.00000000000E+00 -0.45593999997E+02  0.45594000000E+02  0.51100000000E-03 0. -1.
    9900012    2    1    2    0    0  0.13932089931E+02  0.14922292693E+02 -0.24493263649E+02  0.59302299236E+02  0.50000647810E+02 0.  0.
         12    1    1    2    0    0 -0.13932089931E+02 -0.14922292693E+02  0.24493263649E+02  0.31885700764E+02  0.00000000000E+00 0. -1.
         11    1    3    3    0    0 -0.11738368072E+01  0.15977566986E+02 -0.11902536794E+02  0.19958229431E+02  0.51100000000E-03 0. -1.
        -11    1    3    3    0    0 -0.30482736399E+01  0.78693331662E+01  0.71634671089E+01  0.11069491314E+02  0.51100000000E-03 0.  1.
         12    1    3    3    0    0  0.18154200378E+02 -0.89246074598E+01 -0.19754193964E+02  0.28274578491E+02  0.00000000000E+00 0. -1.
</event>
<event>
 7    1  0.3223600E-013  0.5930196E+02  0.7816164E-02  0.1266605E+00
        -11   -1    0    0    0    0  0.00000000000E+00  0.00000000000E+00  0.45593999997E+02  0.45594000000E+02  0.51100000000E-03 0.  1.
         11   -1    0    0    0    0 -0.00000000000E+00 -0.00000000000E+00 -0.45593999997E+02  0.45594000000E+02  0.51100000000E-03 0. -1.
    9900012    2    1    2    0    0 -0.13149829483E+02 -0.26876879930E+02  0.11019739894E+02  0.59301962969E+02  0.50000034545E+02 0.  0.
         12    1    1    2    0    0  0.13149829483E+02  0.26876879930E+02 -0.11019739894E+02  0.31886037031E+02  0.00000000000E+00 0. -1.
         11    1    3    3    0    0 -0.10637433901E+02 -0.12139533223E+02 -0.90682591534E+01  0.18513686591E+02  0.51100000000E-03 0. -1.
        -11    1    3    3    0    0 -0.27442546876E+01 -0.24909727432E+02  0.16474906707E+02  0.29990798685E+02  0.51100000000E-03 0.  1.
         12    1    3    3    0    0  0.23185910558E+00  0.10172380725E+02  0.36130923405E+01  0.10797477692E+02  0.00000000000E+00 0. -1.
</event>
<event>
 7    1  0.3223600E-013  0.5930199E+02  0.7816164E-02  0.1266605E+00
        -11   -1    0    0    0    0  0.00000000000E+00  0.00000000000E+00  0.45593999997E+02  0.45594000000E+02  0.51100000000E-03 0.  1.
         11   -1    0    0    0    0 -0.00000000000E+00 -0.00000000000E+00 -0.45593999997E+02  0.45594000000E+02  0.51100000000E-03 0. -1.
    9900012    2    1    2    0    0  0.60717998530E+01  0.23789706611E+02  0.20344554537E+02  0.59301987496E+02  0.50000079276E+02 0.  0.
         12    1    1    2    0    0 -0.60717998530E+01 -0.23789706611E+02 -0.20344554537E+02  0.31886012504E+02  0.00000000000E+00 0. -1.
         11    1    3    3    0    0  0.94954879128E+01  0.12814150949E+02 -0.11977290794E+01  0.15993789747E+02  0.51100000000E-03 0. -1.
        -11    1    3    3    0    0 -0.78672638031E+00  0.23637380430E+02  0.90384835212E+01  0.25318745557E+02  0.51100000000E-03 0.  1.
        -12    1    3    3    0    0 -0.26369616795E+01 -0.12661824768E+02  0.12503800095E+02  0.17989452192E+02  0.00000000000E+00 0.  1.
</event>
<event>
 7    1  0.3223600E-013  0.5930194E+02  0.7816164E-02  0.1266605E+00
        -11   -1    0    0    0    0  0.00000000000E+00  0.00000000000E+00  0.45593999997E+02  0.45594000000E+02  0.51100000000E-03 0. -1.
         11   -1    0    0    0    0 -0.00000000000E+00 -0.00000000000E+00 -0.45593999997E+02  0.45594000000E+02  0.51100000000E-03 0.  1.
    9900012    2    1    2    0    0 -0.40617608385E+01  0.29559721488E+02 -0.11244810139E+02  0.59301940497E+02  0.49999993560E+02 0.  0.
         12    1    1    2    0    0  0.40617608385E+01 -0.29559721488E+02  0.11244810139E+02  0.31886059503E+02  0.00000000000E+00 0. -1.
         11    1    3    3    0    0 -0.13264142344E+01 -0.74763844081E+00  0.25172112375E+01  0.29418855577E+01  0.51100000000E-03 0. -1.
        -11    1    3    3    0    0 -0.17306703054E+01 -0.91358815700E+01 -0.14114991145E+02  0.16902441452E+02  0.51100000000E-03 0.  1.
        -12    1    3    3    0    0 -0.10046762987E+01  0.39443241499E+02  0.35296976774E+00  0.39457613487E+02  0.00000000000E+00 0.  1.
</event>
<event>
 7    1  0.3223600E-013  0.5930192E+02  0.7816164E-02  0.1266605E+00
        -11   -1    0    0    0    0  0.00000000000E+00  0.00000000000E+00  0.45593999997E+02  0.45594000000E+02  0.51100000000E-03 0. -1.
         11   -1    0    0    0    0 -0.00000000000E+00 -0.00000000000E+00 -0.45593999997E+02  0.45594000000E+02  0.51100000000E-03 0.  1.
    9900012    2    1    2    0    0  0.30008987662E+02  0.98494473294E+01  0.43785166229E+01  0.59301915872E+02  0.49999948650E+02 0.  0.
         12    1    1    2    0    0 -0.30008987662E+02 -0.98494473294E+01 -0.43785166229E+01  0.31886084128E+02  0.00000000000E+00 0. -1.
         11    1    3    3    0    0  0.31732302311E+01 -0.68430765514E+01 -0.66389001120E+01  0.10048486540E+02  0.51100000000E-03 0. -1.
        -11    1    3    3    0    0  0.32309692076E+02  0.15033570582E+02 -0.13138250144E+01  0.35660210080E+02  0.51100000000E-03 0.  1.
        -12    1    3    3    0    0 -0.54739346450E+01  0.16589532990E+01  0.12331241749E+02  0.13593219252E+02  0.00000000000E+00 0.  1.
</event>
<event>
 7    1  0.3223600E-013  0.5930197E+02  0.7816164E-02  0.1266605E+00
        -11   -1    0    0    0    0  0.00000000000E+00  0.00000000000E+00  0.45593999997E+02  0.45594000000E+02  0.51100000000E-03 0.  1.
         11   -1    0    0    0    0 -0.00000000000E+00 -0.00000000000E+00 -0.45593999997E+02  0.45594000000E+02  0.51100000000E-03 0. -1.
    9900012    2    1    2    0    0  0.12991734311E+02 -0.23489288302E+02  0.17210085125E+02  0.59301970844E+02  0.50000048906E+02 0.  0.
         12    1    1    2    0    0 -0.12991734311E+02  0.23489288302E+02 -0.17210085125E+02  0.31886029156E+02  0.00000000000E+00 0. -1.
         11    1    3    3    0    0  0.26788122086E+01  0.18367193754E+01  0.16290634330E+00  0.32520934259E+01  0.51100000000E-03 0. -1.
        -11    1    3    3    0    0  0.28312000619E+02 -0.19653989664E+02  0.12256702879E+02  0.36579713701E+02  0.51100000000E-03 0.  1.
         12    1    3    3    0    0 -0.17999078516E+02 -0.56720180126E+01  0.47904759031E+01  0.19470163717E+02  0.00000000000E+00 0. -1.
</event>
<event>
 7    1  0.3223600E-013  0.5930229E+02  0.7816164E-02  0.1266604E+00
        -11   -1    0    0    0    0  0.00000000000E+00  0.00000000000E+00  0.45593999997E+02  0.45594000000E+02  0.51100000000E-03 0. -1.
         11   -1    0    0    0    0 -0.00000000000E+00 -0.00000000000E+00 -0.45593999997E+02  0.45594000000E+02  0.51100000000E-03 0.  1.
    9900012    2    1    2    0    0  0.13261211450E+02 -0.22200280072E+02 -0.18654387612E+02  0.59302292519E+02  0.50000635560E+02 0.  0.
         12    1    1    2    0    0 -0.13261211450E+02  0.22200280072E+02  0.18654387612E+02  0.31885707481E+02  0.00000000000E+00 0. -1.
         11    1    3    3    0    0 -0.54954087581E+01  0.79354185707E+01 -0.12983824215E+02  0.16178692061E+02  0.51100000000E-03 0. -1.
        -11    1    3    3    0    0  0.15018654239E+02 -0.22552411495E+02 -0.14639911970E+02  0.30797698975E+02  0.51100000000E-03 0.  1.
        -12    1    3    3    0    0  0.37379659685E+01 -0.75832871472E+01  0.89693485723E+01  0.12325901482E+02  0.00000000000E+00 0.  1.
</event>
<event>
 7    1  0.3223600E-013  0.5930197E+02  0.7816164E-02  0.1266605E+00
        -11   -1    0    0    0    0  0.00000000000E+00  0.00000000000E+00  0.45593999997E+02  0.45594000000E+02  0.51100000000E-03 0.  1.
         11   -1    0    0    0    0 -0.00000000000E+00 -0.00000000000E+00 -0.45593999997E+02  0.45594000000E+02  0.51100000000E-03 0. -1.
    9900012    2    1    2    0    0 -0.85933136409E+01 -0.30229747662E+02 -0.53884980356E+01  0.59301974941E+02  0.50000056378E+02 0.  0.
         12    1    1    2    0    0  0.85933136409E+01  0.30229747662E+02  0.53884980356E+01  0.31886025059E+02  0.00000000000E+00 0. -1.
         11    1    3    3    0    0 -0.29790560257E+01 -0.18220657976E+01  0.12362187799E+02  0.12845948234E+02  0.51100000000E-03 0.  1.
        -11    1    3    3    0    0 -0.18868917270E+02 -0.18014658546E+02 -0.10770180833E+02  0.28223407961E+02  0.51100000000E-03 0. -1.
         12    1    3    3    0    0  0.13254659655E+02 -0.10393023318E+02 -0.69805050019E+01  0.18232618746E+02  0.00000000000E+00 0. -1.
</event>
<event>
 7    1  0.3223600E-013  0.5930193E+02  0.7816164E-02  0.1266605E+00
        -11   -1    0    0    0    0  0.00000000000E+00  0.00000000000E+00  0.45593999997E+02  0.45594000000E+02  0.51100000000E-03 0.  1.
         11   -1    0    0    0    0 -0.00000000000E+00 -0.00000000000E+00 -0.45593999997E+02  0.45594000000E+02  0.51100000000E-03 0. -1.
    9900012    2    1    2    0    0  0.20229102606E+01  0.21792661145E+00  0.31821090223E+02  0.59301930300E+02  0.49999974964E+02 0.  0.
         12    1    1    2    0    0 -0.20229102606E+01 -0.21792661145E+00 -0.31821090223E+02  0.31886069700E+02  0.00000000000E+00 0. -1.
         11    1    3    3    0    0  0.21865006376E+01  0.81343311242E+00 -0.30168416267E+01  0.38136324060E+01  0.51100000000E-03 0. -1.
        -11    1    3    3    0    0 -0.10584273914E+02  0.17034885393E+02  0.76834479696E+01  0.21476721063E+02  0.51100000000E-03 0.  1.
         12    1    3    3    0    0  0.10420683537E+02 -0.17630391894E+02  0.27154483880E+02  0.34011576831E+02  0.00000000000E+00 0. -1.
</event>
<event>
 7    1  0.3223600E-013  0.5930194E+02  0.7816164E-02  0.1266605E+00
        -11   -1    0    0    0    0  0.00000000000E+00  0.00000000000E+00  0.45593999997E+02  0.45594000000E+02  0.51100000000E-03 0. -1.
         11   -1    0    0    0    0 -0.00000000000E+00 -0.00000000000E+00 -0.45593999997E+02  0.45594000000E+02  0.51100000000E-03 0.  1.
    9900012    2    1    2    0    0 -0.85121992810E+01 -0.30726226566E+02  0.40287627889E+00  0.59301939646E+02  0.49999992009E+02 0.  0.
         12    1    1    2    0    0  0.85121992810E+01  0.30726226566E+02 -0.40287627889E+00  0.31886060354E+02  0.00000000000E+00 0. -1.
         11    1    3    3    0    0 -0.93615029409E+01 -0.25271874233E+01 -0.80666114374E+01  0.12613272134E+02  0.51100000000E-03 0. -1.
        -11    1    3    3    0    0  0.13464765593E+02 -0.42357387963E+00 -0.34994522502E+01  0.13918530584E+02  0.51100000000E-03 0.  1.
         12    1    3    3    0    0 -0.12615461933E+02 -0.27775465263E+02  0.11968939967E+02  0.32770136928E+02  0.00000000000E+00 0. -1.
</event>
<event>
 7    1  0.3223600E-013  0.5930193E+02  0.7816164E-02  0.1266605E+00
        -11   -1    0    0    0    0  0.00000000000E+00  0.00000000000E+00  0.45593999997E+02  0.45594000000E+02  0.51100000000E-03 0.  1.
         11   -1    0    0    0    0 -0.00000000000E+00 -0.00000000000E+00 -0.45593999997E+02  0.45594000000E+02  0.51100000000E-03 0. -1.
    9900012    2    1    2    0    0  0.25475025142E+02 -0.18464930061E+02  0.51759661123E+01  0.59301934496E+02  0.49999982616E+02 0.  0.
         12    1    1    2    0    0 -0.25475025142E+02  0.18464930061E+02 -0.51759661123E+01  0.31886065504E+02  0.00000000000E+00 0. -1.
         11    1    3    3    0    0  0.11981806303E+02  0.10917942065E+02  0.55618635319E+01  0.17137662251E+02  0.51100000000E-03 0. -1.
        -11    1    3    3    0    0  0.65257677437E+01 -0.12466189543E+02  0.13264656133E+02  0.19337596256E+02  0.51100000000E-03 0.  1.
        -12    1    3    3    0    0  0.69674510959E+01 -0.16916682583E+02 -0.13650553553E+02  0.22826675988E+02  0.00000000000E+00 0.  1.
</event>
<event>
 7    1  0.3223600E-013  0.5930222E+02  0.7816164E-02  0.1266604E+00
        -11   -1    0    0    0    0  0.00000000000E+00  0.00000000000E+00  0.45593999997E+02  0.45594000000E+02  0.51100000000E-03 0.  1.
         11   -1    0    0    0    0 -0.00000000000E+00 -0.00000000000E+00 -0.45593999997E+02  0.45594000000E+02  0.51100000000E-03 0. -1.
    9900012    2    1    2    0    0 -0.10339085697E+02 -0.29385939158E+02  0.68024376270E+01  0.59302215222E+02  0.50000494591E+02 0.  0.
         12    1    1    2    0    0  0.10339085697E+02  0.29385939158E+02 -0.68024376270E+01  0.31885784778E+02  0.00000000000E+00 0. -1.
         11    1    3    3    0    0  0.24475498888E+01  0.69571522631E+01 -0.12156235248E+02  0.14218527481E+02  0.51100000000E-03 0. -1.
        -11    1    3    3    0    0 -0.44841947722E+01 -0.88142196538E+01 -0.12082357841E+01  0.99628462214E+01  0.51100000000E-03 0.  1.
        -12    1    3    3    0    0 -0.83024408136E+01 -0.27528871767E+02  0.20166908659E+02  0.35120841520E+02  0.00000000000E+00 0.  1.
</event>
<event>
 7    1  0.3223600E-013  0.5930195E+02  0.7816164E-02  0.1266605E+00
        -11   -1    0    0    0    0  0.00000000000E+00  0.00000000000E+00  0.45593999997E+02  0.45594000000E+02  0.51100000000E-03 0.  1.
         11   -1    0    0    0    0 -0.00000000000E+00 -0.00000000000E+00 -0.45593999997E+02  0.45594000000E+02  0.51100000000E-03 0. -1.
    9900012    2    1    2    0    0 -0.72080700219E+01  0.30601856639E+02  0.53188570179E+01  0.59301950649E+02  0.50000012076E+02 0.  0.
         12    1    1    2    0    0  0.72080700219E+01 -0.30601856639E+02 -0.53188570179E+01  0.31886049351E+02  0.00000000000E+00 0. -1.
         11    1    3    3    0    0 -0.22426005848E+01  0.26196303396E+02 -0.12174287223E+02  0.28973933779E+02  0.51100000000E-03 0. -1.
        -11    1    3    3    0    0  0.67861543253E+00  0.73442978267E+01 -0.36633682512E+01  0.82352593570E+01  0.51100000000E-03 0.  1.
        -12    1    3    3    0    0 -0.56440848697E+01 -0.29387445831E+01  0.21156512492E+02  0.22092757514E+02  0.00000000000E+00 0.  1.
</event>
<event>
 7    1  0.3223600E-013  0.5930194E+02  0.7816164E-02  0.1266605E+00
        -11   -1    0    0    0    0  0.00000000000E+00  0.00000000000E+00  0.45593999997E+02  0.45594000000E+02  0.51100000000E-03 0.  1.
         11   -1    0    0    0    0 -0.00000000000E+00 -0.00000000000E+00 -0.45593999997E+02  0.45594000000E+02  0.51100000000E-03 0. -1.
    9900012    2    1    2    0    0 -0.30472321496E+02 -0.41460877921E+01  0.84242794043E+01  0.59301938706E+02  0.49999990295E+02 0.  0.
         12    1    1    2    0    0  0.30472321496E+02  0.41460877921E+01 -0.84242794043E+01  0.31886061294E+02  0.00000000000E+00 0. -1.
         11    1    3    3    0    0 -0.25308672000E+02 -0.14209961751E+02  0.14933792295E+02  0.32641538627E+02  0.51100000000E-03 0. -1.
        -11    1    3    3    0    0 -0.43883854369E+01 -0.71883335839E+01 -0.74843606790E+00  0.84551891324E+01  0.51100000000E-03 0.  1.
        -12    1    3    3    0    0 -0.77526405967E+00  0.17252207543E+02 -0.57610768226E+01  0.18205210947E+02  0.00000000000E+00 0.  1.
</event>
<event>
 7    1  0.3223600E-013  0.5930198E+02  0.7816164E-02  0.1266605E+00
        -11   -1    0    0    0    0  0.00000000000E+00  0.00000000000E+00  0.45593999997E+02  0.45594000000E+02  0.51100000000E-03 0. -1.
         11   -1    0    0    0    0 -0.00000000000E+00 -0.00000000000E+00 -0.45593999997E+02  0.45594000000E+02  0.51100000000E-03 0.  1.
    9900012    2    1    2    0    0 -0.25117297231E+02 -0.12889644498E+02  0.14822166854E+02  0.59301981344E+02  0.50000068056E+02 0.  0.
         12    1    1    2    0    0  0.25117297231E+02  0.12889644498E+02 -0.14822166854E+02  0.31886018656E+02  0.00000000000E+00 0. -1.
         11    1    3    3    0    0 -0.29029483468E+02 -0.19490885001E+02  0.13117624910E+02  0.37345382474E+02  0.51100000000E-03 0. -1.
        -11    1    3    3    0    0 -0.65232669539E+01  0.89031606598E+01 -0.48680977874E+00  0.11047907743E+02  0.51100000000E-03 0.  1.
        -12    1    3    3    0    0  0.10435453192E+02 -0.23019201570E+01  0.21913517234E+01  0.10908691127E+02  0.00000000000E+00 0.  1.
</event>
<event>
 7    1  0.3223600E-013  0.5930195E+02  0.7816164E-02  0.1266605E+00
        -11   -1    0    0    0    0  0.00000000000E+00  0.00000000000E+00  0.45593999997E+02  0.45594000000E+02  0.51100000000E-03 0.  1.
         11   -1    0    0    0    0 -0.00000000000E+00 -0.00000000000E+00 -0.45593999997E+02  0.45594000000E+02  0.51100000000E-03 0. -1.
    9900012    2    1    2    0    0 -0.17825633112E+02  0.26165529359E+02 -0.37857659594E+01  0.59301950599E+02  0.50000011984E+02 0.  0.
         12    1    1    2    0    0  0.17825633112E+02 -0.26165529359E+02  0.37857659594E+01  0.31886049401E+02  0.00000000000E+00 0. -1.
         11    1    3    3    0    0  0.12405199449E+02  0.11716708018E+02  0.12341390859E+02  0.21058968368E+02  0.51100000000E-03 0. -1.
        -11    1    3    3    0    0 -0.11162073468E+00 -0.72282937409E+00  0.22213386231E+00  0.76438550900E+00  0.51100000000E-03 0.  1.
        -12    1    3    3    0    0 -0.30119211827E+02  0.15171650715E+02 -0.16349290680E+02  0.37478596722E+02  0.00000000000E+00 0.  1.
</event>
<event>
 7    1  0.3223600E-013  0.5930194E+02  0.7816164E-02  0.1266605E+00
        -11   -1    0    0    0    0  0.00000000000E+00  0.00000000000E+00  0.45593999997E+02  0.45594000000E+02  0.51100000000E-03 0.  1.
         11   -1    0    0    0    0 -0.00000000000E+00 -0.00000000000E+00 -0.45593999997E+02  0.45594000000E+02  0.51100000000E-03 0. -1.
    9900012    2    1    2    0    0 -0.74669496038E+01  0.20497752255E+02  0.23255272713E+02  0.59301938894E+02  0.49999990637E+02 0.  0.
         12    1    1    2    0    0  0.74669496038E+01 -0.20497752255E+02 -0.23255272713E+02  0.31886061106E+02  0.00000000000E+00 0. -1.
         11    1    3    3    0    0  0.39429153671E+01  0.16521373481E+02  0.32132832628E+01  0.17286629309E+02  0.51100000000E-03 0. -1.
        -11    1    3    3    0    0  0.10789511401E+02 -0.31771609766E+01 -0.24562185206E-01  0.11247600264E+02  0.51100000000E-03 0.  1.
         12    1    3    3    0    0 -0.22199376372E+02  0.71535397506E+01  0.20066551636E+02  0.30767709320E+02  0.00000000000E+00 0. -1.
</event>
<event>
 7    1  0.3223600E-013  0.5930193E+02  0.7816164E-02  0.1266605E+00
        -11   -1    0    0    0    0  0.00000000000E+00  0.00000000000E+00  0.45593999997E+02  0.45594000000E+02  0.51100000000E-03 0. -1.
         11   -1    0    0    0    0 -0.00000000000E+00 -0.00000000000E+00 -0.45593999997E+02  0.45594000000E+02  0.51100000000E-03 0.  1.
    9900012    2    1    2    0    0 -0.75475801787E+01  0.84888757073E+01 -0.29794207474E+02  0.59301925040E+02  0.49999965371E+02 0.  0.
         12    1    1    2    0    0  0.75475801787E+01 -0.84888757073E+01  0.29794207474E+02  0.31886074960E+02  0.00000000000E+00 0. -1.
         11    1    3    3    0    0  0.37085784595E+01  0.93319390128E+01 -0.20405309019E+01  0.10247068193E+02  0.51100000000E-03 0. -1.
        -11    1    3    3    0    0 -0.10224795519E+02  0.17998537991E+02 -0.94108327105E+01  0.22738900276E+02  0.51100000000E-03 0.  1.
         12    1    3    3    0    0 -0.10313631190E+01 -0.18841601296E+02 -0.18342843862E+02  0.26315956571E+02  0.00000000000E+00 0. -1.
</event>
<event>
 7    1  0.3223600E-013  0.5930194E+02  0.7816164E-02  0.1266605E+00
        -11   -1    0    0    0    0  0.00000000000E+00  0.00000000000E+00  0.45593999997E+02  0.45594000000E+02  0.51100000000E-03 0.  1.
         11   -1    0    0    0    0 -0.00000000000E+00 -0.00000000000E+00 -0.45593999997E+02  0.45594000000E+02  0.51100000000E-03 0. -1.
    9900012    2    1    2    0    0  0.18705142749E+02 -0.25484661693E+02  0.41678003210E+01  0.59301938682E+02  0.49999990251E+02 0.  0.
         12    1    1    2    0    0 -0.18705142749E+02  0.25484661693E+02 -0.41678003210E+01  0.31886061318E+02  0.00000000000E+00 0. -1.
         11    1    3    3    0    0 -0.11919183133E+01 -0.23092973617E+02 -0.49432572299E+01  0.23646181342E+02  0.51100000000E-03 0. -1.
        -11    1    3    3    0    0 -0.45521251745E+01 -0.64736718447E+01  0.73583326957E+01  0.10806263511E+02  0.51100000000E-03 0.  1.
         12    1    3    3    0    0  0.24449186237E+02  0.40819837690E+01  0.17527248552E+01  0.24849493829E+02  0.00000000000E+00 0. -1.
</event>
<event>
 7    1  0.3223600E-013  0.5930191E+02  0.7816164E-02  0.1266605E+00
        -11   -1    0    0    0    0  0.00000000000E+00  0.00000000000E+00  0.45593999997E+02  0.45594000000E+02  0.51100000000E-03 0. -1.
         11   -1    0    0    0    0 -0.00000000000E+00 -0.00000000000E+00 -0.45593999997E+02  0.45594000000E+02  0.51100000000E-03 0.  1.
    9900012    2    1    2    0    0  0.29641445699E+02 -0.25864206134E+01 -0.11463773152E+02  0.59301906329E+02  0.49999931246E+02 0.  0.
         12    1    1    2    0    0 -0.29641445699E+02  0.25864206134E+01  0.11463773152E+02  0.31886093671E+02  0.00000000000E+00 0. -1.
         11    1    3    3    0    0  0.34749248170E+01 -0.32233786441E+01  0.11747607295E+02  0.12667736569E+02  0.51100000000E-03 0. -1.
        -11    1    3    3    0    0  0.37685447511E+01  0.13723446350E+02 -0.56708664949E+01  0.15319713976E+02  0.51100000000E-03 0.  1.
        -12    1    3    3    0    0  0.22397976131E+02 -0.13086488319E+02 -0.17540513952E+02  0.31314455783E+02  0.00000000000E+00 0.  1.
</event>
<event>
 7    1  0.3223600E-013  0.5930194E+02  0.7816164E-02  0.1266605E+00
        -11   -1    0    0    0    0  0.00000000000E+00  0.00000000000E+00  0.45593999997E+02  0.45594000000E+02  0.51100000000E-03 0.  1.
         11   -1    0    0    0    0 -0.00000000000E+00 -0.00000000000E+00 -0.45593999997E+02  0.45594000000E+02  0.51100000000E-03 0. -1.
    9900012    2    1    2    0    0  0.20583713761E+02  0.18730366644E+02  0.15562931786E+02  0.59301941094E+02  0.49999994649E+02 0.  0.
         12    1    1    2    0    0 -0.20583713761E+02 -0.18730366644E+02 -0.15562931786E+02  0.31886058906E+02  0.00000000000E+00 0. -1.
         11    1    3    3    0    0  0.13574127580E+02  0.79268966580E+00  0.72105248840E+01  0.15390807835E+02  0.51100000000E-03 0.  1.
        -11    1    3    3    0    0  0.67305187350E+01  0.28987970192E+02  0.12261973795E+02  0.32186306093E+02  0.51100000000E-03 0. -1.
         12    1    3    3    0    0  0.27906744621E+00 -0.11050293214E+02 -0.39095668936E+01  0.11724827165E+02  0.00000000000E+00 0. -1.
</event>
<event>
 7    1  0.3223600E-013  0.5930193E+02  0.7816164E-02  0.1266605E+00
        -11   -1    0    0    0    0  0.00000000000E+00  0.00000000000E+00  0.45593999997E+02  0.45594000000E+02  0.51100000000E-03 0.  1.
         11   -1    0    0    0    0 -0.00000000000E+00 -0.00000000000E+00 -0.45593999997E+02  0.45594000000E+02  0.51100000000E-03 0. -1.
    9900012    2    1    2    0    0  0.26152298984E+02 -0.28654223778E+01  0.18015766169E+02  0.59301933793E+02  0.49999981334E+02 0.  0.
         12    1    1    2    0    0 -0.26152298984E+02  0.28654223778E+01 -0.18015766169E+02  0.31886066207E+02  0.00000000000E+00 0. -1.
         11    1    3    3    0    0  0.58505524790E+01 -0.12652890490E+02 -0.10220125685E+02  0.17285125725E+02  0.51100000000E-03 0. -1.
        -11    1    3    3    0    0  0.20796025439E+01 -0.62301437943E+01  0.85001044568E+01  0.10742030277E+02  0.51100000000E-03 0.  1.
        -12    1    3    3    0    0  0.18222143961E+02  0.16017611906E+02  0.19735787396E+02  0.31274777791E+02  0.00000000000E+00 0.  1.
</event>
<event>
 7    1  0.3223600E-013  0.5930194E+02  0.7816164E-02  0.1266605E+00
        -11   -1    0    0    0    0  0.00000000000E+00  0.00000000000E+00  0.45593999997E+02  0.45594000000E+02  0.51100000000E-03 0. -1.
         11   -1    0    0    0    0 -0.00000000000E+00 -0.00000000000E+00 -0.45593999997E+02  0.45594000000E+02  0.51100000000E-03 0.  1.
    9900012    2    1    2    0    0  0.79276170924E+01 -0.30378638638E+02  0.55688714250E+01  0.59301935219E+02  0.49999983936E+02 0.  0.
         12    1    1    2    0    0 -0.79276170924E+01  0.30378638638E+02 -0.55688714250E+01  0.31886064781E+02  0.00000000000E+00 0. -1.
         11    1    3    3    0    0 -0.86112073751E+01  0.55720851848E+01 -0.19656178261E+01  0.10443403634E+02  0.51100000000E-03 0. -1.
        -11    1    3    3    0    0 -0.32493917024E+01 -0.17408889787E+02 -0.58059877103E+01  0.18636992344E+02  0.51100000000E-03 0.  1.
        -12    1    3    3    0    0  0.19788216170E+02 -0.18541834035E+02  0.13340476961E+02  0.30221539242E+02  0.00000000000E+00 0.  1.
</event>
<event>
 7    1  0.3223600E-013  0.5930193E+02  0.7816164E-02  0.1266605E+00
        -11   -1    0    0    0    0  0.00000000000E+00  0.00000000000E+00  0.45593999997E+02  0.45594000000E+02  0.51100000000E-03 0. -1.
         11   -1    0    0    0    0 -0.00000000000E+00 -0.00000000000E+00 -0.45593999997E+02  0.45594000000E+02  0.51100000000E-03 0.  1.
    9900012    2    1    2    0    0  0.61434543852E+01  0.30489724422E+02 -0.70253934075E+01  0.59301929693E+02  0.49999973857E+02 0.  0.
         12    1    1    2    0    0 -0.61434543852E+01 -0.30489724422E+02  0.70253934075E+01  0.31886070307E+02  0.00000000000E+00 0. -1.
         11    1    3    3    0    0 -0.86162139647E+01  0.13192883810E+02 -0.21241030070E+02  0.26447545916E+02  0.51100000000E-03 0. -1.
        -11    1    3    3    0    0  0.14431446271E+01  0.11164494750E+02 -0.15060919637E+01  0.11357681220E+02  0.51100000000E-03 0.  1.
         12    1    3    3    0    0  0.13316523723E+02  0.61323458620E+01  0.15721728626E+02  0.21496702557E+02  0.00000000000E+00 0. -1.
</event>
<event>
 7    1  0.3223600E-013  0.5930192E+02  0.7816164E-02  0.1266605E+00
        -11   -1    0    0    0    0  0.00000000000E+00  0.00000000000E+00  0.45593999997E+02  0.45594000000E+02  0.51100000000E-03 0. -1.
         11   -1    0    0    0    0 -0.00000000000E+00 -0.00000000000E+00 -0.45593999997E+02  0.45594000000E+02  0.51100000000E-03 0.  1.
    9900012    2    1    2    0    0  0.11564052717E+02  0.29185860639E+02  0.55839329230E+01  0.59301920226E+02  0.49999956591E+02 0.  0.
         12    1    1    2    0    0 -0.11564052717E+02 -0.29185860639E+02 -0.55839329230E+01  0.31886079774E+02  0.00000000000E+00 0. -1.
         11    1    3    3    0    0  0.10792513100E+02 -0.39961948834E+01  0.18871038631E+01  0.11662292820E+02  0.51100000000E-03 0. -1.
        -11    1    3    3    0    0  0.10628525875E+02  0.25269058287E+02  0.14499880051E+02  0.31011891119E+02  0.51100000000E-03 0.  1.
         12    1    3    3    0    0 -0.98569862580E+01  0.79129972351E+01 -0.10803050991E+02  0.16627736288E+02  0.00000000000E+00 0. -1.
</event>
<event>
 7    1  0.3223600E-013  0.5930194E+02  0.7816164E-02  0.1266605E+00
        -11   -1    0    0    0    0  0.00000000000E+00  0.00000000000E+00  0.45593999997E+02  0.45594000000E+02  0.51100000000E-03 0.  1.
         11   -1    0    0    0    0 -0.00000000000E+00 -0.00000000000E+00 -0.45593999997E+02  0.45594000000E+02  0.51100000000E-03 0. -1.
    9900012    2    1    2    0    0 -0.15534959374E+02 -0.27519541629E+02 -0.42497588855E+01  0.59301943724E+02  0.49999999447E+02 0.  0.
         12    1    1    2    0    0  0.15534959374E+02  0.27519541629E+02  0.42497588855E+01  0.31886056276E+02  0.00000000000E+00 0. -1.
         11    1    3    3    0    0 -0.21452120180E+02 -0.12835068274E+02 -0.82532810394E+01  0.26325825457E+02  0.51100000000E-03 0. -1.
        -11    1    3    3    0    0  0.48798025903E+00 -0.92224620664E+01  0.16144048899E+02  0.18598985091E+02  0.51100000000E-03 0.  1.
         12    1    3    3    0    0  0.54291805470E+01 -0.54620112886E+01 -0.12140526745E+02  0.14377133176E+02  0.00000000000E+00 0. -1.
</event>
<event>
 7    1  0.3223600E-013  0.5930194E+02  0.7816164E-02  0.1266605E+00
        -11   -1    0    0    0    0  0.00000000000E+00  0.00000000000E+00  0.45593999997E+02  0.45594000000E+02  0.51100000000E-03 0. -1.
         11   -1    0    0    0    0 -0.00000000000E+00 -0.00000000000E+00 -0.45593999997E+02  0.45594000000E+02  0.51100000000E-03 0.  1.
    9900012    2    1    2    0    0 -0.17345440333E+02 -0.21141070187E+02 -0.16398522618E+02  0.59301942027E+02  0.49999996352E+02 0.  0.
         12    1    1    2    0    0  0.17345440333E+02  0.21141070187E+02  0.16398522618E+02  0.31886057973E+02  0.00000000000E+00 0. -1.
         11    1    3    3    0    0  0.32915144683E+01  0.12442224737E+02 -0.17402433015E+01  0.12987358119E+02  0.51100000000E-03 0. -1.
        -11    1    3    3    0    0  0.35713787074E+01 -0.27447271462E+01 -0.30025553260E+01  0.54132810499E+01  0.51100000000E-03 0.  1.
         12    1    3    3    0    0 -0.24208333508E+02 -0.30838567777E+02 -0.11655723991E+02  0.40901302859E+02  0.00000000000E+00 0. -1.
</event>
<event>
 7    1  0.3223600E-013  0.5930193E+02  0.7816164E-02  0.1266605E+00
        -11   -1    0    0    0    0  0.00000000000E+00  0.00000000000E+00  0.45593999997E+02  0.45594000000E+02  0.51100000000E-03 0.  1.
         11   -1    0    0    0    0 -0.00000000000E+00 -0.00000000000E+00 -0.45593999997E+02  0.45594000000E+02  0.51100000000E-03 0. -1.
    9900012    2    1    2    0    0  0.30407663225E+01  0.20651573925E+02  0.24103690085E+02  0.59301927160E+02  0.49999969238E+02 0.  0.
         12    1    1    2    0    0 -0.30407663225E+01 -0.20651573925E+02 -0.24103690085E+02  0.31886072840E+02  0.00000000000E+00 0. -1.
         11    1    3    3    0    0 -0.56568378141E+01  0.33955429923E+01 -0.97197373255E+01  0.11747460160E+02  0.51100000000E-03 0. -1.
        -11    1    3    3    0    0 -0.17805691584E+01 -0.67509471922E+01  0.48815752479E+01  0.85191250538E+01  0.51100000000E-03 0.  1.
        -12    1    3    3    0    0  0.10478173295E+02  0.24006978125E+02  0.28941852163E+02  0.39035341947E+02  0.00000000000E+00 0.  1.
</event>
<event>
 7    1  0.3223600E-013  0.5930199E+02  0.7816164E-02  0.1266605E+00
        -11   -1    0    0    0    0  0.00000000000E+00  0.00000000000E+00  0.45593999997E+02  0.45594000000E+02  0.51100000000E-03 0. -1.
         11   -1    0    0    0    0 -0.00000000000E+00 -0.00000000000E+00 -0.45593999997E+02  0.45594000000E+02  0.51100000000E-03 0.  1.
    9900012    2    1    2    0    0  0.10935024418E+02  0.16825978294E+02 -0.24779615917E+02  0.59301989438E+02  0.50000082818E+02 0.  0.
         12    1    1    2    0    0 -0.10935024418E+02 -0.16825978294E+02  0.24779615917E+02  0.31886010562E+02  0.00000000000E+00 0. -1.
         11    1    3    3    0    0  0.34843205381E+01 -0.12236532576E+01 -0.45932164854E+01  0.58936792286E+01  0.51100000000E-03 0. -1.
        -11    1    3    3    0    0 -0.66108330265E+01 -0.10808554968E+02  0.39206173783E+01  0.13262700128E+02  0.51100000000E-03 0.  1.
        -12    1    3    3    0    0  0.14061536906E+02  0.28858186520E+02 -0.24107016810E+02  0.40145610082E+02  0.00000000000E+00 0.  1.
</event>
<event>
 7    1  0.3223600E-013  0.5930195E+02  0.7816164E-02  0.1266605E+00
        -11   -1    0    0    0    0  0.00000000000E+00  0.00000000000E+00  0.45593999997E+02  0.45594000000E+02  0.51100000000E-03 0. -1.
         11   -1    0    0    0    0 -0.00000000000E+00 -0.00000000000E+00 -0.45593999997E+02  0.45594000000E+02  0.51100000000E-03 0.  1.
    9900012    2    1    2    0    0 -0.12468624954E+02 -0.29042010529E+02  0.42207898836E+01  0.59301952094E+02  0.50000014711E+02 0.  0.
         12    1    1    2    0    0  0.12468624954E+02  0.29042010529E+02 -0.42207898836E+01  0.31886047906E+02  0.00000000000E+00 0. -1.
         11    1    3    3    0    0  0.79159449574E+01 -0.23770843215E+00 -0.33296887315E+01  0.85910137455E+01  0.51100000000E-03 0. -1.
        -11    1    3    3    0    0  0.51424848958E+01 -0.21685686565E+02 -0.23725838493E+01  0.22413016466E+02  0.51100000000E-03 0.  1.
        -12    1    3    3    0    0 -0.25527054807E+02 -0.71186155315E+01  0.99230624643E+01  0.28297921883E+02  0.00000000000E+00 0.  1.
</event>
<event>
 7    1  0.3223600E-013  0.5930189E+02  0.7816164E-02  0.1266605E+00
        -11   -1    0    0    0    0  0.00000000000E+00  0.00000000000E+00  0.45593999997E+02  0.45594000000E+02  0.51100000000E-03 0.  1.
         11   -1    0    0    0    0 -0.00000000000E+00 -0.00000000000E+00 -0.45593999997E+02  0.45594000000E+02  0.51100000000E-03 0. -1.
    9900012    2    1    2    0    0 -0.16551792802E+02  0.76043579071E+01  0.26171275237E+02  0.59301894066E+02  0.49999908881E+02 0.  0.
         12    1    1    2    0    0  0.16551792802E+02 -0.76043579071E+01 -0.26171275237E+02  0.31886105934E+02  0.00000000000E+00 0. -1.
         11    1    3    3    0    0  0.97010145062E+01  0.33152551825E+01 -0.55398868075E+01  0.11652937204E+02  0.51100000000E-03 0. -1.
        -11    1    3    3    0    0 -0.19673063035E+02 -0.54467106686E+01  0.29208480890E+02  0.35634694084E+02  0.51100000000E-03 0.  1.
         12    1    3    3    0    0 -0.65797442739E+01  0.97358133932E+01  0.25026811537E+01  0.12014262778E+02  0.00000000000E+00 0. -1.
</event>
<event>
 7    1  0.3223600E-013  0.5930189E+02  0.7816164E-02  0.1266605E+00
        -11   -1    0    0    0    0  0.00000000000E+00  0.00000000000E+00  0.45593999997E+02  0.45594000000E+02  0.51100000000E-03 0.  1.
         11   -1    0    0    0    0 -0.00000000000E+00 -0.00000000000E+00 -0.45593999997E+02  0.45594000000E+02  0.51100000000E-03 0. -1.
    9900012    2    1    2    0    0  0.84570614841E+01  0.75382881552E+01  0.29805643858E+02  0.59301888869E+02  0.49999899403E+02 0.  0.
         12    1    1    2    0    0 -0.84570614841E+01 -0.75382881552E+01 -0.29805643858E+02  0.31886111131E+02  0.00000000000E+00 0. -1.
         11    1    3    3    0    0  0.14320545609E+02  0.30493375625E+00  0.17011549220E+01  0.14424456297E+02  0.51100000000E-03 0. -1.
        -11    1    3    3    0    0  0.75141180583E-01  0.20273890631E+02  0.19682238722E+02  0.28256447209E+02  0.51100000000E-03 0.  1.
        -12    1    3    3    0    0 -0.59386253057E+01 -0.13040536232E+02  0.84222502146E+01  0.16620985362E+02  0.00000000000E+00 0.  1.
</event>
<event>
 7    1  0.3223600E-013  0.5930196E+02  0.7816164E-02  0.1266605E+00
        -11   -1    0    0    0    0  0.00000000000E+00  0.00000000000E+00  0.45593999997E+02  0.45594000000E+02  0.51100000000E-03 0. -1.
         11   -1    0    0    0    0 -0.00000000000E+00 -0.00000000000E+00 -0.45593999997E+02  0.45594000000E+02  0.51100000000E-03 0.  1.
    9900012    2    1    2    0    0 -0.26816772167E+02  0.15859965431E+01 -0.17177461540E+02  0.59301955412E+02  0.50000020762E+02 0.  0.
         12    1    1    2    0    0  0.26816772167E+02 -0.15859965431E+01  0.17177461540E+02  0.31886044588E+02  0.00000000000E+00 0. -1.
         11    1    3    3    0    0  0.92537487067E+01 -0.73301939553E+00 -0.18072969281E+01  0.94570346836E+01  0.51100000000E-03 0. -1.
        -11    1    3    3    0    0 -0.75216437923E+01 -0.92805933558E+01  0.49521733139E+01  0.12931688179E+02  0.51100000000E-03 0.  1.
        -12    1    3    3    0    0 -0.28548877082E+02  0.11599609294E+02 -0.20322337926E+02  0.36913232549E+02  0.00000000000E+00 0.  1.
</event>
<event>
 7    1  0.3223600E-013  0.5930194E+02  0.7816164E-02  0.1266605E+00
        -11   -1    0    0    0    0  0.00000000000E+00  0.00000000000E+00  0.45593999997E+02  0.45594000000E+02  0.51100000000E-03 0. -1.
         11   -1    0    0    0    0 -0.00000000000E+00 -0.00000000000E+00 -0.45593999997E+02  0.45594000000E+02  0.51100000000E-03 0.  1.
    9900012    2    1    2    0    0 -0.40911187648E+01  0.51788726563E+01 -0.31195562502E+02  0.59301935731E+02  0.49999984869E+02 0.  0.
         12    1    1    2    0    0  0.40911187648E+01 -0.51788726563E+01  0.31195562502E+02  0.31886064269E+02  0.00000000000E+00 0. -1.
         11    1    3    3    0    0 -0.27796172403E+01 -0.18762601255E+01  0.13251680164E+01  0.36059249291E+01  0.51100000000E-03 0. -1.
        -11    1    3    3    0    0  0.12479376755E+02 -0.12644521606E+02 -0.24667364023E+02  0.30398973979E+02  0.51100000000E-03 0.  1.
         12    1    3    3    0    0 -0.13790878279E+02  0.19699654388E+02 -0.78533664953E+01  0.25297036823E+02  0.00000000000E+00 0. -1.
</event>
<event>
 7    1  0.3223600E-013  0.5930192E+02  0.7816164E-02  0.1266605E+00
        -11   -1    0    0    0    0  0.00000000000E+00  0.00000000000E+00  0.45593999997E+02  0.45594000000E+02  0.51100000000E-03 0.  1.
         11   -1    0    0    0    0 -0.00000000000E+00 -0.00000000000E+00 -0.45593999997E+02  0.45594000000E+02  0.51100000000E-03 0. -1.
    9900012    2    1    2    0    0 -0.18397904261E+02 -0.11149181140E+01  0.26019148218E+02  0.59301921571E+02  0.49999959045E+02 0.  0.
         12    1    1    2    0    0  0.18397904261E+02  0.11149181140E+01 -0.26019148218E+02  0.31886078429E+02  0.00000000000E+00 0. -1.
         11    1    3    3    0    0 -0.14231596459E+01 -0.21160164515E+02  0.15658678602E+02  0.26362324660E+02  0.51100000000E-03 0. -1.
        -11    1    3    3    0    0 -0.14510567182E+02  0.70819497927E+01 -0.26396827524E-01  0.16146555975E+02  0.51100000000E-03 0.  1.
        -12    1    3    3    0    0 -0.24641774332E+01  0.12963296608E+02  0.10386866444E+02  0.16793040936E+02  0.00000000000E+00 0.  1.
</event>
<event>
 7    1  0.3223600E-013  0.5930212E+02  0.7816164E-02  0.1266604E+00
        -11   -1    0    0    0    0  0.00000000000E+00  0.00000000000E+00  0.45593999997E+02  0.45594000000E+02  0.51100000000E-03 0.  1.
         11   -1    0    0    0    0 -0.00000000000E+00 -0.00000000000E+00 -0.45593999997E+02  0.45594000000E+02  0.51100000000E-03 0. -1.
    9900012    2    1    2    0    0  0.90666117028E+01  0.12407051995E+02  0.27938697463E+02  0.59302122203E+02  0.50000324948E+02 0.  0.
         12    1    1    2    0    0 -0.90666117028E+01 -0.12407051995E+02 -0.27938697463E+02  0.31885877797E+02  0.00000000000E+00 0. -1.
         11    1    3    3    0    0  0.58553489823E+01  0.50087321550E+01 -0.12278739635E+02  0.14496204910E+02  0.51100000000E-03 0. -1.
        -11    1    3    3    0    0 -0.32281982929E+01 -0.25173551884E+01  0.15599901591E+01  0.43808573271E+01  0.51100000000E-03 0.  1.
        -12    1    3    3    0    0  0.64394610134E+01  0.99156750280E+01  0.38657446939E+02  0.40425059966E+02  0.00000000000E+00 0.  1.
</event>
<event>
 7    1  0.3223600E-013  0.5930195E+02  0.7816164E-02  0.1266605E+00
        -11   -1    0    0    0    0  0.00000000000E+00  0.00000000000E+00  0.45593999997E+02  0.45594000000E+02  0.51100000000E-03 0.  1.
         11   -1    0    0    0    0 -0.00000000000E+00 -0.00000000000E+00 -0.45593999997E+02  0.45594000000E+02  0.51100000000E-03 0. -1.
    9900012    2    1    2    0    0  0.29599370054E+02 -0.11739880697E+02 -0.16652189871E+01  0.59301945672E+02  0.50000002998E+02 0.  0.
         12    1    1    2    0    0 -0.29599370054E+02  0.11739880697E+02  0.16652189871E+01  0.31886054328E+02  0.00000000000E+00 0. -1.
         11    1    3    3    0    0 -0.81882934202E+01 -0.77091424154E+01 -0.23167184712E+01  0.11482430520E+02  0.51100000000E-03 0. -1.
        -11    1    3    3    0    0 -0.98420139915E+00  0.56032216110E+01 -0.48701815182E+01  0.74888859717E+01  0.51100000000E-03 0.  1.
        -12    1    3    3    0    0  0.38771864873E+02 -0.96339598924E+01  0.55216810023E+01  0.40330629180E+02  0.00000000000E+00 0.  1.
</event>
<event>
 7    1  0.3223600E-013  0.5930194E+02  0.7816164E-02  0.1266605E+00
        -11   -1    0    0    0    0  0.00000000000E+00  0.00000000000E+00  0.45593999997E+02  0.45594000000E+02  0.51100000000E-03 0. -1.
         11   -1    0    0    0    0 -0.00000000000E+00 -0.00000000000E+00 -0.45593999997E+02  0.45594000000E+02  0.51100000000E-03 0.  1.
    9900012    2    1    2    0    0 -0.22335398083E+02  0.19615102807E+02 -0.11536837216E+02  0.59301939118E+02  0.49999991045E+02 0.  0.
         12    1    1    2    0    0  0.22335398083E+02 -0.19615102807E+02  0.11536837216E+02  0.31886060882E+02  0.00000000000E+00 0. -1.
         11    1    3    3    0    0  0.53580127659E+00  0.86721026714E+00 -0.66022994670E+01  0.66805310544E+01  0.51100000000E-03 0. -1.
        -11    1    3    3    0    0 -0.22288010932E+02  0.12405951576E+02 -0.22452288587E+02  0.33981882362E+02  0.51100000000E-03 0.  1.
         12    1    3    3    0    0 -0.58318842787E+00  0.63419409634E+01  0.17517750838E+02  0.18639525701E+02  0.00000000000E+00 0. -1.
</event>
<event>
 7    1  0.3223600E-013  0.5930193E+02  0.7816164E-02  0.1266605E+00
        -11   -1    0    0    0    0  0.00000000000E+00  0.00000000000E+00  0.45593999997E+02  0.45594000000E+02  0.51100000000E-03 0. -1.
         11   -1    0    0    0    0 -0.00000000000E+00 -0.00000000000E+00 -0.45593999997E+02  0.45594000000E+02  0.51100000000E-03 0.  1.
    9900012    2    1    2    0    0 -0.33048470079E+01 -0.31307858744E+02  0.50613363018E+01  0.59301934736E+02  0.49999983054E+02 0.  0.
         12    1    1    2    0    0  0.33048470079E+01  0.31307858744E+02 -0.50613363018E+01  0.31886065264E+02  0.00000000000E+00 0. -1.
         11    1    3    3    0    0 -0.43157707195E+01  0.11621998553E+02 -0.14620045465E+01  0.12483356312E+02  0.51100000000E-03 0.  1.
        -11    1    3    3    0    0  0.40761130759E+01 -0.21296725472E+02  0.11303335005E+02  0.24452619412E+02  0.51100000000E-03 0. -1.
        -12    1    3    3    0    0 -0.30651893643E+01 -0.21633131824E+02 -0.47799941567E+01  0.22365959011E+02  0.00000000000E+00 0.  1.
</event>
<event>
 7    1  0.3223600E-013  0.5930193E+02  0.7816164E-02  0.1266605E+00
        -11   -1    0    0    0    0  0.00000000000E+00  0.00000000000E+00  0.45593999997E+02  0.45594000000E+02  0.51100000000E-03 0. -1.
         11   -1    0    0    0    0 -0.00000000000E+00 -0.00000000000E+00 -0.45593999997E+02  0.45594000000E+02  0.51100000000E-03 0.  1.
    9900012    2    1    2    0    0 -0.42850920050E+01  0.28627538209E+02 -0.13372488582E+02  0.59301930812E+02  0.49999975897E+02 0.  0.
         12    1    1    2    0    0  0.42850920050E+01 -0.28627538209E+02  0.13372488582E+02  0.31886069188E+02  0.00000000000E+00 0. -1.
         11    1    3    3    0    0 -0.16769536756E+02  0.16598040040E+02 -0.29015416309E+01  0.23772489147E+02  0.51100000000E-03 0. -1.
        -11    1    3    3    0    0  0.64591126658E+01  0.20927445902E+02 -0.11494691378E+02  0.24734713634E+02  0.51100000000E-03 0.  1.
        -12    1    3    3    0    0  0.60253320851E+01 -0.88979477329E+01  0.10237444269E+01  0.10794728030E+02  0.00000000000E+00 0.  1.
</event>
<event>
 7    1  0.3223600E-013  0.5930188E+02  0.7816164E-02  0.1266605E+00
        -11   -1    0    0    0    0  0.00000000000E+00  0.00000000000E+00  0.45593999997E+02  0.45594000000E+02  0.51100000000E-03 0. -1.
         11   -1    0    0    0    0 -0.00000000000E+00 -0.00000000000E+00 -0.45593999997E+02  0.45594000000E+02  0.51100000000E-03 0.  1.
    9900012    2    1    2    0    0  0.13417609187E+02 -0.28447972025E+02  0.52350082910E+01  0.59301879815E+02  0.49999882892E+02 0.  0.
         12    1    1    2    0    0 -0.13417609187E+02  0.28447972025E+02 -0.52350082910E+01  0.31886120185E+02  0.00000000000E+00 0. -1.
         11    1    3    3    0    0 -0.55956807228E+01  0.10775364055E+02 -0.64556748403E+01  0.13751212717E+02  0.51100000000E-03 0. -1.
        -11    1    3    3    0    0  0.38717225078E+01 -0.34797853749E+01  0.14715174840E+01  0.54096677716E+01  0.51100000000E-03 0.  1.
        -12    1    3    3    0    0  0.15141567402E+02 -0.35743550705E+02  0.10219165647E+02  0.40140999327E+02  0.00000000000E+00 0.  1.
</event>
<event>
 7    1  0.3223600E-013  0.5930196E+02  0.7816164E-02  0.1266605E+00
        -11   -1    0    0    0    0  0.00000000000E+00  0.00000000000E+00  0.45593999997E+02  0.45594000000E+02  0.51100000000E-03 0.  1.
         11   -1    0    0    0    0 -0.00000000000E+00 -0.00000000000E+00 -0.45593999997E+02  0.45594000000E+02  0.51100000000E-03 0. -1.
    9900012    2    1    2    0    0  0.34518855920E+01  0.35503984492E+01  0.31499182102E+02  0.59301963614E+02  0.50000035721E+02 0.  0.
         12    1    1    2    0    0 -0.34518855920E+01 -0.35503984492E+01 -0.31499182102E+02  0.31886036386E+02  0.00000000000E+00 0. -1.
         11    1    3    3    0    0 -0.30938140397E+01  0.75886897058E+01  0.20772541635E+02  0.22330660156E+02  0.51100000000E-03 0. -1.
        -11    1    3    3    0    0  0.56130265632E+00  0.13908570243E+02 -0.21522703575E+01  0.14085299245E+02  0.51100000000E-03 0.  1.
         12    1    3    3    0    0  0.59843969754E+01 -0.17946861499E+02  0.12878910825E+02  0.22886004213E+02  0.00000000000E+00 0. -1.
</event>
<event>
 7    1  0.3223600E-013  0.5930194E+02  0.7816164E-02  0.1266605E+00
        -11   -1    0    0    0    0  0.00000000000E+00  0.00000000000E+00  0.45593999997E+02  0.45594000000E+02  0.51100000000E-03 0.  1.
         11   -1    0    0    0    0 -0.00000000000E+00 -0.00000000000E+00 -0.45593999997E+02  0.45594000000E+02  0.51100000000E-03 0. -1.
    9900012    2    1    2    0    0  0.18777607397E+02  0.24359197324E+02 -0.84114114161E+01  0.59301939161E+02  0.49999991124E+02 0.  0.
         12    1    1    2    0    0 -0.18777607397E+02 -0.24359197324E+02  0.84114114161E+01  0.31886060839E+02  0.00000000000E+00 0. -1.
         11    1    3    3    0    0  0.10399562556E+02 -0.96401932466E+00 -0.23201774796E+02  0.25444107148E+02  0.51100000000E-03 0. -1.
        -11    1    3    3    0    0  0.70470329615E+01  0.10947721780E+02  0.14403285925E+02  0.19415662013E+02  0.51100000000E-03 0.  1.
        -12    1    3    3    0    0  0.13310118795E+01  0.14375494869E+02  0.38707745512E+00  0.14442170000E+02  0.00000000000E+00 0.  1.
</event>
<event>
 7    1  0.3223600E-013  0.5930193E+02  0.7816164E-02  0.1266605E+00
        -11   -1    0    0    0    0  0.00000000000E+00  0.00000000000E+00  0.45593999997E+02  0.45594000000E+02  0.51100000000E-03 0.  1.
         11   -1    0    0    0    0 -0.00000000000E+00 -0.00000000000E+00 -0.45593999997E+02  0.45594000000E+02  0.51100000000E-03 0. -1.
    9900012    2    1    2    0    0 -0.52461891643E+01 -0.23199832641E+01  0.31365853882E+02  0.59301927604E+02  0.49999970047E+02 0.  0.
         12    1    1    2    0    0  0.52461891643E+01  0.23199832641E+01 -0.31365853882E+02  0.31886072396E+02  0.00000000000E+00 0. -1.
         11    1    3    3    0    0  0.12064667215E+02  0.54324818146E+01  0.50181558183E+01  0.14150969640E+02  0.51100000000E-03 0. -1.
        -11    1    3    3    0    0 -0.93361708814E+00  0.11049855337E+02  0.43911150477E+01  0.11926979310E+02  0.51100000000E-03 0.  1.
         12    1    3    3    0    0 -0.16377239291E+02 -0.18802320416E+02  0.21956583016E+02  0.33223978654E+02  0.00000000000E+00 0. -1.
</event>
<event>
 7    1  0.3223600E-013  0.5930191E+02  0.7816164E-02  0.1266605E+00
        -11   -1    0    0    0    0  0.00000000000E+00  0.00000000000E+00  0.45593999997E+02  0.45594000000E+02  0.51100000000E-03 0.  1.
         11   -1    0    0    0    0 -0.00000000000E+00 -0.00000000000E+00 -0.45593999997E+02  0.45594000000E+02  0.51100000000E-03 0. -1.
    9900012    2    1    2    0    0  0.10767308365E+02 -0.14313568298E+02  0.26380092080E+02  0.59301914869E+02  0.49999946822E+02 0.  0.
         12    1    1    2    0    0 -0.10767308365E+02  0.14313568298E+02 -0.26380092080E+02  0.31886085131E+02  0.00000000000E+00 0. -1.
         11    1    3    3    0    0  0.61845712435E+01 -0.71490554897E+01 -0.40392285389E+01  0.10279751131E+02  0.51100000000E-03 0. -1.
        -11    1    3    3    0    0  0.18732054023E+02 -0.11511796922E+02  0.24916848330E+02  0.33230417500E+02  0.51100000000E-03 0.  1.
         12    1    3    3    0    0 -0.14149316902E+02  0.43472841129E+01  0.55024722889E+01  0.15791746238E+02  0.00000000000E+00 0. -1.
</event>
<event>
 7    1  0.3223600E-013  0.5930197E+02  0.7816164E-02  0.1266605E+00
        -11   -1    0    0    0    0  0.00000000000E+00  0.00000000000E+00  0.45593999997E+02  0.45594000000E+02  0.51100000000E-03 0. -1.
         11   -1    0    0    0    0 -0.00000000000E+00 -0.00000000000E+00 -0.45593999997E+02  0.45594000000E+02  0.51100000000E-03 0.  1.
    9900012    2    1    2    0    0 -0.11754098766E+02  0.10448059099E+02 -0.27738023092E+02  0.59301973252E+02  0.50000053298E+02 0.  0.
         12    1    1    2    0    0  0.11754098766E+02 -0.10448059099E+02  0.27738023092E+02  0.31886026748E+02  0.00000000000E+00 0. -1.
         11    1    3    3    0    0  0.74611807285E+01 -0.11279996237E+02 -0.43097720542E+01  0.14194423848E+02  0.51100000000E-03 0. -1.
        -11    1    3    3    0    0 -0.15279274873E+02 -0.81893566631E+00 -0.12432469681E+02  0.19715303673E+02  0.51100000000E-03 0.  1.
        -12    1    3    3    0    0 -0.39360046221E+01  0.22546991002E+02 -0.10995781356E+02  0.25392245731E+02  0.00000000000E+00 0.  1.
</event>
<event>
 7    1 -0.4161258E-013  0.5930196E+02  0.7816164E-02  0.1266605E+00
        -11   -1    0    0    0    0  0.00000000000E+00  0.00000000000E+00  0.45593999997E+02  0.45594000000E+02  0.51100000000E-03 0. -1.
         11   -1    0    0    0    0 -0.00000000000E+00 -0.00000000000E+00 -0.45593999997E+02  0.45594000000E+02  0.51100000000E-03 0.  1.
    9900012    2    1    2    0    0  0.57141199934E+01  0.27204829365E+02 -0.15619396662E+02  0.59301961359E+02  0.50000031608E+02 0.  0.
         12    1    1    2    0    0 -0.57141199934E+01 -0.27204829365E+02  0.15619396662E+02  0.31886038641E+02  0.00000000000E+00 0. -1.
         11    1    3    3    0    0 -0.50346850292E+00  0.12142235898E+02 -0.69416099101E+01  0.13995475038E+02  0.51100000000E-03 0. -1.
        -11    1    3    3    0    0  0.11952892164E+02  0.27560713854E+02 -0.95639606895E+01  0.31526717615E+02  0.51100000000E-03 0.  1.
         12    1    3    3    0    0 -0.57353036674E+01 -0.12498120387E+02  0.88617393711E+00  0.13779768706E+02  0.00000000000E+00 0. -1.
</event>
<event>
 7    1  0.3223600E-013  0.5930196E+02  0.7816164E-02  0.1266605E+00
        -11   -1    0    0    0    0  0.00000000000E+00  0.00000000000E+00  0.45593999997E+02  0.45594000000E+02  0.51100000000E-03 0.  1.
         11   -1    0    0    0    0 -0.00000000000E+00 -0.00000000000E+00 -0.45593999997E+02  0.45594000000E+02  0.51100000000E-03 0. -1.
    9900012    2    1    2    0    0 -0.28201715310E+02  0.82752711930E+01  0.12365390084E+02  0.59301957102E+02  0.50000023845E+02 0.  0.
         12    1    1    2    0    0  0.28201715310E+02 -0.82752711930E+01 -0.12365390084E+02  0.31886042898E+02  0.00000000000E+00 0. -1.
         11    1    3    3    0    0  0.85814839625E+01 -0.50179222848E+01  0.15104426461E+01  0.10054991213E+02  0.51100000000E-03 0. -1.
        -11    1    3    3    0    0 -0.97300590032E+01  0.15985028550E+02  0.11659086661E+02  0.22048344336E+02  0.51100000000E-03 0.  1.
         12    1    3    3    0    0 -0.27053140269E+02 -0.26918350718E+01 -0.80413922339E+00  0.27198621553E+02  0.00000000000E+00 0. -1.
</event>
<event>
 7    1  0.3223600E-013  0.5930194E+02  0.7816164E-02  0.1266605E+00
        -11   -1    0    0    0    0  0.00000000000E+00  0.00000000000E+00  0.45593999997E+02  0.45594000000E+02  0.51100000000E-03 0.  1.
         11   -1    0    0    0    0 -0.00000000000E+00 -0.00000000000E+00 -0.45593999997E+02  0.45594000000E+02  0.51100000000E-03 0. -1.
    9900012    2    1    2    0    0 -0.77173388923E+00 -0.26172157466E+02 -0.18197349239E+02  0.59301938485E+02  0.49999989892E+02 0.  0.
         12    1    1    2    0    0  0.77173388923E+00  0.26172157466E+02  0.18197349239E+02  0.31886061515E+02  0.00000000000E+00 0. -1.
         11    1    3    3    0    0 -0.60737500443E+01 -0.23513241991E+01  0.24105626049E+01  0.69447805885E+01  0.51100000000E-03 0. -1.
        -11    1    3    3    0    0  0.23146526071E+02 -0.15002395800E+02 -0.16136541501E+02  0.31956556773E+02  0.51100000000E-03 0.  1.
         12    1    3    3    0    0 -0.17844509916E+02 -0.88184374663E+01 -0.44713703431E+01  0.20400601124E+02  0.00000000000E+00 0. -1.
</event>
<event>
 7    1  0.3223600E-013  0.5930195E+02  0.7816164E-02  0.1266605E+00
        -11   -1    0    0    0    0  0.00000000000E+00  0.00000000000E+00  0.45593999997E+02  0.45594000000E+02  0.51100000000E-03 0.  1.
         11   -1    0    0    0    0 -0.00000000000E+00 -0.00000000000E+00 -0.45593999997E+02  0.45594000000E+02  0.51100000000E-03 0. -1.
    9900012    2    1    2    0    0  0.12016512993E+02 -0.18327984937E+02  0.23160502489E+02  0.59301945181E+02  0.50000002103E+02 0.  0.
         12    1    1    2    0    0 -0.12016512993E+02  0.18327984937E+02 -0.23160502489E+02  0.31886054819E+02  0.00000000000E+00 0. -1.
         11    1    3    3    0    0 -0.10728045016E+01 -0.19430291140E+02  0.48214536927E+01  0.20048280207E+02  0.51100000000E-03 0. -1.
        -11    1    3    3    0    0  0.21091429816E+02 -0.79607943409E+01  0.13133129601E+02  0.26090261624E+02  0.51100000000E-03 0.  1.
         12    1    3    3    0    0 -0.80021123211E+01  0.90631005442E+01  0.52059191958E+01  0.13163403350E+02  0.00000000000E+00 0. -1.
</event>
<event>
 7    1  0.3223600E-013  0.5930192E+02  0.7816164E-02  0.1266605E+00
        -11   -1    0    0    0    0  0.00000000000E+00  0.00000000000E+00  0.45593999997E+02  0.45594000000E+02  0.51100000000E-03 0. -1.
         11   -1    0    0    0    0 -0.00000000000E+00 -0.00000000000E+00 -0.45593999997E+02  0.45594000000E+02  0.51100000000E-03 0.  1.
    9900012    2    1    2    0    0  0.17693714690E+02 -0.53924591333E+01 -0.25972598519E+02  0.59301921081E+02  0.49999958150E+02 0.  0.
         12    1    1    2    0    0 -0.17693714690E+02  0.53924591333E+01  0.25972598519E+02  0.31886078919E+02  0.00000000000E+00 0. -1.
         11    1    3    3    0    0 -0.43423651512E+01 -0.27166707557E+01 -0.23717480922E+00  0.51276395400E+01  0.51100000000E-03 0. -1.
        -11    1    3    3    0    0  0.20967663922E+02 -0.20787917234E+02 -0.15722404219E+02  0.33451075138E+02  0.51100000000E-03 0.  1.
         12    1    3    3    0    0  0.10684159193E+01  0.18112128856E+02 -0.10013019491E+02  0.20723206402E+02  0.00000000000E+00 0. -1.
</event>
<event>
 7    1  0.3223600E-013  0.5930196E+02  0.7816164E-02  0.1266605E+00
        -11   -1    0    0    0    0  0.00000000000E+00  0.00000000000E+00  0.45593999997E+02  0.45594000000E+02  0.51100000000E-03 0. -1.
         11   -1    0    0    0    0 -0.00000000000E+00 -0.00000000000E+00 -0.45593999997E+02  0.45594000000E+02  0.51100000000E-03 0.  1.
    9900012    2    1    2    0    0  0.90198128173E+01 -0.29389038192E+02 -0.84644676179E+01  0.59301956012E+02  0.50000021857E+02 0.  0.
         12    1    1    2    0    0 -0.90198128173E+01  0.29389038192E+02  0.84644676179E+01  0.31886043988E+02  0.00000000000E+00 0. -1.
         11    1    3    3    0    0  0.13807007611E+01 -0.25200771643E+02  0.66877760869E+00  0.25247425408E+02  0.51100000000E-03 0. -1.
        -11    1    3    3    0    0 -0.93840926304E+01 -0.44306970329E+01 -0.12961995090E+02  0.16604384592E+02  0.51100000000E-03 0.  1.
         12    1    3    3    0    0  0.17023204687E+02  0.24243048350E+00  0.38287498638E+01  0.17450146013E+02  0.00000000000E+00 0. -1.
</event>
<event>
 7    1  0.3223600E-013  0.5930196E+02  0.7816164E-02  0.1266605E+00
        -11   -1    0    0    0    0  0.00000000000E+00  0.00000000000E+00  0.45593999997E+02  0.45594000000E+02  0.51100000000E-03 0. -1.
         11   -1    0    0    0    0 -0.00000000000E+00 -0.00000000000E+00 -0.45593999997E+02  0.45594000000E+02  0.51100000000E-03 0.  1.
    9900012    2    1    2    0    0  0.27069895373E+02 -0.36709017556E+00  0.16846527525E+02  0.59301961043E+02  0.50000031032E+02 0.  0.
         12    1    1    2    0    0 -0.27069895373E+02  0.36709017556E+00 -0.16846527525E+02  0.31886038957E+02  0.00000000000E+00 0. -1.
         11    1    3    3    0    0  0.36231241614E+00 -0.13695007427E+01  0.13658689468E+02  0.13731955462E+02  0.51100000000E-03 0. -1.
        -11    1    3    3    0    0  0.11309090018E+01  0.15212074931E+02 -0.32848935930E+01  0.15603740098E+02  0.51100000000E-03 0.  1.
        -12    1    3    3    0    0  0.25576673955E+02 -0.14209664364E+02  0.64727316500E+01  0.29966265483E+02  0.00000000000E+00 0.  1.
</event>
<event>
 7    1  0.3223600E-013  0.5930195E+02  0.7816164E-02  0.1266605E+00
        -11   -1    0    0    0    0  0.00000000000E+00  0.00000000000E+00  0.45593999997E+02  0.45594000000E+02  0.51100000000E-03 0. -1.
         11   -1    0    0    0    0 -0.00000000000E+00 -0.00000000000E+00 -0.45593999997E+02  0.45594000000E+02  0.51100000000E-03 0.  1.
    9900012    2    1    2    0    0  0.22194279368E+02  0.22217553708E+02  0.55239661013E+01  0.59301953978E+02  0.50000018146E+02 0.  0.
         12    1    1    2    0    0 -0.22194279368E+02 -0.22217553708E+02 -0.55239661013E+01  0.31886046022E+02  0.00000000000E+00 0. -1.
         11    1    3    3    0    0 -0.71352392483E+01 -0.31173754255E+01  0.52494681285E+01  0.93907712446E+01  0.51100000000E-03 0. -1.
        -11    1    3    3    0    0  0.21247536846E+01 -0.19673265632E+00 -0.10787685186E+02  0.10996701046E+02  0.51100000000E-03 0.  1.
         12    1    3    3    0    0  0.27204764932E+02  0.25531661790E+02  0.11062183159E+02  0.38914481687E+02  0.00000000000E+00 0. -1.
</event>
<event>
 7    1  0.3223600E-013  0.5930197E+02  0.7816164E-02  0.1266605E+00
        -11   -1    0    0    0    0  0.00000000000E+00  0.00000000000E+00  0.45593999997E+02  0.45594000000E+02  0.51100000000E-03 0.  1.
         11   -1    0    0    0    0 -0.00000000000E+00 -0.00000000000E+00 -0.45593999997E+02  0.45594000000E+02  0.51100000000E-03 0. -1.
    9900012    2    1    2    0    0 -0.25543854395E+02 -0.17319615440E+02  0.80163012741E+01  0.59301973868E+02  0.50000054422E+02 0.  0.
         12    1    1    2    0    0  0.25543854395E+02  0.17319615440E+02 -0.80163012741E+01  0.31886026132E+02  0.00000000000E+00 0. -1.
         11    1    3    3    0    0 -0.13952614664E+01 -0.82974557766E+01 -0.83478135894E+01  0.11852447802E+02  0.51100000000E-03 0. -1.
        -11    1    3    3    0    0 -0.14442935818E+02 -0.23213031988E+02  0.10442929863E+02  0.29265987656E+02  0.51100000000E-03 0.  1.
         12    1    3    3    0    0 -0.97056571106E+01  0.14190872324E+02  0.59211850009E+01  0.18183538410E+02  0.00000000000E+00 0. -1.
</event>
<event>
 7    1  0.3223600E-013  0.5930195E+02  0.7816164E-02  0.1266605E+00
        -11   -1    0    0    0    0  0.00000000000E+00  0.00000000000E+00  0.45593999997E+02  0.45594000000E+02  0.51100000000E-03 0.  1.
         11   -1    0    0    0    0 -0.00000000000E+00 -0.00000000000E+00 -0.45593999997E+02  0.45594000000E+02  0.51100000000E-03 0. -1.
    9900012    2    1    2    0    0 -0.78749709260E+01  0.30346462395E+02  0.58135609272E+01  0.59301946032E+02  0.50000003655E+02 0.  0.
         12    1    1    2    0    0  0.78749709260E+01 -0.30346462395E+02 -0.58135609272E+01  0.31886053968E+02  0.00000000000E+00 0. -1.
         11    1    3    3    0    0  0.11288835887E+02 -0.22036833673E+01  0.10011381775E+01  0.11545402288E+02  0.51100000000E-03 0. -1.
        -11    1    3    3    0    0  0.22446507852E+01 -0.14827288495E+01  0.69913900406E+01  0.74910931746E+01  0.51100000000E-03 0.  1.
         12    1    3    3    0    0 -0.21408457599E+02  0.34032874612E+02 -0.21789672910E+01  0.40265450570E+02  0.00000000000E+00 0. -1.
</event>
<event>
 7    1  0.3223600E-013  0.5930194E+02  0.7816164E-02  0.1266605E+00
        -11   -1    0    0    0    0  0.00000000000E+00  0.00000000000E+00  0.45593999997E+02  0.45594000000E+02  0.51100000000E-03 0. -1.
         11   -1    0    0    0    0 -0.00000000000E+00 -0.00000000000E+00 -0.45593999997E+02  0.45594000000E+02  0.51100000000E-03 0.  1.
    9900012    2    1    2    0    0  0.25324038149E+02 -0.13621551880E+02 -0.13779222344E+02  0.59301944235E+02  0.50000000378E+02 0.  0.
         12    1    1    2    0    0 -0.25324038149E+02  0.13621551880E+02  0.13779222344E+02  0.31886055765E+02  0.00000000000E+00 0. -1.
         11    1    3    3    0    0  0.29338462091E+02 -0.10331350852E+02 -0.83970220341E+01  0.32217885524E+02  0.51100000000E-03 0. -1.
        -11    1    3    3    0    0  0.56999238844E+01  0.84432200378E+01 -0.60288859964E+01  0.11837422165E+02  0.51100000000E-03 0.  1.
        -12    1    3    3    0    0 -0.97143478265E+01 -0.11733421066E+02  0.64668568612E+00  0.15246636546E+02  0.00000000000E+00 0.  1.
</event>
<event>
 7    1  0.3223600E-013  0.5930193E+02  0.7816164E-02  0.1266605E+00
        -11   -1    0    0    0    0  0.00000000000E+00  0.00000000000E+00  0.45593999997E+02  0.45594000000E+02  0.51100000000E-03 0. -1.
         11   -1    0    0    0    0 -0.00000000000E+00 -0.00000000000E+00 -0.45593999997E+02  0.45594000000E+02  0.51100000000E-03 0.  1.
    9900012    2    1    2    0    0 -0.18238641302E+02 -0.22253436889E+02  0.13742558309E+02  0.59301930960E+02  0.49999976168E+02 0.  0.
         12    1    1    2    0    0  0.18238641302E+02  0.22253436889E+02 -0.13742558309E+02  0.31886069040E+02  0.00000000000E+00 0. -1.
         11    1    3    3    0    0 -0.15505231041E+02 -0.98255114480E+01  0.22369898600E+01  0.18492079081E+02  0.51100000000E-03 0. -1.
        -11    1    3    3    0    0 -0.37818452001E+01 -0.85451454770E+01 -0.12981313149E+02  0.15994885297E+02  0.51100000000E-03 0.  1.
         12    1    3    3    0    0  0.10484349387E+01 -0.38827799640E+01  0.24486881598E+02  0.24814966582E+02  0.00000000000E+00 0. -1.
</event>
<event>
 7    1  0.3223600E-013  0.5930196E+02  0.7816164E-02  0.1266605E+00
        -11   -1    0    0    0    0  0.00000000000E+00  0.00000000000E+00  0.45593999997E+02  0.45594000000E+02  0.51100000000E-03 0.  1.
         11   -1    0    0    0    0 -0.00000000000E+00 -0.00000000000E+00 -0.45593999997E+02  0.45594000000E+02  0.51100000000E-03 0. -1.
    9900012    2    1    2    0    0  0.16593403854E+02 -0.22582164826E+02  0.15212640223E+02  0.59301958505E+02  0.50000026403E+02 0.  0.
         12    1    1    2    0    0 -0.16593403854E+02  0.22582164826E+02 -0.15212640223E+02  0.31886041495E+02  0.00000000000E+00 0. -1.
         11    1    3    3    0    0  0.41118904151E+01  0.14869648646E+01 -0.12589268395E+02  0.13326979638E+02  0.51100000000E-03 0. -1.
        -11    1    3    3    0    0  0.89466990893E+01 -0.93481594885E+01 -0.14669969686E+01  0.13022426455E+02  0.51100000000E-03 0.  1.
        -12    1    3    3    0    0  0.35348143491E+01 -0.14720970202E+02  0.29268905587E+02  0.32952552411E+02  0.00000000000E+00 0.  1.
</event>
<event>
 7    1  0.3223600E-013  0.5930195E+02  0.7816164E-02  0.1266605E+00
        -11   -1    0    0    0    0  0.00000000000E+00  0.00000000000E+00  0.45593999997E+02  0.45594000000E+02  0.51100000000E-03 0.  1.
         11   -1    0    0    0    0 -0.00000000000E+00 -0.00000000000E+00 -0.45593999997E+02  0.45594000000E+02  0.51100000000E-03 0. -1.
    9900012    2    1    2    0    0  0.72700447119E+01  0.20252316054E+02  0.23531052632E+02  0.59301948290E+02  0.50000007773E+02 0.  0.
         12    1    1    2    0    0 -0.72700447119E+01 -0.20252316054E+02 -0.23531052632E+02  0.31886051710E+02  0.00000000000E+00 0. -1.
         11    1    3    3    0    0  0.56301796872E+01  0.17829537883E+02 -0.10722019244E+01  0.18728079497E+02  0.51100000000E-03 0. -1.
        -11    1    3    3    0    0 -0.11448657893E+02  0.11462156153E+02  0.14407385888E+02  0.21680072870E+02  0.51100000000E-03 0.  1.
        -12    1    3    3    0    0  0.13088522918E+02 -0.90393779817E+01  0.10195868668E+02  0.18893795923E+02  0.00000000000E+00 0.  1.
</event>
<event>
 7    1  0.3223600E-013  0.5930195E+02  0.7816164E-02  0.1266605E+00
        -11   -1    0    0    0    0  0.00000000000E+00  0.00000000000E+00  0.45593999997E+02  0.45594000000E+02  0.51100000000E-03 0.  1.
         11   -1    0    0    0    0 -0.00000000000E+00 -0.00000000000E+00 -0.45593999997E+02  0.45594000000E+02  0.51100000000E-03 0. -1.
    9900012    2    1    2    0    0 -0.16353760403E+02 -0.59408422336E+01 -0.26720430079E+02  0.59301945535E+02  0.50000002748E+02 0.  0.
         12    1    1    2    0    0  0.16353760403E+02  0.59408422336E+01  0.26720430079E+02  0.31886054465E+02  0.00000000000E+00 0. -1.
         11    1    3    3    0    0  0.11359149789E+02  0.99976775440E+00 -0.11751693066E+02  0.16374739988E+02  0.51100000000E-03 0. -1.
        -11    1    3    3    0    0  0.15459466238E+01 -0.38655398636E+01  0.56377716434E+01  0.70083392302E+01  0.51100000000E-03 0.  1.
        -12    1    3    3    0    0 -0.29258856816E+02 -0.30750701244E+01 -0.20606508656E+02  0.35918866316E+02  0.00000000000E+00 0.  1.
</event>
<event>
 7    1  0.3223600E-013  0.5930193E+02  0.7816164E-02  0.1266605E+00
        -11   -1    0    0    0    0  0.00000000000E+00  0.00000000000E+00  0.45593999997E+02  0.45594000000E+02  0.51100000000E-03 0.  1.
         11   -1    0    0    0    0 -0.00000000000E+00 -0.00000000000E+00 -0.45593999997E+02  0.45594000000E+02  0.51100000000E-03 0. -1.
    9900012    2    1    2    0    0 -0.24724700406E+01  0.29679197965E+02  0.11390937390E+02  0.59301931654E+02  0.49999977434E+02 0.  0.
         12    1    1    2    0    0  0.24724700406E+01 -0.29679197965E+02 -0.11390937390E+02  0.31886068346E+02  0.00000000000E+00 0. -1.
         11    1    3    3    0    0  0.36945731163E+01 -0.38977311501E+01 -0.38788296094E+01  0.66247639981E+01  0.51100000000E-03 0. -1.
        -11    1    3    3    0    0 -0.67194881085E+01  0.27349687703E+01 -0.10308200753E+02  0.12605180587E+02  0.51100000000E-03 0.  1.
        -12    1    3    3    0    0  0.55244495153E+00  0.30841960345E+02  0.25577967752E+02  0.40071987069E+02  0.00000000000E+00 0.  1.
</event>
<event>
 7    1  0.3223600E-013  0.5930194E+02  0.7816164E-02  0.1266605E+00
        -11   -1    0    0    0    0  0.00000000000E+00  0.00000000000E+00  0.45593999997E+02  0.45594000000E+02  0.51100000000E-03 0. -1.
         11   -1    0    0    0    0 -0.00000000000E+00 -0.00000000000E+00 -0.45593999997E+02  0.45594000000E+02  0.51100000000E-03 0.  1.
    9900012    2    1    2    0    0 -0.18510202450E+02 -0.23515050005E+02 -0.11006157248E+02  0.59301942406E+02  0.49999997043E+02 0.  0.
         12    1    1    2    0    0  0.18510202450E+02  0.23515050005E+02  0.11006157248E+02  0.31886057594E+02  0.00000000000E+00 0. -1.
         11    1    3    3    0    0 -0.59869172329E+01  0.92950159335E+01  0.15718773869E+01  0.11167421275E+02  0.51100000000E-03 0. -1.
        -11    1    3    3    0    0 -0.87074245289E+01  0.25376930062E+01 -0.83549898107E+01  0.12331463122E+02  0.51100000000E-03 0.  1.
         12    1    3    3    0    0 -0.38158606885E+01 -0.35347758945E+02 -0.42230448247E+01  0.35803058009E+02  0.00000000000E+00 0. -1.
</event>
<event>
 7    1  0.3223600E-013  0.5930188E+02  0.7816164E-02  0.1266605E+00
        -11   -1    0    0    0    0  0.00000000000E+00  0.00000000000E+00  0.45593999997E+02  0.45594000000E+02  0.51100000000E-03 0.  1.
         11   -1    0    0    0    0 -0.00000000000E+00 -0.00000000000E+00 -0.45593999997E+02  0.45594000000E+02  0.51100000000E-03 0. -1.
    9900012    2    1    2    0    0  0.10516019474E+02  0.10162598057E+02  0.28334781959E+02  0.59301875533E+02  0.49999875082E+02 0.  0.
         12    1    1    2    0    0 -0.10516019474E+02 -0.10162598057E+02 -0.28334781959E+02  0.31886124467E+02  0.00000000000E+00 0. -1.
         11    1    3    3    0    0 -0.55730859114E+01  0.72500784177E+01 -0.61204040965E+01  0.11003738919E+02  0.51100000000E-03 0. -1.
        -11    1    3    3    0    0 -0.85814730851E+01  0.13114834109E+01  0.57424073610E+01  0.10408501891E+02  0.51100000000E-03 0.  1.
         12    1    3    3    0    0  0.24670578471E+02  0.16010362280E+01  0.28712778695E+02  0.37889634723E+02  0.00000000000E+00 0. -1.
</event>
<event>
 7    1  0.3223600E-013  0.5930192E+02  0.7816164E-02  0.1266605E+00
        -11   -1    0    0    0    0  0.00000000000E+00  0.00000000000E+00  0.45593999997E+02  0.45594000000E+02  0.51100000000E-03 0. -1.
         11   -1    0    0    0    0 -0.00000000000E+00 -0.00000000000E+00 -0.45593999997E+02  0.45594000000E+02  0.51100000000E-03 0.  1.
    9900012    2    1    2    0    0 -0.48071090244E+01  0.19446427779E+02 -0.24808268677E+02  0.59301920823E+02  0.49999957680E+02 0.  0.
         12    1    1    2    0    0  0.48071090244E+01 -0.19446427779E+02  0.24808268677E+02  0.31886079177E+02  0.00000000000E+00 0. -1.
         11    1    3    3    0    0  0.52913207598E+01  0.60920055447E+01  0.29252386862E+01  0.85829848288E+01  0.51100000000E-03 0. -1.
        -11    1    3    3    0    0 -0.14521581941E+01  0.23848732761E+02 -0.52802362164E+01  0.24469403598E+02  0.51100000000E-03 0.  1.
         12    1    3    3    0    0 -0.86462715901E+01 -0.10494310526E+02 -0.22453271146E+02  0.26249532396E+02  0.00000000000E+00 0. -1.
</event>
<event>
 7    1  0.3223600E-013  0.5930194E+02  0.7816164E-02  0.1266605E+00
        -11   -1    0    0    0    0  0.00000000000E+00  0.00000000000E+00  0.45593999997E+02  0.45594000000E+02  0.51100000000E-03 0.  1.
         11   -1    0    0    0    0 -0.00000000000E+00 -0.00000000000E+00 -0.45593999997E+02  0.45594000000E+02  0.51100000000E-03 0. -1.
    9900012    2    1    2    0    0  0.18719288690E+02 -0.81691005622E+01  0.24486217166E+02  0.59301940285E+02  0.49999993175E+02 0.  0.
         12    1    1    2    0    0 -0.18719288690E+02  0.81691005622E+01 -0.24486217166E+02  0.31886059715E+02  0.00000000000E+00 0. -1.
         11    1    3    3    0    0  0.21324679751E+01  0.12932250494E+02  0.25350156293E+02  0.28538061371E+02  0.51100000000E-03 0. -1.
        -11    1    3    3    0    0  0.12688784672E+01  0.18869086135E+01 -0.21230843663E+01  0.31109426493E+01  0.51100000000E-03 0.  1.
        -12    1    3    3    0    0  0.15317942247E+02 -0.22988259669E+02  0.12591452389E+01  0.27652936264E+02  0.00000000000E+00 0.  1.
</event>
<event>
 7    1  0.3223600E-013  0.5930193E+02  0.7816164E-02  0.1266605E+00
        -11   -1    0    0    0    0  0.00000000000E+00  0.00000000000E+00  0.45593999997E+02  0.45594000000E+02  0.51100000000E-03 0. -1.
         11   -1    0    0    0    0 -0.00000000000E+00 -0.00000000000E+00 -0.45593999997E+02  0.45594000000E+02  0.51100000000E-03 0.  1.
    9900012    2    1    2    0    0  0.23014204480E+02  0.21750508012E+02 -0.37394397783E+01  0.59301927547E+02  0.49999969943E+02 0.  0.
         12    1    1    2    0    0 -0.23014204480E+02 -0.21750508012E+02  0.37394397783E+01  0.31886072453E+02  0.00000000000E+00 0. -1.
         11    1    3    3    0    0 -0.76370808464E+01  0.30453591522E+01  0.91191650919E+01  0.12278370757E+02  0.51100000000E-03 0. -1.
        -11    1    3    3    0    0  0.20039976576E+01 -0.66669160489E+01 -0.18152774433E+01  0.71943734037E+01  0.51100000000E-03 0.  1.
         12    1    3    3    0    0  0.28647287669E+02  0.25372064908E+02 -0.11043327427E+02  0.39829183386E+02  0.00000000000E+00 0. -1.
</event>
<event>
 7    1  0.3223600E-013  0.5930196E+02  0.7816164E-02  0.1266605E+00
        -11   -1    0    0    0    0  0.00000000000E+00  0.00000000000E+00  0.45593999997E+02  0.45594000000E+02  0.51100000000E-03 0.  1.
         11   -1    0    0    0    0 -0.00000000000E+00 -0.00000000000E+00 -0.45593999997E+02  0.45594000000E+02  0.51100000000E-03 0. -1.
    9900012    2    1    2    0    0 -0.13793922755E+02  0.24646398270E+02  0.14798717876E+02  0.59301963818E+02  0.50000036093E+02 0.  0.
         12    1    1    2    0    0  0.13793922755E+02 -0.24646398270E+02 -0.14798717876E+02  0.31886036182E+02  0.00000000000E+00 0. -1.
         11    1    3    3    0    0 -0.50163096228E+01  0.25684927191E+01 -0.86779505730E+01  0.10347335091E+02  0.51100000000E-03 0. -1.
        -11    1    3    3    0    0 -0.19566286214E+02  0.15937051810E+02  0.35591563433E+01  0.25485226519E+02  0.51100000000E-03 0.  1.
         12    1    3    3    0    0  0.10788673082E+02  0.61408537404E+01  0.19917512105E+02  0.23469402208E+02  0.00000000000E+00 0. -1.
</event>
<event>
 7    1  0.3223600E-013  0.5930208E+02  0.7816164E-02  0.1266604E+00
        -11   -1    0    0    0    0  0.00000000000E+00  0.00000000000E+00  0.45593999997E+02  0.45594000000E+02  0.51100000000E-03 0.  1.
         11   -1    0    0    0    0 -0.00000000000E+00 -0.00000000000E+00 -0.45593999997E+02  0.45594000000E+02  0.51100000000E-03 0. -1.
    9900012    2    1    2    0    0 -0.30550554770E+02  0.85720335618E+00  0.90906991653E+01  0.59302078253E+02  0.50000244795E+02 0.  0.
         12    1    1    2    0    0  0.30550554770E+02 -0.85720335618E+00 -0.90906991653E+01  0.31885921747E+02  0.00000000000E+00 0. -1.
         11    1    3    3    0    0 -0.67076572698E+01  0.45723779519E+01 -0.12246800558E+02  0.14692972142E+02  0.51100000000E-03 0. -1.
        -11    1    3    3    0    0 -0.29245176159E+02 -0.85205701163E+01  0.11859934535E+02  0.32688507019E+02  0.51100000000E-03 0.  1.
         12    1    3    3    0    0  0.54022786593E+01  0.48053955207E+01  0.94775651887E+01  0.11920599093E+02  0.00000000000E+00 0. -1.
</event>
<event>
 7    1  0.3223600E-013  0.5930192E+02  0.7816164E-02  0.1266605E+00
        -11   -1    0    0    0    0  0.00000000000E+00  0.00000000000E+00  0.45593999997E+02  0.45594000000E+02  0.51100000000E-03 0. -1.
         11   -1    0    0    0    0 -0.00000000000E+00 -0.00000000000E+00 -0.45593999997E+02  0.45594000000E+02  0.51100000000E-03 0.  1.
    9900012    2    1    2    0    0 -0.79572316993E+00 -0.21682599833E+02 -0.23365647311E+02  0.59301924902E+02  0.49999965120E+02 0.  0.
         12    1    1    2    0    0  0.79572316993E+00  0.21682599833E+02  0.23365647311E+02  0.31886075098E+02  0.00000000000E+00 0. -1.
         11    1    3    3    0    0 -0.24198547905E+01 -0.32279361013E+01 -0.14791088066E+02  0.15331391167E+02  0.51100000000E-03 0. -1.
        -11    1    3    3    0    0  0.12788655682E+02 -0.14925342636E+02 -0.19693317764E+02  0.27823413374E+02  0.51100000000E-03 0.  1.
         12    1    3    3    0    0 -0.11164524062E+02 -0.35293210965E+01  0.11118758520E+02  0.16147120361E+02  0.00000000000E+00 0. -1.
</event>
<event>
 7    1  0.3223600E-013  0.5930195E+02  0.7816164E-02  0.1266605E+00
        -11   -1    0    0    0    0  0.00000000000E+00  0.00000000000E+00  0.45593999997E+02  0.45594000000E+02  0.51100000000E-03 0.  1.
         11   -1    0    0    0    0 -0.00000000000E+00 -0.00000000000E+00 -0.45593999997E+02  0.45594000000E+02  0.51100000000E-03 0. -1.
    9900012    2    1    2    0    0 -0.94298257300E+00  0.16205213059E+02  0.27444888007E+02  0.59301952516E+02  0.50000015481E+02 0.  0.
         12    1    1    2    0    0  0.94298257300E+00 -0.16205213059E+02 -0.27444888007E+02  0.31886047484E+02  0.00000000000E+00 0. -1.
         11    1    3    3    0    0  0.72461568940E+01 -0.16402334775E+01  0.18527908980E+02  0.19961978034E+02  0.51100000000E-03 0. -1.
        -11    1    3    3    0    0 -0.75740726298E+01  0.21448392954E+02  0.18348849281E+02  0.29224654091E+02  0.51100000000E-03 0.  1.
         12    1    3    3    0    0 -0.61506683721E+00 -0.36029464181E+01 -0.94318702549E+01  0.10115320391E+02  0.00000000000E+00 0. -1.
</event>
<event>
 7    1  0.3223600E-013  0.5930194E+02  0.7816164E-02  0.1266605E+00
        -11   -1    0    0    0    0  0.00000000000E+00  0.00000000000E+00  0.45593999997E+02  0.45594000000E+02  0.51100000000E-03 0. -1.
         11   -1    0    0    0    0 -0.00000000000E+00 -0.00000000000E+00 -0.45593999997E+02  0.45594000000E+02  0.51100000000E-03 0.  1.
    9900012    2    1    2    0    0 -0.74432288303E+01  0.29050316408E+02 -0.10835044830E+02  0.59301941365E+02  0.49999995144E+02 0.  0.
         12    1    1    2    0    0  0.74432288303E+01 -0.29050316408E+02  0.10835044830E+02  0.31886058635E+02  0.00000000000E+00 0. -1.
         11    1    3    3    0    0  0.44094070044E+01 -0.87285796588E+01  0.62852328277E+00  0.97992864418E+01  0.51100000000E-03 0. -1.
        -11    1    3    3    0    0  0.10025149847E+01  0.27652172697E+02  0.27770207417E+01  0.27809342596E+02  0.51100000000E-03 0.  1.
         12    1    3    3    0    0 -0.12855150819E+02  0.10126723370E+02 -0.14240588855E+02  0.21693312327E+02  0.00000000000E+00 0. -1.
</event>
<event>
 7    1  0.3223600E-013  0.5930198E+02  0.7816164E-02  0.1266605E+00
        -11   -1    0    0    0    0  0.00000000000E+00  0.00000000000E+00  0.45593999997E+02  0.45594000000E+02  0.51100000000E-03 0. -1.
         11   -1    0    0    0    0 -0.00000000000E+00 -0.00000000000E+00 -0.45593999997E+02  0.45594000000E+02  0.51100000000E-03 0.  1.
    9900012    2    1    2    0    0  0.22505272867E+02  0.22053858978E+02  0.48845059246E+01  0.59301977972E+02  0.50000061906E+02 0.  0.
         12    1    1    2    0    0 -0.22505272867E+02 -0.22053858978E+02 -0.48845059246E+01  0.31886022028E+02  0.00000000000E+00 0. -1.
         11    1    3    3    0    0  0.27927788023E+01  0.39136280726E+01  0.59751619168E+01  0.76693323257E+01  0.51100000000E-03 0. -1.
        -11    1    3    3    0    0  0.18940905773E+02  0.18980585356E+02 -0.19520635273E+02  0.33167389613E+02  0.51100000000E-03 0.  1.
         12    1    3    3    0    0  0.77158829167E+00 -0.84035445094E+00  0.18429979281E+02  0.18465256034E+02  0.00000000000E+00 0. -1.
</event>
<event>
 7    1  0.3223600E-013  0.5930168E+02  0.7816164E-02  0.1266606E+00
        -11   -1    0    0    0    0  0.00000000000E+00  0.00000000000E+00  0.45593999997E+02  0.45594000000E+02  0.51100000000E-03 0.  1.
         11   -1    0    0    0    0 -0.00000000000E+00 -0.00000000000E+00 -0.45593999997E+02  0.45594000000E+02  0.51100000000E-03 0. -1.
    9900012    2    1    2    0    0 -0.93197004382E+01  0.23696814829E+02  0.19192219320E+02  0.59301684256E+02  0.49999526237E+02 0.  0.
         12    1    1    2    0    0  0.93197004382E+01 -0.23696814829E+02 -0.19192219320E+02  0.31886315744E+02  0.00000000000E+00 0. -1.
         11    1    3    3    0    0  0.99360149163E+01  0.43334599150E+01  0.88101180348E+01  0.13968587878E+02  0.51100000000E-03 0. -1.
        -11    1    3    3    0    0 -0.45225928623E+01  0.14350721168E+02  0.21475097812E+02  0.26221687027E+02  0.51100000000E-03 0.  1.
         12    1    3    3    0    0 -0.14733122492E+02  0.50126337465E+01 -0.11092996527E+02  0.19111409352E+02  0.00000000000E+00 0. -1.
</event>
<event>
 7    1  0.3223600E-013  0.5930222E+02  0.7816164E-02  0.1266604E+00
        -11   -1    0    0    0    0  0.00000000000E+00  0.00000000000E+00  0.45593999997E+02  0.45594000000E+02  0.51100000000E-03 0.  1.
         11   -1    0    0    0    0 -0.00000000000E+00 -0.00000000000E+00 -0.45593999997E+02  0.45594000000E+02  0.51100000000E-03 0. -1.
    9900012    2    1    2    0    0  0.46816570491E+01  0.30163897672E+02  0.92154505455E+01  0.59302216894E+02  0.50000497640E+02 0.  0.
         12    1    1    2    0    0 -0.46816570491E+01 -0.30163897672E+02 -0.92154505455E+01  0.31885783106E+02  0.00000000000E+00 0. -1.
         11    1    3    3    0    0 -0.45674985147E+01 -0.45933100807E+01  0.89204682789E+01  0.11024304729E+02  0.51100000000E-03 0. -1.
        -11    1    3    3    0    0 -0.59882178976E+01  0.22518087684E+02  0.11248321059E+02  0.25873688439E+02  0.51100000000E-03 0.  1.
         12    1    3    3    0    0  0.15237373461E+02  0.12239120069E+02 -0.10953338792E+02  0.22404223726E+02  0.00000000000E+00 0. -1.
</event>
<event>
 7    1  0.3223600E-013  0.5930196E+02  0.7816164E-02  0.1266605E+00
        -11   -1    0    0    0    0  0.00000000000E+00  0.00000000000E+00  0.45593999997E+02  0.45594000000E+02  0.51100000000E-03 0.  1.
         11   -1    0    0    0    0 -0.00000000000E+00 -0.00000000000E+00 -0.45593999997E+02  0.45594000000E+02  0.51100000000E-03 0. -1.
    9900012    2    1    2    0    0 -0.31201332395E+02  0.44114838616E+01  0.48718693634E+01  0.59301961611E+02  0.50000032067E+02 0.  0.
         12    1    1    2    0    0  0.31201332395E+02 -0.44114838616E+01 -0.48718693634E+01  0.31886038389E+02  0.00000000000E+00 0. -1.
         11    1    3    3    0    0  0.15949190628E+01 -0.33498430433E+01  0.30150190511E+01  0.47807484112E+01  0.51100000000E-03 0. -1.
        -11    1    3    3    0    0 -0.11916278277E+02  0.80141861315E+01  0.21498482755E+02  0.25853619251E+02  0.51100000000E-03 0.  1.
         12    1    3    3    0    0 -0.20879973181E+02 -0.25285922663E+00 -0.19641632443E+02  0.28667593949E+02  0.00000000000E+00 0. -1.
</event>
<event>
 7    1  0.3223600E-013  0.5930200E+02  0.7816164E-02  0.1266605E+00
        -11   -1    0    0    0    0  0.00000000000E+00  0.00000000000E+00  0.45593999997E+02  0.45594000000E+02  0.51100000000E-03 0. -1.
         11   -1    0    0    0    0 -0.00000000000E+00 -0.00000000000E+00 -0.45593999997E+02  0.45594000000E+02  0.51100000000E-03 0.  1.
    9900012    2    1    2    0    0 -0.26974512482E+02  0.72108671624E+01 -0.15397923491E+02  0.59302000303E+02  0.50000102632E+02 0.  0.
         12    1    1    2    0    0  0.26974512482E+02 -0.72108671624E+01  0.15397923491E+02  0.31885999697E+02  0.00000000000E+00 0. -1.
         11    1    3    3    0    0  0.11975125559E+02  0.24949856459E+00  0.18352167539E+01  0.12117503971E+02  0.51100000000E-03 0. -1.
        -11    1    3    3    0    0 -0.24620621014E+02 -0.43293460142E+01 -0.58241732148E+01  0.25667863369E+02  0.51100000000E-03 0.  1.
        -12    1    3    3    0    0 -0.14329017026E+02  0.11290714612E+02 -0.11408967030E+02  0.21516632963E+02  0.00000000000E+00 0.  1.
</event>
<event>
 7    1  0.3223600E-013  0.5930194E+02  0.7816164E-02  0.1266605E+00
        -11   -1    0    0    0    0  0.00000000000E+00  0.00000000000E+00  0.45593999997E+02  0.45594000000E+02  0.51100000000E-03 0.  1.
         11   -1    0    0    0    0 -0.00000000000E+00 -0.00000000000E+00 -0.45593999997E+02  0.45594000000E+02  0.51100000000E-03 0. -1.
    9900012    2    1    2    0    0 -0.98683476728E+01 -0.29466605939E+02  0.71453286611E+01  0.59301939205E+02  0.49999991204E+02 0.  0.
         12    1    1    2    0    0  0.98683476728E+01  0.29466605939E+02 -0.71453286611E+01  0.31886060795E+02  0.00000000000E+00 0. -1.
         11    1    3    3    0    0 -0.46686680369E+01 -0.17416939566E+02 -0.21098804500E+01  0.18154829684E+02  0.51100000000E-03 0. -1.
        -11    1    3    3    0    0  0.27529161899E+01 -0.73779389245E+01  0.23159577924E+02  0.24461777944E+02  0.51100000000E-03 0.  1.
         12    1    3    3    0    0 -0.79525958257E+01 -0.46717274487E+01 -0.13904368813E+02  0.16685331576E+02  0.00000000000E+00 0. -1.
</event>
<event>
 7    1  0.3223600E-013  0.5930195E+02  0.7816164E-02  0.1266605E+00
        -11   -1    0    0    0    0  0.00000000000E+00  0.00000000000E+00  0.45593999997E+02  0.45594000000E+02  0.51100000000E-03 0.  1.
         11   -1    0    0    0    0 -0.00000000000E+00 -0.00000000000E+00 -0.45593999997E+02  0.45594000000E+02  0.51100000000E-03 0. -1.
    9900012    2    1    2    0    0 -0.25436098919E+02  0.12894560828E+02  0.14263784202E+02  0.59301947141E+02  0.50000005678E+02 0.  0.
         12    1    1    2    0    0  0.25436098919E+02 -0.12894560828E+02 -0.14263784202E+02  0.31886052859E+02  0.00000000000E+00 0. -1.
         11    1    3    3    0    0  0.86037216483E+01 -0.80682473833E+01  0.15410453080E+01  0.11895186545E+02  0.51100000000E-03 0. -1.
        -11    1    3    3    0    0 -0.25495421833E+02  0.18217387020E+02 -0.60269912405E+00  0.31340915283E+02  0.51100000000E-03 0.  1.
         12    1    3    3    0    0 -0.85443987339E+01  0.27454211912E+01  0.13325438018E+02  0.16065845313E+02  0.00000000000E+00 0. -1.
</event>
<event>
 7    1  0.3223600E-013  0.5930195E+02  0.7816164E-02  0.1266605E+00
        -11   -1    0    0    0    0  0.00000000000E+00  0.00000000000E+00  0.45593999997E+02  0.45594000000E+02  0.51100000000E-03 0.  1.
         11   -1    0    0    0    0 -0.00000000000E+00 -0.00000000000E+00 -0.45593999997E+02  0.45594000000E+02  0.51100000000E-03 0. -1.
    9900012    2    1    2    0    0 -0.99363337748E+01 -0.13484686405E+01  0.30268322444E+02  0.59301945993E+02  0.50000003584E+02 0.  0.
         12    1    1    2    0    0  0.99363337748E+01  0.13484686405E+01 -0.30268322444E+02  0.31886054007E+02  0.00000000000E+00 0. -1.
         11    1    3    3    0    0 -0.13037690837E+01  0.52950354423E+01 -0.91632018550E+01  0.10663089733E+02  0.51100000000E-03 0. -1.
        -11    1    3    3    0    0 -0.47006281318E+01 -0.12300186002E+02  0.59389341513E+01  0.14445117501E+02  0.51100000000E-03 0.  1.
         12    1    3    3    0    0 -0.39319365593E+01  0.56566819190E+01  0.33492590148E+02  0.34193738758E+02  0.00000000000E+00 0. -1.
</event>
<event>
 7    1  0.3223600E-013  0.5930193E+02  0.7816164E-02  0.1266605E+00
        -11   -1    0    0    0    0  0.00000000000E+00  0.00000000000E+00  0.45593999997E+02  0.45594000000E+02  0.51100000000E-03 0.  1.
         11   -1    0    0    0    0 -0.00000000000E+00 -0.00000000000E+00 -0.45593999997E+02  0.45594000000E+02  0.51100000000E-03 0. -1.
    9900012    2    1    2    0    0 -0.21369415937E+01 -0.39026136587E+00  0.31811992431E+02  0.59301926461E+02  0.49999967962E+02 0.  0.
         12    1    1    2    0    0  0.21369415937E+01  0.39026136587E+00 -0.31811992431E+02  0.31886073539E+02  0.00000000000E+00 0. -1.
         11    1    3    3    0    0 -0.13777439774E+02 -0.13900462872E+02  0.14850649387E+02  0.24567916116E+02  0.51100000000E-03 0. -1.
        -11    1    3    3    0    0  0.10138189834E+01 -0.29834215742E+01  0.14641585871E+02  0.14976804409E+02  0.51100000000E-03 0.  1.
         12    1    3    3    0    0  0.10626679197E+02  0.16493623080E+02  0.23197571725E+01  0.19757205936E+02  0.00000000000E+00 0. -1.
</event>
<event>
 7    1  0.3223600E-013  0.5930205E+02  0.7816164E-02  0.1266604E+00
        -11   -1    0    0    0    0  0.00000000000E+00  0.00000000000E+00  0.45593999997E+02  0.45594000000E+02  0.51100000000E-03 0. -1.
         11   -1    0    0    0    0 -0.00000000000E+00 -0.00000000000E+00 -0.45593999997E+02  0.45594000000E+02  0.51100000000E-03 0.  1.
    9900012    2    1    2    0    0 -0.72409519771E+01 -0.22005502268E+02 -0.21909826014E+02  0.59302047112E+02  0.50000188000E+02 0.  0.
         12    1    1    2    0    0  0.72409519771E+01  0.22005502268E+02  0.21909826014E+02  0.31885952888E+02  0.00000000000E+00 0. -1.
         11    1    3    3    0    0  0.16957328438E+02 -0.87730578821E+01 -0.76289307765E+01  0.20560109859E+02  0.51100000000E-03 0.  1.
        -11    1    3    3    0    0 -0.82089862435E+01 -0.93092906348E+01  0.50065546343E+01  0.13383420222E+02  0.51100000000E-03 0. -1.
        -12    1    3    3    0    0 -0.15989294171E+02 -0.39231537515E+01 -0.19287449872E+02  0.25358517031E+02  0.00000000000E+00 0.  1.
</event>
<event>
 7    1  0.3223600E-013  0.5930190E+02  0.7816164E-02  0.1266605E+00
        -11   -1    0    0    0    0  0.00000000000E+00  0.00000000000E+00  0.45593999997E+02  0.45594000000E+02  0.51100000000E-03 0.  1.
         11   -1    0    0    0    0 -0.00000000000E+00 -0.00000000000E+00 -0.45593999997E+02  0.45594000000E+02  0.51100000000E-03 0. -1.
    9900012    2    1    2    0    0  0.83156932480E+01 -0.21855402973E+02  0.21677496362E+02  0.59301902060E+02  0.49999923461E+02 0.  0.
         12    1    1    2    0    0 -0.83156932480E+01  0.21855402973E+02 -0.21677496362E+02  0.31886097940E+02  0.00000000000E+00 0. -1.
         11    1    3    3    0    0  0.15894506376E+02 -0.15762211162E+02  0.21122017478E+02  0.30776976074E+02  0.51100000000E-03 0. -1.
        -11    1    3    3    0    0 -0.45147457536E+00 -0.16091782879E+02 -0.10965339729E+01  0.16135417333E+02  0.51100000000E-03 0.  1.
         12    1    3    3    0    0 -0.71273385526E+01  0.99985910679E+01  0.16520128570E+01  0.12389508653E+02  0.00000000000E+00 0. -1.
</event>
<event>
 7    1  0.3223600E-013  0.5930194E+02  0.7816164E-02  0.1266605E+00
        -11   -1    0    0    0    0  0.00000000000E+00  0.00000000000E+00  0.45593999997E+02  0.45594000000E+02  0.51100000000E-03 0.  1.
         11   -1    0    0    0    0 -0.00000000000E+00 -0.00000000000E+00 -0.45593999997E+02  0.45594000000E+02  0.51100000000E-03 0. -1.
    9900012    2    1    2    0    0  0.20699290422E+02 -0.17861251285E+02 -0.16408409668E+02  0.59301939891E+02  0.49999992456E+02 0.  0.
         12    1    1    2    0    0 -0.20699290422E+02  0.17861251285E+02  0.16408409668E+02  0.31886060109E+02  0.00000000000E+00 0. -1.
         11    1    3    3    0    0  0.13663737934E+02  0.31982407962E+01  0.93933843698E+01  0.16886744763E+02  0.51100000000E-03 0.  1.
        -11    1    3    3    0    0 -0.60263795556E+01  0.25090204493E+01 -0.33275126467E+01  0.73269894798E+01  0.51100000000E-03 0. -1.
         12    1    3    3    0    0  0.13061932044E+02 -0.23568512530E+02 -0.22474281391E+02  0.35088205648E+02  0.00000000000E+00 0. -1.
</event>
<event>
 7    1  0.3223600E-013  0.5930199E+02  0.7816164E-02  0.1266605E+00
        -11   -1    0    0    0    0  0.00000000000E+00  0.00000000000E+00  0.45593999997E+02  0.45594000000E+02  0.51100000000E-03 0. -1.
         11   -1    0    0    0    0 -0.00000000000E+00 -0.00000000000E+00 -0.45593999997E+02  0.45594000000E+02  0.51100000000E-03 0.  1.
    9900012    2    1    2    0    0  0.98717211312E+01 -0.27040006445E+02 -0.13715140109E+02  0.59301985905E+02  0.50000076374E+02 0.  0.
         12    1    1    2    0    0 -0.98717211312E+01  0.27040006445E+02  0.13715140109E+02  0.31886014095E+02  0.00000000000E+00 0. -1.
         11    1    3    3    0    0 -0.43898305774E+01 -0.59798674772E+01  0.24680147458E+01  0.78179616647E+01  0.51100000000E-03 0.  1.
        -11    1    3    3    0    0 -0.73424954789E+01 -0.18536475425E+02  0.55913104183E+01  0.20706904971E+02  0.51100000000E-03 0. -1.
        -12    1    3    3    0    0  0.21604047188E+02 -0.25236635428E+01 -0.21774465273E+02  0.30777119269E+02  0.00000000000E+00 0.  1.
</event>
<event>
 7    1  0.3223600E-013  0.5930197E+02  0.7816164E-02  0.1266605E+00
        -11   -1    0    0    0    0  0.00000000000E+00  0.00000000000E+00  0.45593999997E+02  0.45594000000E+02  0.51100000000E-03 0.  1.
         11   -1    0    0    0    0 -0.00000000000E+00 -0.00000000000E+00 -0.45593999997E+02  0.45594000000E+02  0.51100000000E-03 0. -1.
    9900012    2    1    2    0    0 -0.20655794971E+02  0.74601722468E+01  0.23117161974E+02  0.59301965227E+02  0.50000038662E+02 0.  0.
         12    1    1    2    0    0  0.20655794971E+02 -0.74601722468E+01 -0.23117161974E+02  0.31886034773E+02  0.00000000000E+00 0. -1.
         11    1    3    3    0    0 -0.14804565706E+02 -0.35910159183E+01  0.93317394037E+01  0.17864823582E+02  0.51100000000E-03 0. -1.
        -11    1    3    3    0    0 -0.10854631817E+02  0.14003945598E+02  0.23912816115E+02  0.29761658204E+02  0.51100000000E-03 0.  1.
         12    1    3    3    0    0  0.50034025526E+01 -0.29527574329E+01 -0.10127393545E+02  0.11675483441E+02  0.00000000000E+00 0. -1.
</event>
<event>
 7    1  0.3223600E-013  0.5930212E+02  0.7816164E-02  0.1266604E+00
        -11   -1    0    0    0    0  0.00000000000E+00  0.00000000000E+00  0.45593999997E+02  0.45594000000E+02  0.51100000000E-03 0.  1.
         11   -1    0    0    0    0 -0.00000000000E+00 -0.00000000000E+00 -0.45593999997E+02  0.45594000000E+02  0.51100000000E-03 0. -1.
    9900012    2    1    2    0    0 -0.30335677799E+02  0.57055698333E+01  0.79939123319E+01  0.59302117402E+02  0.50000316193E+02 0.  0.
         12    1    1    2    0    0  0.30335677799E+02 -0.57055698333E+01 -0.79939123319E+01  0.31885882598E+02  0.00000000000E+00 0. -1.
         11    1    3    3    0    0  0.77200546019E-01 -0.71764936405E+00 -0.16432947625E+01  0.17948254711E+01  0.51100000000E-03 0. -1.
        -11    1    3    3    0    0 -0.12004635091E+01  0.18370437088E+02  0.17044733946E+02  0.25088583599E+02  0.51100000000E-03 0.  1.
         12    1    3    3    0    0 -0.29212414836E+02 -0.11947217891E+02 -0.74075268513E+01  0.32418708332E+02  0.00000000000E+00 0. -1.
</event>
<event>
 7    1  0.3223600E-013  0.5930195E+02  0.7816164E-02  0.1266605E+00
        -11   -1    0    0    0    0  0.00000000000E+00  0.00000000000E+00  0.45593999997E+02  0.45594000000E+02  0.51100000000E-03 0.  1.
         11   -1    0    0    0    0 -0.00000000000E+00 -0.00000000000E+00 -0.45593999997E+02  0.45594000000E+02  0.51100000000E-03 0. -1.
    9900012    2    1    2    0    0  0.18838016917E+01 -0.10024199642E+01  0.31814566447E+02  0.59301949871E+02  0.50000010657E+02 0.  0.
         12    1    1    2    0    0 -0.18838016917E+01  0.10024199642E+01 -0.31814566447E+02  0.31886050129E+02  0.00000000000E+00 0. -1.
         11    1    3    3    0    0  0.45125041531E+01  0.79439088512E+01  0.13950235315E+02  0.16675654325E+02  0.51100000000E-03 0.  1.
        -11    1    3    3    0    0  0.13082519050E+02 -0.16661646912E+02  0.10369434877E+02  0.23585757618E+02  0.51100000000E-03 0. -1.
         12    1    3    3    0    0 -0.15711221511E+02  0.77153180964E+01  0.74948962553E+01  0.19040537928E+02  0.00000000000E+00 0. -1.
</event>
<event>
 7    1  0.3223600E-013  0.5930195E+02  0.7816164E-02  0.1266605E+00
        -11   -1    0    0    0    0  0.00000000000E+00  0.00000000000E+00  0.45593999997E+02  0.45594000000E+02  0.51100000000E-03 0.  1.
         11   -1    0    0    0    0 -0.00000000000E+00 -0.00000000000E+00 -0.45593999997E+02  0.45594000000E+02  0.51100000000E-03 0. -1.
    9900012    2    1    2    0    0  0.23286184327E+02 -0.21292963345E+02  0.45917047288E+01  0.59301946296E+02  0.50000004136E+02 0.  0.
         12    1    1    2    0    0 -0.23286184327E+02  0.21292963345E+02 -0.45917047288E+01  0.31886053704E+02  0.00000000000E+00 0. -1.
         11    1    3    3    0    0  0.12263372271E+02  0.94055642668E+01  0.56086144221E+01  0.16441152472E+02  0.51100000000E-03 0. -1.
        -11    1    3    3    0    0 -0.58076768020E+00  0.47831242777E+01 -0.26411354348E+01  0.54946488150E+01  0.51100000000E-03 0.  1.
        -12    1    3    3    0    0  0.11603579737E+02 -0.35481651889E+02  0.16242257415E+01  0.37366145008E+02  0.00000000000E+00 0.  1.
</event>
<event>
 7    1  0.3223600E-013  0.5930191E+02  0.7816164E-02  0.1266605E+00
        -11   -1    0    0    0    0  0.00000000000E+00  0.00000000000E+00  0.45593999997E+02  0.45594000000E+02  0.51100000000E-03 0.  1.
         11   -1    0    0    0    0 -0.00000000000E+00 -0.00000000000E+00 -0.45593999997E+02  0.45594000000E+02  0.51100000000E-03 0. -1.
    9900012    2    1    2    0    0  0.23350493293E+02  0.14702722584E+02  0.15978335169E+02  0.59301909252E+02  0.49999936577E+02 0.  0.
         12    1    1    2    0    0 -0.23350493293E+02 -0.14702722584E+02 -0.15978335169E+02  0.31886090748E+02  0.00000000000E+00 0. -1.
         11    1    3    3    0    0  0.76886592570E+01  0.84078889883E+01 -0.14177277037E+01  0.11481203356E+02  0.51100000000E-03 0. -1.
        -11    1    3    3    0    0 -0.25886142935E+01 -0.15390049342E+02  0.99776145237E+01  0.18523156712E+02  0.51100000000E-03 0.  1.
         12    1    3    3    0    0  0.18250448330E+02  0.21684882938E+02  0.74184483488E+01  0.29297549184E+02  0.00000000000E+00 0. -1.
</event>
<event>
 7    1  0.3223600E-013  0.5930195E+02  0.7816164E-02  0.1266605E+00
        -11   -1    0    0    0    0  0.00000000000E+00  0.00000000000E+00  0.45593999997E+02  0.45594000000E+02  0.51100000000E-03 0.  1.
         11   -1    0    0    0    0 -0.00000000000E+00 -0.00000000000E+00 -0.45593999997E+02  0.45594000000E+02  0.51100000000E-03 0. -1.
    9900012    2    1    2    0    0 -0.18796044769E+02  0.22720593187E+02 -0.12132754130E+02  0.59301946991E+02  0.50000005404E+02 0.  0.
         12    1    1    2    0    0  0.18796044769E+02 -0.22720593187E+02  0.12132754130E+02  0.31886053009E+02  0.00000000000E+00 0. -1.
         11    1    3    3    0    0  0.55454117935E+01  0.13701474031E+02 -0.12046903142E+02  0.19068556792E+02  0.51100000000E-03 0. -1.
        -11    1    3    3    0    0 -0.78295734018E+01  0.18867076209E+02 -0.34476503633E+01  0.20716058448E+02  0.51100000000E-03 0.  1.
         12    1    3    3    0    0 -0.16511883161E+02 -0.98479570528E+01  0.33617993752E+01  0.19517331751E+02  0.00000000000E+00 0. -1.
</event>
<event>
 7    1  0.3223600E-013  0.5930197E+02  0.7816164E-02  0.1266605E+00
        -11   -1    0    0    0    0  0.00000000000E+00  0.00000000000E+00  0.45593999997E+02  0.45594000000E+02  0.51100000000E-03 0. -1.
         11   -1    0    0    0    0 -0.00000000000E+00 -0.00000000000E+00 -0.45593999997E+02  0.45594000000E+02  0.51100000000E-03 0.  1.
    9900012    2    1    2    0    0 -0.59194283838E+01 -0.14355415245E+02 -0.27849615793E+02  0.59301973608E+02  0.50000053948E+02 0.  0.
         12    1    1    2    0    0  0.59194283838E+01  0.14355415245E+02  0.27849615793E+02  0.31886026392E+02  0.00000000000E+00 0. -1.
         11    1    3    3    0    0 -0.83261716464E+01  0.51466888847E+00 -0.25822247412E+02  0.27136294515E+02  0.51100000000E-03 0. -1.
        -11    1    3    3    0    0 -0.52736487074E+00 -0.16666612893E+02 -0.12694663111E+02  0.20957303520E+02  0.51100000000E-03 0.  1.
         12    1    3    3    0    0  0.29341081333E+01  0.17965287596E+01  0.10667294731E+02  0.11208375573E+02  0.00000000000E+00 0. -1.
</event>
<event>
 7    1  0.3223600E-013  0.5930195E+02  0.7816164E-02  0.1266605E+00
        -11   -1    0    0    0    0  0.00000000000E+00  0.00000000000E+00  0.45593999997E+02  0.45594000000E+02  0.51100000000E-03 0. -1.
         11   -1    0    0    0    0 -0.00000000000E+00 -0.00000000000E+00 -0.45593999997E+02  0.45594000000E+02  0.51100000000E-03 0.  1.
    9900012    2    1    2    0    0 -0.10601076751E+02 -0.16350181396E+02 -0.25239040416E+02  0.59301946292E+02  0.50000004129E+02 0.  0.
         12    1    1    2    0    0  0.10601076751E+02  0.16350181396E+02  0.25239040416E+02  0.31886053708E+02  0.00000000000E+00 0. -1.
         11    1    3    3    0    0 -0.55244690563E+01 -0.52142331125E+01  0.37800224979E+01  0.84850784116E+01  0.51100000000E-03 0. -1.
        -11    1    3    3    0    0  0.82859029302E+01 -0.20916251179E+02 -0.76075803593E+01  0.23749126930E+02  0.51100000000E-03 0.  1.
        -12    1    3    3    0    0 -0.13362510625E+02  0.97803028964E+01 -0.21411482555E+02  0.27067740950E+02  0.00000000000E+00 0.  1.
</event>
<event>
 7    1  0.3223600E-013  0.5930189E+02  0.7816164E-02  0.1266605E+00
        -11   -1    0    0    0    0  0.00000000000E+00  0.00000000000E+00  0.45593999997E+02  0.45594000000E+02  0.51100000000E-03 0. -1.
         11   -1    0    0    0    0 -0.00000000000E+00 -0.00000000000E+00 -0.45593999997E+02  0.45594000000E+02  0.51100000000E-03 0.  1.
    9900012    2    1    2    0    0 -0.24812549523E+02  0.71690245780E+01 -0.18699369405E+02  0.59301891059E+02  0.49999903398E+02 0.  0.
         12    1    1    2    0    0  0.24812549523E+02 -0.71690245780E+01  0.18699369405E+02  0.31886108941E+02  0.00000000000E+00 0. -1.
         11    1    3    3    0    0 -0.37982935015E+01 -0.19359218808E+01  0.11805221912E+02  0.12551417916E+02  0.51100000000E-03 0. -1.
        -11    1    3    3    0    0  0.92259935610E+00  0.12383648709E+02 -0.15978865699E+02  0.20236849908E+02  0.51100000000E-03 0.  1.
         12    1    3    3    0    0 -0.21936855378E+02 -0.32787022499E+01 -0.14525725619E+02  0.26513623235E+02  0.00000000000E+00 0. -1.
</event>
<event>
 7    1  0.3223600E-013  0.5930196E+02  0.7816164E-02  0.1266605E+00
        -11   -1    0    0    0    0  0.00000000000E+00  0.00000000000E+00  0.45593999997E+02  0.45594000000E+02  0.51100000000E-03 0. -1.
         11   -1    0    0    0    0 -0.00000000000E+00 -0.00000000000E+00 -0.45593999997E+02  0.45594000000E+02  0.51100000000E-03 0.  1.
    9900012    2    1    2    0    0  0.22002867959E+02 -0.13665740710E+02 -0.18596793330E+02  0.59301962464E+02  0.50000033624E+02 0.  0.
         12    1    1    2    0    0 -0.22002867959E+02  0.13665740710E+02  0.18596793330E+02  0.31886037536E+02  0.00000000000E+00 0. -1.
         11    1    3    3    0    0  0.16865534596E+02 -0.93876451191E+01 -0.86096247135E+01  0.21135273266E+02  0.51100000000E-03 0. -1.
        -11    1    3    3    0    0 -0.15281266459E+01  0.10998699088E+02 -0.16818378217E+02  0.20153520754E+02  0.51100000000E-03 0.  1.
        -12    1    3    3    0    0  0.66654600091E+01 -0.15276794679E+02  0.68312096004E+01  0.18013168444E+02  0.00000000000E+00 0.  1.
</event>
<event>
 7    1  0.3223600E-013  0.5930194E+02  0.7816164E-02  0.1266605E+00
        -11   -1    0    0    0    0  0.00000000000E+00  0.00000000000E+00  0.45593999997E+02  0.45594000000E+02  0.51100000000E-03 0.  1.
         11   -1    0    0    0    0 -0.00000000000E+00 -0.00000000000E+00 -0.45593999997E+02  0.45594000000E+02  0.51100000000E-03 0. -1.
    9900012    2    1    2    0    0 -0.27285698834E+02  0.15865807513E+02  0.45263484711E+01  0.59301936596E+02  0.49999986447E+02 0.  0.
         12    1    1    2    0    0  0.27285698834E+02 -0.15865807513E+02 -0.45263484711E+01  0.31886063404E+02  0.00000000000E+00 0. -1.
         11    1    3    3    0    0 -0.89857701050E+00 -0.75833679824E+01  0.69754826500E+01  0.10342739920E+02  0.51100000000E-03 0. -1.
        -11    1    3    3    0    0 -0.21864731863E+02 -0.16317711893E+01 -0.71131905653E+01  0.23050524006E+02  0.51100000000E-03 0.  1.
        -12    1    3    3    0    0 -0.45223899607E+01  0.25080946684E+02  0.46640563864E+01  0.25908672670E+02  0.00000000000E+00 0.  1.
</event>
<event>
 7    1  0.3223600E-013  0.5930194E+02  0.7816164E-02  0.1266605E+00
        -11   -1    0    0    0    0  0.00000000000E+00  0.00000000000E+00  0.45593999997E+02  0.45594000000E+02  0.51100000000E-03 0. -1.
         11   -1    0    0    0    0 -0.00000000000E+00 -0.00000000000E+00 -0.45593999997E+02  0.45594000000E+02  0.51100000000E-03 0.  1.
    9900012    2    1    2    0    0  0.20409229468E+02 -0.22660033557E+02 -0.93116529462E+01  0.59301942720E+02  0.49999997615E+02 0.  0.
         12    1    1    2    0    0 -0.20409229468E+02  0.22660033557E+02  0.93116529462E+01  0.31886057280E+02  0.00000000000E+00 0. -1.
         11    1    3    3    0    0  0.86587689163E+01  0.59743280207E+01  0.20094317836E+01  0.10710027582E+02  0.51100000000E-03 0. -1.
        -11    1    3    3    0    0  0.10779999131E+02  0.20145268499E+01 -0.14030832542E+02  0.17808171208E+02  0.51100000000E-03 0.  1.
         12    1    3    3    0    0  0.97046142079E+00 -0.30648888427E+02  0.27097478121E+01  0.30783743931E+02  0.00000000000E+00 0. -1.
</event>
<event>
 7    1  0.3223600E-013  0.5930194E+02  0.7816164E-02  0.1266605E+00
        -11   -1    0    0    0    0  0.00000000000E+00  0.00000000000E+00  0.45593999997E+02  0.45594000000E+02  0.51100000000E-03 0.  1.
         11   -1    0    0    0    0 -0.00000000000E+00 -0.00000000000E+00 -0.45593999997E+02  0.45594000000E+02  0.51100000000E-03 0. -1.
    9900012    2    1    2    0    0  0.80719854719E+01  0.87402720562E+01  0.29583302694E+02  0.59301935593E+02  0.49999984617E+02 0.  0.
         12    1    1    2    0    0 -0.80719854719E+01 -0.87402720562E+01 -0.29583302694E+02  0.31886064407E+02  0.00000000000E+00 0. -1.
         11    1    3    3    0    0  0.68334475781E+01  0.12422674657E+02  0.13048620758E+02  0.19268766317E+02  0.51100000000E-03 0. -1.
        -11    1    3    3    0    0  0.17166154945E+01 -0.63096033619E+01  0.27747084915E+02  0.28507167255E+02  0.51100000000E-03 0.  1.
         12    1    3    3    0    0 -0.47807760073E+00  0.26272007611E+01 -0.11212402979E+02  0.11526002021E+02  0.00000000000E+00 0. -1.
</event>
<event>
 7    1  0.3223600E-013  0.5930195E+02  0.7816164E-02  0.1266605E+00
        -11   -1    0    0    0    0  0.00000000000E+00  0.00000000000E+00  0.45593999997E+02  0.45594000000E+02  0.51100000000E-03 0. -1.
         11   -1    0    0    0    0 -0.00000000000E+00 -0.00000000000E+00 -0.45593999997E+02  0.45594000000E+02  0.51100000000E-03 0.  1.
    9900012    2    1    2    0    0 -0.13468654108E+02  0.74869379751E+01 -0.27915256160E+02  0.59301946463E+02  0.50000004441E+02 0.  0.
         12    1    1    2    0    0  0.13468654108E+02 -0.74869379751E+01  0.27915256160E+02  0.31886053537E+02  0.00000000000E+00 0. -1.
         11    1    3    3    0    0 -0.36639624007E+00 -0.74617129928E+01  0.47263122339E+00  0.74856387520E+01  0.51100000000E-03 0. -1.
        -11    1    3    3    0    0 -0.23025776896E+02  0.79089042892E+01 -0.41518346531E+01  0.24697669930E+02  0.51100000000E-03 0.  1.
        -12    1    3    3    0    0  0.99235190281E+01  0.70397466786E+01 -0.24236052730E+02  0.27118637781E+02  0.00000000000E+00 0.  1.
</event>
<event>
 7    1  0.3223600E-013  0.5930195E+02  0.7816164E-02  0.1266605E+00
        -11   -1    0    0    0    0  0.00000000000E+00  0.00000000000E+00  0.45593999997E+02  0.45594000000E+02  0.51100000000E-03 0.  1.
         11   -1    0    0    0    0 -0.00000000000E+00 -0.00000000000E+00 -0.45593999997E+02  0.45594000000E+02  0.51100000000E-03 0. -1.
    9900012    2    1    2    0    0  0.13017534258E+02 -0.95249997161E+01  0.27505244126E+02  0.59301948627E+02  0.50000008387E+02 0.  0.
         12    1    1    2    0    0 -0.13017534258E+02  0.95249997161E+01 -0.27505244126E+02  0.31886051373E+02  0.00000000000E+00 0. -1.
         11    1    3    3    0    0  0.75071195651E+01  0.26736098400E+01  0.26187207181E+01  0.83882496507E+01  0.51100000000E-03 0. -1.
        -11    1    3    3    0    0  0.62623689534E+01  0.90156609896E+01  0.27419796806E+02  0.29535481461E+02  0.51100000000E-03 0.  1.
        -12    1    3    3    0    0 -0.75195426032E+00 -0.21214270546E+02 -0.25332733985E+01  0.21378217515E+02  0.00000000000E+00 0.  1.
</event>
<event>
 7    1  0.3223600E-013  0.5930195E+02  0.7816164E-02  0.1266605E+00
        -11   -1    0    0    0    0  0.00000000000E+00  0.00000000000E+00  0.45593999997E+02  0.45594000000E+02  0.51100000000E-03 0. -1.
         11   -1    0    0    0    0 -0.00000000000E+00 -0.00000000000E+00 -0.45593999997E+02  0.45594000000E+02  0.51100000000E-03 0.  1.
    9900012    2    1    2    0    0  0.18696128670E+02 -0.20547204456E+02 -0.15652077050E+02  0.59301947341E+02  0.50000006042E+02 0.  0.
         12    1    1    2    0    0 -0.18696128670E+02  0.20547204456E+02  0.15652077050E+02  0.31886052659E+02  0.00000000000E+00 0. -1.
         11    1    3    3    0    0 -0.18380891554E+01  0.58567077801E+01 -0.12700616992E+02  0.14106213879E+02  0.51100000000E-03 0. -1.
        -11    1    3    3    0    0 -0.53145226940E+01 -0.10668443935E+02 -0.82205689989E+01  0.14478867441E+02  0.51100000000E-03 0.  1.
         12    1    3    3    0    0  0.25848740520E+02 -0.15735468301E+02  0.52691089400E+01  0.30716866021E+02  0.00000000000E+00 0. -1.
</event>
<event>
 7    1  0.3223600E-013  0.5930193E+02  0.7816164E-02  0.1266605E+00
        -11   -1    0    0    0    0  0.00000000000E+00  0.00000000000E+00  0.45593999997E+02  0.45594000000E+02  0.51100000000E-03 0.  1.
         11   -1    0    0    0    0 -0.00000000000E+00 -0.00000000000E+00 -0.45593999997E+02  0.45594000000E+02  0.51100000000E-03 0. -1.
    9900012    2    1    2    0    0  0.11101126762E+02 -0.66273275335E+01  0.29147296362E+02  0.59301931399E+02  0.49999976968E+02 0.  0.
         12    1    1    2    0    0 -0.11101126762E+02  0.66273275335E+01 -0.29147296362E+02  0.31886068601E+02  0.00000000000E+00 0. -1.
         11    1    3    3    0    0  0.24479482837E+01 -0.12236187891E+02  0.84927740156E+01  0.15094500842E+02  0.51100000000E-03 0. -1.
        -11    1    3    3    0    0  0.15376190458E+02  0.15951669352E+01 -0.58819206054E+01  0.16539914777E+02  0.51100000000E-03 0.  1.
        -12    1    3    3    0    0 -0.67230119798E+01  0.40136934228E+01  0.26536442952E+02  0.27667515781E+02  0.00000000000E+00 0.  1.
</event>
<event>
 7    1  0.3223600E-013  0.5930192E+02  0.7816164E-02  0.1266605E+00
        -11   -1    0    0    0    0  0.00000000000E+00  0.00000000000E+00  0.45593999997E+02  0.45594000000E+02  0.51100000000E-03 0. -1.
         11   -1    0    0    0    0 -0.00000000000E+00 -0.00000000000E+00 -0.45593999997E+02  0.45594000000E+02  0.51100000000E-03 0.  1.
    9900012    2    1    2    0    0 -0.23354368490E+02  0.14959703191E+02 -0.15732222471E+02  0.59301920420E+02  0.49999956945E+02 0.  0.
         12    1    1    2    0    0  0.23354368490E+02 -0.14959703191E+02  0.15732222471E+02  0.31886079580E+02  0.00000000000E+00 0. -1.
         11    1    3    3    0    0 -0.26677583105E+01  0.55667700958E+00 -0.89077859295E+01  0.93153354273E+01  0.51100000000E-03 0. -1.
        -11    1    3    3    0    0 -0.93216392804E+01  0.19327171572E+02 -0.21775654283E+02  0.30571418671E+02  0.51100000000E-03 0.  1.
         12    1    3    3    0    0 -0.11364970899E+02 -0.49241453906E+01  0.14951217741E+02  0.19415166322E+02  0.00000000000E+00 0. -1.
</event>
<event>
 7    1  0.3223600E-013  0.5930195E+02  0.7816164E-02  0.1266605E+00
        -11   -1    0    0    0    0  0.00000000000E+00  0.00000000000E+00  0.45593999997E+02  0.45594000000E+02  0.51100000000E-03 0.  1.
         11   -1    0    0    0    0 -0.00000000000E+00 -0.00000000000E+00 -0.45593999997E+02  0.45594000000E+02  0.51100000000E-03 0. -1.
    9900012    2    1    2    0    0  0.16411632289E+02  0.24356016380E+02  0.12416245695E+02  0.59301947165E+02  0.50000005721E+02 0.  0.
         12    1    1    2    0    0 -0.16411632289E+02 -0.24356016380E+02 -0.12416245695E+02  0.31886052835E+02  0.00000000000E+00 0. -1.
         11    1    3    3    0    0 -0.93813629285E+01  0.13595115993E+02  0.10951795113E+02  0.19818651965E+02  0.51100000000E-03 0. -1.
        -11    1    3    3    0    0  0.65275611601E+01  0.15372042545E+02  0.81406085836E+01  0.18578973467E+02  0.51100000000E-03 0.  1.
         12    1    3    3    0    0  0.19265434057E+02 -0.46111421592E+01 -0.66761580013E+01  0.20904321732E+02  0.00000000000E+00 0. -1.
</event>
<event>
 7    1  0.3223600E-013  0.5930177E+02  0.7816164E-02  0.1266605E+00
        -11   -1    0    0    0    0  0.00000000000E+00  0.00000000000E+00  0.45593999997E+02  0.45594000000E+02  0.51100000000E-03 0.  1.
         11   -1    0    0    0    0 -0.00000000000E+00 -0.00000000000E+00 -0.45593999997E+02  0.45594000000E+02  0.51100000000E-03 0. -1.
    9900012    2    1    2    0    0  0.84391800508E+01  0.23626196157E+02  0.19680306059E+02  0.59301774896E+02  0.49999691544E+02 0.  0.
         12    1    1    2    0    0 -0.84391800508E+01 -0.23626196157E+02 -0.19680306059E+02  0.31886225104E+02  0.00000000000E+00 0. -1.
         11    1    3    3    0    0  0.11879354238E+02  0.13882092210E+02  0.12407447649E+02  0.22085658212E+02  0.51100000000E-03 0. -1.
        -11    1    3    3    0    0  0.10302576775E+02  0.85633680164E+01  0.16019743514E+02  0.20883164092E+02  0.51100000000E-03 0.  1.
         12    1    3    3    0    0 -0.13742750962E+02  0.11807359300E+01 -0.87468851041E+01  0.16332952592E+02  0.00000000000E+00 0. -1.
</event>
<event>
 7    1  0.3223600E-013  0.5930192E+02  0.7816164E-02  0.1266605E+00
        -11   -1    0    0    0    0  0.00000000000E+00  0.00000000000E+00  0.45593999997E+02  0.45594000000E+02  0.51100000000E-03 0.  1.
         11   -1    0    0    0    0 -0.00000000000E+00 -0.00000000000E+00 -0.45593999997E+02  0.45594000000E+02  0.51100000000E-03 0. -1.
    9900012    2    1    2    0    0  0.47558203336E+01 -0.30307373726E+02  0.86929644507E+01  0.59301915886E+02  0.49999948676E+02 0.  0.
         12    1    1    2    0    0 -0.47558203336E+01  0.30307373726E+02 -0.86929644507E+01  0.31886084114E+02  0.00000000000E+00 0. -1.
         11    1    3    3    0    0  0.21677040094E+01 -0.16966227245E+02  0.85001882861E+01  0.19099869339E+02  0.51100000000E-03 0. -1.
        -11    1    3    3    0    0  0.78939014874E+01 -0.40325057627E+01  0.17631714951E+02  0.19734542199E+02  0.51100000000E-03 0.  1.
         12    1    3    3    0    0 -0.53057851633E+01 -0.93086407184E+01 -0.17438938787E+02  0.20467504348E+02  0.00000000000E+00 0. -1.
</event>
<event>
 7    1  0.3223600E-013  0.5930194E+02  0.7816164E-02  0.1266605E+00
        -11   -1    0    0    0    0  0.00000000000E+00  0.00000000000E+00  0.45593999997E+02  0.45594000000E+02  0.51100000000E-03 0. -1.
         11   -1    0    0    0    0 -0.00000000000E+00 -0.00000000000E+00 -0.45593999997E+02  0.45594000000E+02  0.51100000000E-03 0.  1.
    9900012    2    1    2    0    0  0.21772050553E+02  0.10530658410E+01 -0.23272078987E+02  0.59301940455E+02  0.49999993484E+02 0.  0.
         12    1    1    2    0    0 -0.21772050553E+02 -0.10530658410E+01  0.23272078987E+02  0.31886059545E+02  0.00000000000E+00 0. -1.
         11    1    3    3    0    0 -0.55622823326E+01 -0.61345963703E+01  0.76836765068E+00  0.83164082681E+01  0.51100000000E-03 0. -1.
        -11    1    3    3    0    0  0.22367449225E+02 -0.11055032195E+02 -0.80302812523E+01  0.26210721831E+02  0.51100000000E-03 0.  1.
         12    1    3    3    0    0  0.49668836606E+01  0.18242694406E+02 -0.16010165385E+02  0.24774810355E+02  0.00000000000E+00 0. -1.
</event>
<event>
 7    1  0.3223600E-013  0.5930195E+02  0.7816164E-02  0.1266605E+00
        -11   -1    0    0    0    0  0.00000000000E+00  0.00000000000E+00  0.45593999997E+02  0.45594000000E+02  0.51100000000E-03 0.  1.
         11   -1    0    0    0    0 -0.00000000000E+00 -0.00000000000E+00 -0.45593999997E+02  0.45594000000E+02  0.51100000000E-03 0. -1.
    9900012    2    1    2    0    0 -0.30679875003E+02  0.76468714224E+01  0.41219724623E+01  0.59301952428E+02  0.50000015321E+02 0.  0.
         12    1    1    2    0    0  0.30679875003E+02 -0.76468714224E+01 -0.41219724623E+01  0.31886047572E+02  0.00000000000E+00 0. -1.
         11    1    3    3    0    0 -0.46367627124E+01 -0.63785203539E+01  0.12872835904E+01  0.79901307661E+01  0.51100000000E-03 0. -1.
        -11    1    3    3    0    0 -0.23884560401E+02 -0.82834296409E+01 -0.78656282762E+01  0.26475564972E+02  0.51100000000E-03 0.  1.
         12    1    3    3    0    0 -0.21585518899E+01  0.22308821417E+02  0.10700317148E+02  0.24836256690E+02  0.00000000000E+00 0. -1.
</event>
<event>
 7    1  0.3223600E-013  0.5930193E+02  0.7816164E-02  0.1266605E+00
        -11   -1    0    0    0    0  0.00000000000E+00  0.00000000000E+00  0.45593999997E+02  0.45594000000E+02  0.51100000000E-03 0. -1.
         11   -1    0    0    0    0 -0.00000000000E+00 -0.00000000000E+00 -0.45593999997E+02  0.45594000000E+02  0.51100000000E-03 0.  1.
    9900012    2    1    2    0    0 -0.88852439369E+01  0.23165258748E+02  0.20028590499E+02  0.59301933920E+02  0.49999981566E+02 0.  0.
         12    1    1    2    0    0  0.88852439369E+01 -0.23165258748E+02 -0.20028590499E+02  0.31886066080E+02  0.00000000000E+00 0. -1.
         11    1    3    3    0    0  0.61307359073E+01  0.32057679205E+01 -0.74068160767E+01  0.10135274805E+02  0.51100000000E-03 0. -1.
        -11    1    3    3    0    0  0.41389280926E+01  0.20499077037E+02  0.96862511594E+01  0.23047046382E+02  0.51100000000E-03 0.  1.
         12    1    3    3    0    0 -0.19154907937E+02 -0.53958620963E+00  0.17749155416E+02  0.26119612733E+02  0.00000000000E+00 0. -1.
</event>
<event>
 7    1  0.3223600E-013  0.5930195E+02  0.7816164E-02  0.1266605E+00
        -11   -1    0    0    0    0  0.00000000000E+00  0.00000000000E+00  0.45593999997E+02  0.45594000000E+02  0.51100000000E-03 0.  1.
         11   -1    0    0    0    0 -0.00000000000E+00 -0.00000000000E+00 -0.45593999997E+02  0.45594000000E+02  0.51100000000E-03 0. -1.
    9900012    2    1    2    0    0  0.15490968645E+02 -0.19023549943E+02  0.20367977504E+02  0.59301951803E+02  0.50000014180E+02 0.  0.
         12    1    1    2    0    0 -0.15490968645E+02  0.19023549943E+02 -0.20367977504E+02  0.31886048197E+02  0.00000000000E+00 0. -1.
         11    1    3    3    0    0 -0.96927727568E+01  0.84295134981E-01  0.78946149246E+00  0.97252351691E+01  0.51100000000E-03 0. -1.
        -11    1    3    3    0    0 -0.55134382696E+01 -0.18452142639E+01  0.12313482854E+02  0.13617073015E+02  0.51100000000E-03 0.  1.
         12    1    3    3    0    0  0.30697179671E+02 -0.17262630814E+02  0.72650331577E+01  0.35959643619E+02  0.00000000000E+00 0. -1.
</event>
<event>
 7    1  0.3223600E-013  0.5930190E+02  0.7816164E-02  0.1266605E+00
        -11   -1    0    0    0    0  0.00000000000E+00  0.00000000000E+00  0.45593999997E+02  0.45594000000E+02  0.51100000000E-03 0.  1.
         11   -1    0    0    0    0 -0.00000000000E+00 -0.00000000000E+00 -0.45593999997E+02  0.45594000000E+02  0.51100000000E-03 0. -1.
    9900012    2    1    2    0    0  0.25123430369E+02  0.19635008926E+02 -0.52351372734E-01  0.59301904759E+02  0.49999928383E+02 0.  0.
         12    1    1    2    0    0 -0.25123430369E+02 -0.19635008926E+02  0.52351372734E-01  0.31886095241E+02  0.00000000000E+00 0. -1.
         11    1    3    3    0    0  0.24108066087E+02  0.10932580903E+02  0.55641592850E+00  0.26476966869E+02  0.51100000000E-03 0. -1.
        -11    1    3    3    0    0 -0.58844853332E+01 -0.73129643923E+01  0.89234509886E+01  0.12951239078E+02  0.51100000000E-03 0.  1.
         12    1    3    3    0    0  0.68998496159E+01  0.16015392416E+02 -0.95322182899E+01  0.19873698812E+02  0.00000000000E+00 0. -1.
</event>
<event>
 7    1  0.3223600E-013  0.5930201E+02  0.7816164E-02  0.1266605E+00
        -11   -1    0    0    0    0  0.00000000000E+00  0.00000000000E+00  0.45593999997E+02  0.45594000000E+02  0.51100000000E-03 0. -1.
         11   -1    0    0    0    0 -0.00000000000E+00 -0.00000000000E+00 -0.45593999997E+02  0.45594000000E+02  0.51100000000E-03 0.  1.
    9900012    2    1    2    0    0 -0.10574861460E+00  0.31248911421E+02  0.63411777520E+01  0.59302012748E+02  0.50000125329E+02 0.  0.
         12    1    1    2    0    0  0.10574861460E+00 -0.31248911421E+02 -0.63411777520E+01  0.31885987252E+02  0.00000000000E+00 0. -1.
         11    1    3    3    0    0  0.66540865342E+01 -0.41773224654E+01  0.10185734534E+02  0.12863750575E+02  0.51100000000E-03 0. -1.
        -11    1    3    3    0    0  0.99425519445E+01  0.16907320869E+02 -0.79505314857E+01  0.21164186479E+02  0.51100000000E-03 0.  1.
        -12    1    3    3    0    0 -0.16702387093E+02  0.18518913017E+02  0.41059747034E+01  0.25274075694E+02  0.00000000000E+00 0.  1.
</event>
<event>
 7    1  0.3223600E-013  0.5930202E+02  0.7816164E-02  0.1266605E+00
        -11   -1    0    0    0    0  0.00000000000E+00  0.00000000000E+00  0.45593999997E+02  0.45594000000E+02  0.51100000000E-03 0. -1.
         11   -1    0    0    0    0 -0.00000000000E+00 -0.00000000000E+00 -0.45593999997E+02  0.45594000000E+02  0.51100000000E-03 0.  1.
    9900012    2    1    2    0    0 -0.90420792524E+01  0.21069176609E+02 -0.22159571755E+02  0.59302015295E+02  0.50000129975E+02 0.  0.
         12    1    1    2    0    0  0.90420792524E+01 -0.21069176609E+02  0.22159571755E+02  0.31885984705E+02  0.00000000000E+00 0. -1.
         11    1    3    3    0    0 -0.44675708872E+01  0.21424711015E+01  0.49616039517E+01  0.70119103023E+01  0.51100000000E-03 0. -1.
        -11    1    3    3    0    0 -0.10528775440E+02 -0.46663083336E+01 -0.25409115551E+02  0.27897180845E+02  0.51100000000E-03 0.  1.
         12    1    3    3    0    0  0.59542670748E+01  0.23593013841E+02 -0.17120601555E+01  0.24392924148E+02  0.00000000000E+00 0. -1.
</event>
<event>
 7    1  0.3223600E-013  0.5930195E+02  0.7816164E-02  0.1266605E+00
        -11   -1    0    0    0    0  0.00000000000E+00  0.00000000000E+00  0.45593999997E+02  0.45594000000E+02  0.51100000000E-03 0. -1.
         11   -1    0    0    0    0 -0.00000000000E+00 -0.00000000000E+00 -0.45593999997E+02  0.45594000000E+02  0.51100000000E-03 0.  1.
    9900012    2    1    2    0    0  0.10267950949E+02 -0.13076463875E+02 -0.27208371266E+02  0.59301949898E+02  0.50000010706E+02 0.  0.
         12    1    1    2    0    0 -0.10267950949E+02  0.13076463875E+02  0.27208371266E+02  0.31886050102E+02  0.00000000000E+00 0. -1.
         11    1    3    3    0    0  0.48241339044E+01 -0.14534313206E+02 -0.13676196468E+02  0.20531850340E+02  0.51100000000E-03 0. -1.
        -11    1    3    3    0    0 -0.11182828475E+01 -0.16823017198E+02 -0.52884332471E+01  0.17670087454E+02  0.51100000000E-03 0.  1.
         12    1    3    3    0    0  0.65620998926E+01  0.18280866528E+02 -0.82437415501E+01  0.21100012104E+02  0.00000000000E+00 0. -1.
</event>
<event>
 7    1  0.3223600E-013  0.5930192E+02  0.7816164E-02  0.1266605E+00
        -11   -1    0    0    0    0  0.00000000000E+00  0.00000000000E+00  0.45593999997E+02  0.45594000000E+02  0.51100000000E-03 0.  1.
         11   -1    0    0    0    0 -0.00000000000E+00 -0.00000000000E+00 -0.45593999997E+02  0.45594000000E+02  0.51100000000E-03 0. -1.
    9900012    2    1    2    0    0 -0.30034084895E+02 -0.46635905868E+01  0.96398477436E+01  0.59301921578E+02  0.49999959057E+02 0.  0.
         12    1    1    2    0    0  0.30034084895E+02  0.46635905868E+01 -0.96398477436E+01  0.31886078422E+02  0.00000000000E+00 0. -1.
         11    1    3    3    0    0  0.64915638761E+01 -0.34353710630E-01 -0.49435674965E+01  0.81596839147E+01  0.51100000000E-03 0. -1.
        -11    1    3    3    0    0 -0.36757423586E+01 -0.39700192588E+01 -0.91365532441E+01  0.10618320971E+02  0.51100000000E-03 0.  1.
        -12    1    3    3    0    0 -0.32849906412E+02 -0.65921761735E+00  0.23719968484E+02  0.40523916692E+02  0.00000000000E+00 0.  1.
</event>
<event>
 7    1  0.3223600E-013  0.5930195E+02  0.7816164E-02  0.1266605E+00
        -11   -1    0    0    0    0  0.00000000000E+00  0.00000000000E+00  0.45593999997E+02  0.45594000000E+02  0.51100000000E-03 0. -1.
         11   -1    0    0    0    0 -0.00000000000E+00 -0.00000000000E+00 -0.45593999997E+02  0.45594000000E+02  0.51100000000E-03 0.  1.
    9900012    2    1    2    0    0  0.22727912566E+02 -0.20417881335E+02  0.91253818870E+01  0.59301945330E+02  0.50000002375E+02 0.  0.
         12    1    1    2    0    0 -0.22727912566E+02  0.20417881335E+02 -0.91253818870E+01  0.31886054670E+02  0.00000000000E+00 0. -1.
         11    1    3    3    0    0  0.29977215674E+02 -0.26091280991E+02  0.21443236187E+01  0.39799328227E+02  0.51100000000E-03 0. -1.
        -11    1    3    3    0    0  0.44807488691E+01  0.46074603336E+01  0.26836336268E+01  0.69647462881E+01  0.51100000000E-03 0.  1.
        -12    1    3    3    0    0 -0.11730051977E+02  0.10659393222E+01  0.42974246414E+01  0.12537870815E+02  0.00000000000E+00 0.  1.
</event>
<event>
 7    1  0.4690532E-013  0.5930193E+02  0.7816164E-02  0.1266605E+00
        -11   -1    0    0    0    0  0.00000000000E+00  0.00000000000E+00  0.45593999997E+02  0.45594000000E+02  0.51100000000E-03 0. -1.
         11   -1    0    0    0    0 -0.00000000000E+00 -0.00000000000E+00 -0.45593999997E+02  0.45594000000E+02  0.51100000000E-03 0.  1.
    9900012    2    1    2    0    0  0.22017905870E+02 -0.18806656785E+02 -0.13350767899E+02  0.59301929031E+02  0.49999972650E+02 0.  0.
         12    1    1    2    0    0 -0.22017905870E+02  0.18806656785E+02  0.13350767899E+02  0.31886070969E+02  0.00000000000E+00 0. -1.
         11    1    3    3    0    0  0.14086456505E+02  0.11223782737E+01  0.12471996368E+02  0.18847776620E+02  0.51100000000E-03 0.  1.
        -11    1    3    3    0    0 -0.50055145573E+01 -0.73484775106E+01  0.72395354069E-01  0.88915993530E+01  0.51100000000E-03 0. -1.
        -12    1    3    3    0    0  0.12936963923E+02 -0.12580557548E+02 -0.25895159621E+02  0.31562553058E+02  0.00000000000E+00 0.  1.
</event>
<event>
 7    1  0.3223600E-013  0.5930194E+02  0.7816164E-02  0.1266605E+00
        -11   -1    0    0    0    0  0.00000000000E+00  0.00000000000E+00  0.45593999997E+02  0.45594000000E+02  0.51100000000E-03 0. -1.
         11   -1    0    0    0    0 -0.00000000000E+00 -0.00000000000E+00 -0.45593999997E+02  0.45594000000E+02  0.51100000000E-03 0.  1.
    9900012    2    1    2    0    0 -0.28798096005E+02  0.10914612206E+02 -0.82620512403E+01  0.59301943740E+02  0.49999999476E+02 0.  0.
         12    1    1    2    0    0  0.28798096005E+02 -0.10914612206E+02  0.82620512403E+01  0.31886056260E+02  0.00000000000E+00 0. -1.
         11    1    3    3    0    0  0.65032736806E+01  0.77232258091E+01 -0.13791303705E+02  0.17092128118E+02  0.51100000000E-03 0. -1.
        -11    1    3    3    0    0 -0.18992894776E+02  0.62340237705E+00 -0.82393821103E+01  0.20712462440E+02  0.51100000000E-03 0.  1.
        -12    1    3    3    0    0 -0.16308474909E+02  0.25679840202E+01  0.13768634575E+02  0.21497353182E+02  0.00000000000E+00 0.  1.
</event>
<event>
 7    1  0.3223600E-013  0.5930194E+02  0.7816164E-02  0.1266605E+00
        -11   -1    0    0    0    0  0.00000000000E+00  0.00000000000E+00  0.45593999997E+02  0.45594000000E+02  0.51100000000E-03 0. -1.
         11   -1    0    0    0    0 -0.00000000000E+00 -0.00000000000E+00 -0.45593999997E+02  0.45594000000E+02  0.51100000000E-03 0.  1.
    9900012    2    1    2    0    0  0.27633718657E+02  0.15790103338E+02 -0.19419337892E+01  0.59301939141E+02  0.49999991088E+02 0.  0.
         12    1    1    2    0    0 -0.27633718657E+02 -0.15790103338E+02  0.19419337892E+01  0.31886060859E+02  0.00000000000E+00 0. -1.
         11    1    3    3    0    0  0.17104594349E+02 -0.83795387740E+01 -0.87327874158E+01  0.20953410085E+02  0.51100000000E-03 0. -1.
        -11    1    3    3    0    0  0.18463440805E+02  0.20968950527E+02  0.88617171560E+00  0.27953190035E+02  0.51100000000E-03 0.  1.
         12    1    3    3    0    0 -0.79343164963E+01  0.32006915846E+01  0.59046819110E+01  0.10395339021E+02  0.00000000000E+00 0. -1.
</event>
<event>
 7    1  0.3223600E-013  0.5930195E+02  0.7816164E-02  0.1266605E+00
        -11   -1    0    0    0    0  0.00000000000E+00  0.00000000000E+00  0.45593999997E+02  0.45594000000E+02  0.51100000000E-03 0.  1.
         11   -1    0    0    0    0 -0.00000000000E+00 -0.00000000000E+00 -0.45593999997E+02  0.45594000000E+02  0.51100000000E-03 0. -1.
    9900012    2    1    2    0    0  0.17054286571E+02  0.11310870713E+02  0.24452722694E+02  0.59301950795E+02  0.50000012342E+02 0.  0.
         12    1    1    2    0    0 -0.17054286571E+02 -0.11310870713E+02 -0.24452722694E+02  0.31886049205E+02  0.00000000000E+00 0. -1.
         11    1    3    3    0    0  0.20563693604E+01 -0.11056578938E+02  0.11261352288E+01  0.11302423350E+02  0.51100000000E-03 0. -1.
        -11    1    3    3    0    0  0.15484840095E+02 -0.40839694614E+00  0.13520721299E+00  0.15490814765E+02  0.51100000000E-03 0.  1.
         12    1    3    3    0    0 -0.48692288414E+00  0.22775846597E+02  0.23191380253E+02  0.32508712680E+02  0.00000000000E+00 0. -1.
</event>
<event>
 7    1  0.3223600E-013  0.5930193E+02  0.7816164E-02  0.1266605E+00
        -11   -1    0    0    0    0  0.00000000000E+00  0.00000000000E+00  0.45593999997E+02  0.45594000000E+02  0.51100000000E-03 0. -1.
         11   -1    0    0    0    0 -0.00000000000E+00 -0.00000000000E+00 -0.45593999997E+02  0.45594000000E+02  0.51100000000E-03 0.  1.
    9900012    2    1    2    0    0  0.59241423450E+01  0.12774819237E+02 -0.28608218594E+02  0.59301927175E+02  0.49999969265E+02 0.  0.
         12    1    1    2    0    0 -0.59241423450E+01 -0.12774819237E+02  0.28608218594E+02  0.31886072825E+02  0.00000000000E+00 0. -1.
         11    1    3    3    0    0  0.23335118123E+01  0.41773364258E+00 -0.40695867127E+01  0.47097043482E+01  0.51100000000E-03 0. -1.
        -11    1    3    3    0    0 -0.19625884496E+01 -0.17266822120E+02 -0.15063867071E+02  0.22998151903E+02  0.51100000000E-03 0.  1.
         12    1    3    3    0    0  0.55532189823E+01  0.29623907715E+02 -0.94747648105E+01  0.31594070924E+02  0.00000000000E+00 0. -1.
</event>
<event>
 7    1  0.3223600E-013  0.5930193E+02  0.7816164E-02  0.1266605E+00
        -11   -1    0    0    0    0  0.00000000000E+00  0.00000000000E+00  0.45593999997E+02  0.45594000000E+02  0.51100000000E-03 0.  1.
         11   -1    0    0    0    0 -0.00000000000E+00 -0.00000000000E+00 -0.45593999997E+02  0.45594000000E+02  0.51100000000E-03 0. -1.
    9900012    2    1    2    0    0 -0.23133948877E+01  0.12775482546E+02  0.29123126114E+02  0.59301933688E+02  0.49999981144E+02 0.  0.
         12    1    1    2    0    0  0.23133948877E+01 -0.12775482546E+02 -0.29123126114E+02  0.31886066312E+02  0.00000000000E+00 0. -1.
         11    1    3    3    0    0  0.63900434776E+01 -0.70812465272E+00 -0.44694230205E+00  0.64446763962E+01  0.51100000000E-03 0. -1.
        -11    1    3    3    0    0 -0.13833079847E+02  0.19882015121E+02  0.22410032093E+01  0.24324282496E+02  0.51100000000E-03 0.  1.
         12    1    3    3    0    0  0.51296414816E+01 -0.63984079215E+01  0.27329065206E+02  0.28532974796E+02  0.00000000000E+00 0. -1.
</event>
<event>
 7    1  0.3223600E-013  0.5930194E+02  0.7816164E-02  0.1266605E+00
        -11   -1    0    0    0    0  0.00000000000E+00  0.00000000000E+00  0.45593999997E+02  0.45594000000E+02  0.51100000000E-03 0. -1.
         11   -1    0    0    0    0 -0.00000000000E+00 -0.00000000000E+00 -0.45593999997E+02  0.45594000000E+02  0.51100000000E-03 0.  1.
    9900012    2    1    2    0    0 -0.20122785281E+02 -0.50787776595E+01  0.24207448240E+02  0.59301936896E+02  0.49999986994E+02 0.  0.
         12    1    1    2    0    0  0.20122785281E+02  0.50787776595E+01 -0.24207448240E+02  0.31886063104E+02  0.00000000000E+00 0. -1.
         11    1    3    3    0    0 -0.90710213027E+01  0.45974272118E+01  0.29152089053E+02  0.30874974669E+02  0.51100000000E-03 0. -1.
        -11    1    3    3    0    0 -0.63655596739E+01  0.30293582047E+01  0.73155009087E+01  0.10159424930E+02  0.51100000000E-03 0.  1.
        -12    1    3    3    0    0 -0.46862043047E+01 -0.12705563076E+02 -0.12260141722E+02  0.18267537297E+02  0.00000000000E+00 0.  1.
</event>
<event>
 7    1  0.3223600E-013  0.5930204E+02  0.7816164E-02  0.1266604E+00
        -11   -1    0    0    0    0  0.00000000000E+00  0.00000000000E+00  0.45593999997E+02  0.45594000000E+02  0.51100000000E-03 0. -1.
         11   -1    0    0    0    0 -0.00000000000E+00 -0.00000000000E+00 -0.45593999997E+02  0.45594000000E+02  0.51100000000E-03 0.  1.
    9900012    2    1    2    0    0 -0.27102607023E+02 -0.14436252976E+02 -0.85882160648E+01  0.59302044430E+02  0.50000183110E+02 0.  0.
         12    1    1    2    0    0  0.27102607023E+02  0.14436252976E+02  0.85882160648E+01  0.31885955570E+02  0.00000000000E+00 0. -1.
         11    1    3    3    0    0  0.66197707211E+01 -0.65160350649E+01  0.48569445823E+01  0.10481888585E+02  0.51100000000E-03 0. -1.
        -11    1    3    3    0    0 -0.76784670238E+01 -0.40541771895E+00 -0.19573493148E+02  0.21029618485E+02  0.51100000000E-03 0.  1.
        -12    1    3    3    0    0 -0.26043910720E+02 -0.75148001920E+01  0.61283325010E+01  0.27790537360E+02  0.00000000000E+00 0.  1.
</event>
<event>
 7    1  0.3223600E-013  0.5930194E+02  0.7816164E-02  0.1266605E+00
        -11   -1    0    0    0    0  0.00000000000E+00  0.00000000000E+00  0.45593999997E+02  0.45594000000E+02  0.51100000000E-03 0. -1.
         11   -1    0    0    0    0 -0.00000000000E+00 -0.00000000000E+00 -0.45593999997E+02  0.45594000000E+02  0.51100000000E-03 0.  1.
    9900012    2    1    2    0    0 -0.29564298033E+02  0.89905448851E+01  0.78640349907E+01  0.59301942517E+02  0.49999997244E+02 0.  0.
         12    1    1    2    0    0  0.29564298033E+02 -0.89905448851E+01 -0.78640349907E+01  0.31886057483E+02  0.00000000000E+00 0. -1.
         11    1    3    3    0    0  0.11230294435E+02  0.18142950079E+01  0.48512934719E+00  0.11386243024E+02  0.51100000000E-03 0. -1.
        -11    1    3    3    0    0 -0.71947238854E+01 -0.74988753662E+01 -0.53714923037E+00  0.10406042144E+02  0.51100000000E-03 0.  1.
        -12    1    3    3    0    0 -0.33599868582E+02  0.14675125243E+02  0.79160548739E+01  0.37509657348E+02  0.00000000000E+00 0.  1.
</event>
<event>
 7    1  0.3223600E-013  0.5930188E+02  0.7816164E-02  0.1266605E+00
        -11   -1    0    0    0    0  0.00000000000E+00  0.00000000000E+00  0.45593999997E+02  0.45594000000E+02  0.51100000000E-03 0. -1.
         11   -1    0    0    0    0 -0.00000000000E+00 -0.00000000000E+00 -0.45593999997E+02  0.45594000000E+02  0.51100000000E-03 0.  1.
    9900012    2    1    2    0    0 -0.23974453373E+02  0.19154637065E+02  0.86631409566E+01  0.59301881596E+02  0.49999886139E+02 0.  0.
         12    1    1    2    0    0  0.23974453373E+02 -0.19154637065E+02 -0.86631409566E+01  0.31886118404E+02  0.00000000000E+00 0. -1.
         11    1    3    3    0    0  0.61979879061E+01 -0.29245300481E+01  0.83304209798E+01  0.10787207426E+02  0.51100000000E-03 0. -1.
        -11    1    3    3    0    0 -0.34394648046E+01  0.10794657138E+02 -0.12426862813E+02  0.16816107175E+02  0.51100000000E-03 0.  1.
        -12    1    3    3    0    0 -0.26732976475E+02  0.11284509975E+02  0.12759582790E+02  0.31698566995E+02  0.00000000000E+00 0.  1.
</event>
<event>
 7    1  0.3223600E-013  0.5930193E+02  0.7816164E-02  0.1266605E+00
        -11   -1    0    0    0    0  0.00000000000E+00  0.00000000000E+00  0.45593999997E+02  0.45594000000E+02  0.51100000000E-03 0. -1.
         11   -1    0    0    0    0 -0.00000000000E+00 -0.00000000000E+00 -0.45593999997E+02  0.45594000000E+02  0.51100000000E-03 0.  1.
    9900012    2    1    2    0    0  0.30920810605E+02 -0.71521325268E+01  0.30776339209E+01  0.59301931589E+02  0.49999977315E+02 0.  0.
         12    1    1    2    0    0 -0.30920810605E+02  0.71521325268E+01 -0.30776339209E+01  0.31886068411E+02  0.00000000000E+00 0. -1.
         11    1    3    3    0    0  0.80932206581E+01 -0.89339417226E+01 -0.10311359383E+02  0.15863154412E+02  0.51100000000E-03 0. -1.
        -11    1    3    3    0    0  0.99474641946E+01 -0.37626099371E+01 -0.11003295691E+02  0.15302999502E+02  0.51100000000E-03 0.  1.
         12    1    3    3    0    0  0.12880125752E+02  0.55444191330E+01  0.24392288995E+02  0.28135777674E+02  0.00000000000E+00 0. -1.
</event>
<event>
 7    1  0.3223600E-013  0.5930192E+02  0.7816164E-02  0.1266605E+00
        -11   -1    0    0    0    0  0.00000000000E+00  0.00000000000E+00  0.45593999997E+02  0.45594000000E+02  0.51100000000E-03 0. -1.
         11   -1    0    0    0    0 -0.00000000000E+00 -0.00000000000E+00 -0.45593999997E+02  0.45594000000E+02  0.51100000000E-03 0.  1.
    9900012    2    1    2    0    0 -0.73284162227E+01  0.11891599837E+02 -0.28663672126E+02  0.59301922619E+02  0.49999960956E+02 0.  0.
         12    1    1    2    0    0  0.73284162227E+01 -0.11891599837E+02  0.28663672126E+02  0.31886077381E+02  0.00000000000E+00 0. -1.
         11    1    3    3    0    0 -0.10663372319E+02  0.12682074115E+00 -0.12647575464E+02  0.16543420387E+02  0.51100000000E-03 0. -1.
        -11    1    3    3    0    0 -0.15102175349E+02  0.14121735552E+02 -0.11383956373E+02  0.23602829878E+02  0.51100000000E-03 0.  1.
         12    1    3    3    0    0  0.18437131446E+02 -0.23569564565E+01 -0.46321402891E+01  0.19155672354E+02  0.00000000000E+00 0. -1.
</event>
<event>
 7    1  0.3223600E-013  0.5930183E+02  0.7816164E-02  0.1266605E+00
        -11   -1    0    0    0    0  0.00000000000E+00  0.00000000000E+00  0.45593999997E+02  0.45594000000E+02  0.51100000000E-03 0.  1.
         11   -1    0    0    0    0 -0.00000000000E+00 -0.00000000000E+00 -0.45593999997E+02  0.45594000000E+02  0.51100000000E-03 0. -1.
    9900012    2    1    2    0    0  0.38973657296E+01 -0.82558956185E+01  0.30551240061E+02  0.59301834640E+02  0.49999800503E+02 0.  0.
         12    1    1    2    0    0 -0.38973657296E+01  0.82558956185E+01 -0.30551240061E+02  0.31886165360E+02  0.00000000000E+00 0. -1.
         11    1    3    3    0    0  0.85321380767E+01  0.56149374777E+01  0.23371099808E+02  0.25505552524E+02  0.51100000000E-03 0. -1.
        -11    1    3    3    0    0 -0.13217407929E+02 -0.47148918462E+01  0.13736484798E+02  0.19637237391E+02  0.51100000000E-03 0.  1.
         12    1    3    3    0    0  0.85826355822E+01 -0.91559412500E+01 -0.65563445459E+01  0.14159044725E+02  0.00000000000E+00 0. -1.
</event>
<event>
 7    1  0.3223600E-013  0.5930195E+02  0.7816164E-02  0.1266605E+00
        -11   -1    0    0    0    0  0.00000000000E+00  0.00000000000E+00  0.45593999997E+02  0.45594000000E+02  0.51100000000E-03 0. -1.
         11   -1    0    0    0    0 -0.00000000000E+00 -0.00000000000E+00 -0.45593999997E+02  0.45594000000E+02  0.51100000000E-03 0.  1.
    9900012    2    1    2    0    0 -0.10062431747E+02 -0.23464985873E+02 -0.19101361980E+02  0.59301950947E+02  0.50000012620E+02 0.  0.
         12    1    1    2    0    0  0.10062431747E+02  0.23464985873E+02  0.19101361980E+02  0.31886049053E+02  0.00000000000E+00 0. -1.
         11    1    3    3    0    0 -0.94445117673E+01 -0.20439559862E+02 -0.90522823055E+01  0.24267637402E+02  0.51100000000E-03 0. -1.
        -11    1    3    3    0    0 -0.90491258574E+01 -0.78536890243E+01 -0.18577525440E+02  0.22106369259E+02  0.51100000000E-03 0.  1.
         12    1    3    3    0    0  0.84312058777E+01  0.48282630133E+01  0.85284457658E+01  0.12927944286E+02  0.00000000000E+00 0. -1.
</event>
<event>
 7    1  0.3223600E-013  0.5930195E+02  0.7816164E-02  0.1266605E+00
        -11   -1    0    0    0    0  0.00000000000E+00  0.00000000000E+00  0.45593999997E+02  0.45594000000E+02  0.51100000000E-03 0. -1.
         11   -1    0    0    0    0 -0.00000000000E+00 -0.00000000000E+00 -0.45593999997E+02  0.45594000000E+02  0.51100000000E-03 0.  1.
    9900012    2    1    2    0    0 -0.12487213655E+02  0.25366658725E+02  0.14741851382E+02  0.59301951924E+02  0.50000014400E+02 0.  0.
         12    1    1    2    0    0  0.12487213655E+02 -0.25366658725E+02 -0.14741851382E+02  0.31886048076E+02  0.00000000000E+00 0. -1.
         11    1    3    3    0    0 -0.79817406938E+01  0.13396603054E+01  0.17034761135E+02  0.18859638422E+02  0.51100000000E-03 0. -1.
        -11    1    3    3    0    0  0.74956896529E+01  0.14155568063E+02  0.11456731339E+02  0.19693200954E+02  0.51100000000E-03 0.  1.
        -12    1    3    3    0    0 -0.12001162614E+02  0.98714303568E+01 -0.13749641092E+02  0.20749112548E+02  0.00000000000E+00 0.  1.
</event>
<event>
 7    1  0.3223600E-013  0.5930192E+02  0.7816164E-02  0.1266605E+00
        -11   -1    0    0    0    0  0.00000000000E+00  0.00000000000E+00  0.45593999997E+02  0.45594000000E+02  0.51100000000E-03 0.  1.
         11   -1    0    0    0    0 -0.00000000000E+00 -0.00000000000E+00 -0.45593999997E+02  0.45594000000E+02  0.51100000000E-03 0. -1.
    9900012    2    1    2    0    0 -0.23169746589E+01  0.68452371973E+01  0.31056341262E+02  0.59301921903E+02  0.49999959649E+02 0.  0.
         12    1    1    2    0    0  0.23169746589E+01 -0.68452371973E+01 -0.31056341262E+02  0.31886078097E+02  0.00000000000E+00 0. -1.
         11    1    3    3    0    0  0.73311834417E+00 -0.10506453648E+02  0.12229775766E+02  0.16139716426E+02  0.51100000000E-03 0. -1.
        -11    1    3    3    0    0 -0.45048864227E+01  0.15924424830E+02  0.28673456117E+02  0.33106621601E+02  0.51100000000E-03 0.  1.
         12    1    3    3    0    0  0.14547934196E+01  0.14272660153E+01 -0.98468906218E+01  0.10055583876E+02  0.00000000000E+00 0. -1.
</event>
<event>
 7    1  0.3223600E-013  0.5930195E+02  0.7816164E-02  0.1266605E+00
        -11   -1    0    0    0    0  0.00000000000E+00  0.00000000000E+00  0.45593999997E+02  0.45594000000E+02  0.51100000000E-03 0.  1.
         11   -1    0    0    0    0 -0.00000000000E+00 -0.00000000000E+00 -0.45593999997E+02  0.45594000000E+02  0.51100000000E-03 0. -1.
    9900012    2    1    2    0    0 -0.14461884793E+02  0.28081192910E+02  0.43612944565E+01  0.59301946680E+02  0.50000004836E+02 0.  0.
         12    1    1    2    0    0  0.14461884793E+02 -0.28081192910E+02 -0.43612944565E+01  0.31886053320E+02  0.00000000000E+00 0. -1.
         11    1    3    3    0    0 -0.93738137692E+01  0.10532575010E+02  0.17180730617E+01  0.14204059146E+02  0.51100000000E-03 0.  1.
        -11    1    3    3    0    0 -0.20101662394E+02  0.18747910448E+01 -0.69723646770E+01  0.21358968653E+02  0.51100000000E-03 0. -1.
        -12    1    3    3    0    0  0.15013591370E+02  0.15673826855E+02  0.96155860717E+01  0.23738918881E+02  0.00000000000E+00 0.  1.
</event>
<event>
 7    1  0.3223600E-013  0.5930193E+02  0.7816164E-02  0.1266605E+00
        -11   -1    0    0    0    0  0.00000000000E+00  0.00000000000E+00  0.45593999997E+02  0.45594000000E+02  0.51100000000E-03 0. -1.
         11   -1    0    0    0    0 -0.00000000000E+00 -0.00000000000E+00 -0.45593999997E+02  0.45594000000E+02  0.51100000000E-03 0.  1.
    9900012    2    1    2    0    0 -0.66164668335E+01 -0.18528274386E+02 -0.25092768306E+02  0.59301927706E+02  0.49999970234E+02 0.  0.
         12    1    1    2    0    0  0.66164668335E+01  0.18528274386E+02  0.25092768306E+02  0.31886072294E+02  0.00000000000E+00 0. -1.
         11    1    3    3    0    0 -0.66683344109E+01 -0.12041881832E+02 -0.14571285647E+02  0.20044848903E+02  0.51100000000E-03 0. -1.
        -11    1    3    3    0    0 -0.14412184840E+02 -0.94411958988E+01 -0.15997884942E+02  0.23511264848E+02  0.51100000000E-03 0.  1.
         12    1    3    3    0    0  0.14464052417E+02  0.29548033452E+01  0.54764022840E+01  0.15745813955E+02  0.00000000000E+00 0. -1.
</event>
<event>
 7    1  0.3223600E-013  0.5930195E+02  0.7816164E-02  0.1266605E+00
        -11   -1    0    0    0    0  0.00000000000E+00  0.00000000000E+00  0.45593999997E+02  0.45594000000E+02  0.51100000000E-03 0.  1.
         11   -1    0    0    0    0 -0.00000000000E+00 -0.00000000000E+00 -0.45593999997E+02  0.45594000000E+02  0.51100000000E-03 0. -1.
    9900012    2    1    2    0    0  0.58614156430E+01 -0.20946783309E+02  0.23315153886E+02  0.59301947798E+02  0.50000006876E+02 0.  0.
         12    1    1    2    0    0 -0.58614156430E+01  0.20946783309E+02 -0.23315153886E+02  0.31886052202E+02  0.00000000000E+00 0. -1.
         11    1    3    3    0    0  0.18907912419E+02 -0.19815911677E+02  0.11786601831E+01  0.27414754198E+02  0.51100000000E-03 0. -1.
        -11    1    3    3    0    0  0.19038576056E+00 -0.79487038891E+01  0.62458961502E+01  0.10110853536E+02  0.51100000000E-03 0.  1.
        -12    1    3    3    0    0 -0.13236882536E+02  0.68178322576E+01  0.15890597553E+02  0.21776340063E+02  0.00000000000E+00 0.  1.
</event>
<event>
 7    1  0.3223600E-013  0.5930198E+02  0.7816164E-02  0.1266605E+00
        -11   -1    0    0    0    0  0.00000000000E+00  0.00000000000E+00  0.45593999997E+02  0.45594000000E+02  0.51100000000E-03 0.  1.
         11   -1    0    0    0    0 -0.00000000000E+00 -0.00000000000E+00 -0.45593999997E+02  0.45594000000E+02  0.51100000000E-03 0. -1.
    9900012    2    1    2    0    0  0.31740782739E+02 -0.10394726460E+01 -0.28566315293E+01  0.59301982124E+02  0.50000069478E+02 0.  0.
         12    1    1    2    0    0 -0.31740782739E+02  0.10394726460E+01  0.28566315293E+01  0.31886017876E+02  0.00000000000E+00 0. -1.
         11    1    3    3    0    0  0.11732721727E+02 -0.24162491747E+01 -0.20727085463E+01  0.12156937944E+02  0.51100000000E-03 0. -1.
        -11    1    3    3    0    0  0.26471111035E+02 -0.14018536856E+02 -0.37465253169E+01  0.30187340844E+02  0.51100000000E-03 0.  1.
         12    1    3    3    0    0 -0.64630500232E+01  0.15395313385E+02  0.29626023339E+01  0.16957703335E+02  0.00000000000E+00 0. -1.
</event>
<event>
 7    1  0.3223600E-013  0.5930195E+02  0.7816164E-02  0.1266605E+00
        -11   -1    0    0    0    0  0.00000000000E+00  0.00000000000E+00  0.45593999997E+02  0.45594000000E+02  0.51100000000E-03 0.  1.
         11   -1    0    0    0    0 -0.00000000000E+00 -0.00000000000E+00 -0.45593999997E+02  0.45594000000E+02  0.51100000000E-03 0. -1.
    9900012    2    1    2    0    0  0.15112986778E+02  0.27782537758E+02  0.40556429723E+01  0.59301952682E+02  0.50000015784E+02 0.  0.
         12    1    1    2    0    0 -0.15112986778E+02 -0.27782537758E+02 -0.40556429723E+01  0.31886047318E+02  0.00000000000E+00 0. -1.
         11    1    3    3    0    0  0.43055227470E+01  0.18236057421E+01 -0.14417360740E+02  0.15156627429E+02  0.51100000000E-03 0. -1.
        -11    1    3    3    0    0  0.19300729004E+02  0.12775225978E+02  0.54948103775E+01  0.23789020161E+02  0.51100000000E-03 0.  1.
         12    1    3    3    0    0 -0.84932649724E+01  0.13183706038E+02  0.12978193335E+02  0.20356305093E+02  0.00000000000E+00 0. -1.
</event>
<event>
 7    1  0.3223600E-013  0.5930193E+02  0.7816164E-02  0.1266605E+00
        -11   -1    0    0    0    0  0.00000000000E+00  0.00000000000E+00  0.45593999997E+02  0.45594000000E+02  0.51100000000E-03 0.  1.
         11   -1    0    0    0    0 -0.00000000000E+00 -0.00000000000E+00 -0.45593999997E+02  0.45594000000E+02  0.51100000000E-03 0. -1.
    9900012    2    1    2    0    0 -0.87379125767E+01  0.29613777880E+02 -0.79620594984E+01  0.59301931757E+02  0.49999977622E+02 0.  0.
         12    1    1    2    0    0  0.87379125767E+01 -0.29613777880E+02  0.79620594984E+01  0.31886068243E+02  0.00000000000E+00 0. -1.
         11    1    3    3    0    0  0.11725211460E+02 -0.58989081434E+01 -0.41467847742E+01  0.13764938260E+02  0.51100000000E-03 0. -1.
        -11    1    3    3    0    0  0.34637095149E+01  0.68350470637E+01  0.15128209407E+01  0.78104916252E+01  0.51100000000E-03 0.  1.
        -12    1    3    3    0    0 -0.23926833552E+02  0.28677638960E+02 -0.53280956649E+01  0.37726501872E+02  0.00000000000E+00 0.  1.
</event>
<event>
 7    1  0.3223600E-013  0.5930197E+02  0.7816164E-02  0.1266605E+00
        -11   -1    0    0    0    0  0.00000000000E+00  0.00000000000E+00  0.45593999997E+02  0.45594000000E+02  0.51100000000E-03 0.  1.
         11   -1    0    0    0    0 -0.00000000000E+00 -0.00000000000E+00 -0.45593999997E+02  0.45594000000E+02  0.51100000000E-03 0. -1.
    9900012    2    1    2    0    0  0.70463236609E+01  0.16618431102E+02  0.26284899873E+02  0.59301970288E+02  0.50000047892E+02 0.  0.
         12    1    1    2    0    0 -0.70463236609E+01 -0.16618431102E+02 -0.26284899873E+02  0.31886029712E+02  0.00000000000E+00 0. -1.
         11    1    3    3    0    0 -0.10715351118E+02  0.17040601107E+02  0.19511749636E+02  0.28034072301E+02  0.51100000000E-03 0. -1.
        -11    1    3    3    0    0 -0.58473815936E+01 -0.13056387101E+01 -0.16018471439E+01  0.62018125154E+01  0.51100000000E-03 0.  1.
        -12    1    3    3    0    0  0.23609056372E+02  0.88346870560E+00  0.83749973819E+01  0.25066085472E+02  0.00000000000E+00 0.  1.
</event>
<event>
 7    1  0.3223600E-013  0.5930196E+02  0.7816164E-02  0.1266605E+00
        -11   -1    0    0    0    0  0.00000000000E+00  0.00000000000E+00  0.45593999997E+02  0.45594000000E+02  0.51100000000E-03 0.  1.
         11   -1    0    0    0    0 -0.00000000000E+00 -0.00000000000E+00 -0.45593999997E+02  0.45594000000E+02  0.51100000000E-03 0. -1.
    9900012    2    1    2    0    0  0.17473349672E+02 -0.12146998120E+02  0.23745572353E+02  0.59301957309E+02  0.50000024223E+02 0.  0.
         12    1    1    2    0    0 -0.17473349672E+02  0.12146998120E+02 -0.23745572353E+02  0.31886042691E+02  0.00000000000E+00 0. -1.
         11    1    3    3    0    0  0.92971309292E+01 -0.10560377841E+02  0.33391280572E+02  0.36234456559E+02  0.51100000000E-03 0. -1.
        -11    1    3    3    0    0 -0.16249286061E+01 -0.44236220044E+01  0.38942300609E+01  0.61134157916E+01  0.51100000000E-03 0.  1.
         12    1    3    3    0    0  0.98011473493E+01  0.28370017256E+01 -0.13539938280E+02  0.16954084959E+02  0.00000000000E+00 0. -1.
</event>
<event>
 7    1  0.3223600E-013  0.5930195E+02  0.7816164E-02  0.1266605E+00
        -11   -1    0    0    0    0  0.00000000000E+00  0.00000000000E+00  0.45593999997E+02  0.45594000000E+02  0.51100000000E-03 0.  1.
         11   -1    0    0    0    0 -0.00000000000E+00 -0.00000000000E+00 -0.45593999997E+02  0.45594000000E+02  0.51100000000E-03 0. -1.
    9900012    2    1    2    0    0  0.37448042803E+01  0.22822501007E+02  0.21950628682E+02  0.59301949588E+02  0.50000010141E+02 0.  0.
         12    1    1    2    0    0 -0.37448042803E+01 -0.22822501007E+02 -0.21950628682E+02  0.31886050412E+02  0.00000000000E+00 0. -1.
         11    1    3    3    0    0  0.16714696595E+02 -0.23177748694E+01 -0.51257065217E+01  0.17635930092E+02  0.51100000000E-03 0. -1.
        -11    1    3    3    0    0 -0.32627171304E+01 -0.62516378860E+00  0.42954928161E+00  0.33497262100E+01  0.51100000000E-03 0.  1.
        -12    1    3    3    0    0 -0.97071751843E+01  0.25765439665E+02  0.26646785922E+02  0.38316293286E+02  0.00000000000E+00 0.  1.
</event>
<event>
 7    1  0.3223600E-013  0.5930195E+02  0.7816164E-02  0.1266605E+00
        -11   -1    0    0    0    0  0.00000000000E+00  0.00000000000E+00  0.45593999997E+02  0.45594000000E+02  0.51100000000E-03 0.  1.
         11   -1    0    0    0    0 -0.00000000000E+00 -0.00000000000E+00 -0.45593999997E+02  0.45594000000E+02  0.51100000000E-03 0. -1.
    9900012    2    1    2    0    0 -0.23418721152E+02  0.12805032491E+02  0.17444627320E+02  0.59301946938E+02  0.50000005308E+02 0.  0.
         12    1    1    2    0    0  0.23418721152E+02 -0.12805032491E+02 -0.17444627320E+02  0.31886053062E+02  0.00000000000E+00 0. -1.
         11    1    3    3    0    0  0.12263346008E+02  0.94381795916E+01  0.79055497236E+01  0.17377186366E+02  0.51100000000E-03 0. -1.
        -11    1    3    3    0    0 -0.53344577134E+01  0.21113262948E+01  0.10021348995E+02  0.11547362199E+02  0.51100000000E-03 0.  1.
         12    1    3    3    0    0 -0.30347609447E+02  0.12555266048E+01 -0.48227139861E+00  0.30377398373E+02  0.00000000000E+00 0. -1.
</event>
<event>
 7    1  0.3223600E-013  0.5930194E+02  0.7816164E-02  0.1266605E+00
        -11   -1    0    0    0    0  0.00000000000E+00  0.00000000000E+00  0.45593999997E+02  0.45594000000E+02  0.51100000000E-03 0.  1.
         11   -1    0    0    0    0 -0.00000000000E+00 -0.00000000000E+00 -0.45593999997E+02  0.45594000000E+02  0.51100000000E-03 0. -1.
    9900012    2    1    2    0    0 -0.14713898439E+02 -0.18866070518E+02  0.21078269571E+02  0.59301939218E+02  0.49999991229E+02 0.  0.
         12    1    1    2    0    0  0.14713898439E+02  0.18866070518E+02 -0.21078269571E+02  0.31886060782E+02  0.00000000000E+00 0. -1.
         11    1    3    3    0    0 -0.34741423568E+01 -0.50024546379E+00 -0.28027037788E+01  0.44916655454E+01  0.51100000000E-03 0. -1.
        -11    1    3    3    0    0 -0.30618525816E+01 -0.31781545436E+02  0.90070663638E+01  0.33174822024E+02  0.51100000000E-03 0.  1.
         12    1    3    3    0    0 -0.81779035002E+01  0.13415720382E+02  0.14873906986E+02  0.21635451649E+02  0.00000000000E+00 0. -1.
</event>
<event>
 7    1  0.3223600E-013  0.5930194E+02  0.7816164E-02  0.1266605E+00
        -11   -1    0    0    0    0  0.00000000000E+00  0.00000000000E+00  0.45593999997E+02  0.45594000000E+02  0.51100000000E-03 0.  1.
         11   -1    0    0    0    0 -0.00000000000E+00 -0.00000000000E+00 -0.45593999997E+02  0.45594000000E+02  0.51100000000E-03 0. -1.
    9900012    2    1    2    0    0  0.14630227435E+02 -0.15854595407E+02  0.23479968588E+02  0.59301942307E+02  0.49999996862E+02 0.  0.
         12    1    1    2    0    0 -0.14630227435E+02  0.15854595407E+02 -0.23479968588E+02  0.31886057693E+02  0.00000000000E+00 0. -1.
         11    1    3    3    0    0 -0.46770485406E+01 -0.25404594858E+01 -0.99546112786E+01  0.11288179810E+02  0.51100000000E-03 0. -1.
        -11    1    3    3    0    0 -0.40462458140E+01 -0.99037867310E+01  0.12627568105E+02  0.16550304327E+02  0.51100000000E-03 0.  1.
        -12    1    3    3    0    0  0.23353521790E+02 -0.34103491905E+01  0.20807011761E+02  0.31463458170E+02  0.00000000000E+00 0.  1.
</event>
<event>
 7    1  0.3223600E-013  0.5930194E+02  0.7816164E-02  0.1266605E+00
        -11   -1    0    0    0    0  0.00000000000E+00  0.00000000000E+00  0.45593999997E+02  0.45594000000E+02  0.51100000000E-03 0.  1.
         11   -1    0    0    0    0 -0.00000000000E+00 -0.00000000000E+00 -0.45593999997E+02  0.45594000000E+02  0.51100000000E-03 0. -1.
    9900012    2    1    2    0    0  0.46806943846E+01  0.10823532061E+02  0.29625383738E+02  0.59301935523E+02  0.49999984490E+02 0.  0.
         12    1    1    2    0    0 -0.46806943846E+01 -0.10823532061E+02 -0.29625383738E+02  0.31886064477E+02  0.00000000000E+00 0. -1.
         11    1    3    3    0    0 -0.52064093049E+01 -0.12433350661E+02 -0.99919814850E+00  0.13516408683E+02  0.51100000000E-03 0. -1.
        -11    1    3    3    0    0 -0.45904180938E+01  0.12599592548E+02  0.46427764726E+01  0.14190737975E+02  0.51100000000E-03 0.  1.
        -12    1    3    3    0    0  0.14477521783E+02  0.10657290174E+02  0.25981805414E+02  0.31594788865E+02  0.00000000000E+00 0.  1.
</event>
<event>
 7    1  0.3223600E-013  0.5930196E+02  0.7816164E-02  0.1266605E+00
        -11   -1    0    0    0    0  0.00000000000E+00  0.00000000000E+00  0.45593999997E+02  0.45594000000E+02  0.51100000000E-03 0. -1.
         11   -1    0    0    0    0 -0.00000000000E+00 -0.00000000000E+00 -0.45593999997E+02  0.45594000000E+02  0.51100000000E-03 0.  1.
    9900012    2    1    2    0    0  0.31355111750E+02  0.40684134080E+01 -0.41261066608E+01  0.59301956397E+02  0.50000022558E+02 0.  0.
         12    1    1    2    0    0 -0.31355111750E+02 -0.40684134080E+01  0.41261066608E+01  0.31886043603E+02  0.00000000000E+00 0. -1.
         11    1    3    3    0    0 -0.40981301105E+01 -0.67091534330E-01 -0.68772186725E+00  0.41559756141E+01  0.51100000000E-03 0. -1.
        -11    1    3    3    0    0  0.27945188799E+02 -0.13260193687E+02 -0.13435400344E+02  0.33723527340E+02  0.51100000000E-03 0.  1.
         12    1    3    3    0    0  0.75080530614E+01  0.17395698629E+02  0.99970155506E+01  0.21422453442E+02  0.00000000000E+00 0. -1.
</event>
<event>
 7    1  0.3223600E-013  0.5930196E+02  0.7816164E-02  0.1266605E+00
        -11   -1    0    0    0    0  0.00000000000E+00  0.00000000000E+00  0.45593999997E+02  0.45594000000E+02  0.51100000000E-03 0.  1.
         11   -1    0    0    0    0 -0.00000000000E+00 -0.00000000000E+00 -0.45593999997E+02  0.45594000000E+02  0.51100000000E-03 0. -1.
    9900012    2    1    2    0    0  0.27574004273E+01 -0.14927060881E+02  0.28041031508E+02  0.59301955220E+02  0.50000020413E+02 0.  0.
         12    1    1    2    0    0 -0.27574004273E+01  0.14927060881E+02 -0.28041031508E+02  0.31886044780E+02  0.00000000000E+00 0. -1.
         11    1    3    3    0    0  0.13074986322E+02 -0.24646369911E+01  0.73691199477E+01  0.15209655876E+02  0.51100000000E-03 0. -1.
        -11    1    3    3    0    0  0.94904486620E+01 -0.44238600792E+01  0.20150846044E+02  0.22708935474E+02  0.51100000000E-03 0.  1.
         12    1    3    3    0    0 -0.19808034557E+02 -0.80385638107E+01  0.52106551635E+00  0.21383363870E+02  0.00000000000E+00 0. -1.
</event>
<event>
 7    1  0.3223600E-013  0.5930189E+02  0.7816164E-02  0.1266605E+00
        -11   -1    0    0    0    0  0.00000000000E+00  0.00000000000E+00  0.45593999997E+02  0.45594000000E+02  0.51100000000E-03 0. -1.
         11   -1    0    0    0    0 -0.00000000000E+00 -0.00000000000E+00 -0.45593999997E+02  0.45594000000E+02  0.51100000000E-03 0.  1.
    9900012    2    1    2    0    0  0.23639495862E+02  0.20296609684E+02 -0.67783363891E+01  0.59301890587E+02  0.49999902537E+02 0.  0.
         12    1    1    2    0    0 -0.23639495862E+02 -0.20296609684E+02  0.67783363891E+01  0.31886109413E+02  0.00000000000E+00 0. -1.
         11    1    3    3    0    0  0.38385825422E+01 -0.53513427021E+01  0.96115430724E+01  0.11651323751E+02  0.51100000000E-03 0. -1.
        -11    1    3    3    0    0  0.90149723145E+01 -0.63166224910E+01 -0.39815305731E+01  0.11705641011E+02  0.51100000000E-03 0.  1.
         12    1    3    3    0    0  0.10785941006E+02  0.31964574877E+02 -0.12408348888E+02  0.35944925825E+02  0.00000000000E+00 0. -1.
</event>
<event>
 7    1  0.3223600E-013  0.5930196E+02  0.7816164E-02  0.1266605E+00
        -11   -1    0    0    0    0  0.00000000000E+00  0.00000000000E+00  0.45593999997E+02  0.45594000000E+02  0.51100000000E-03 0. -1.
         11   -1    0    0    0    0 -0.00000000000E+00 -0.00000000000E+00 -0.45593999997E+02  0.45594000000E+02  0.51100000000E-03 0.  1.
    9900012    2    1    2    0    0 -0.15564508408E+02 -0.50917141800E+01 -0.27359462246E+02  0.59301958388E+02  0.50000026190E+02 0.  0.
         12    1    1    2    0    0  0.15564508408E+02  0.50917141800E+01  0.27359462246E+02  0.31886041612E+02  0.00000000000E+00 0. -1.
         11    1    3    3    0    0  0.62380101746E+01  0.17901679431E+01 -0.19405471199E+01  0.67737135744E+01  0.51100000000E-03 0. -1.
        -11    1    3    3    0    0  0.24591072564E+01  0.13827929967E+02 -0.85723034558E+01  0.16454277331E+02  0.51100000000E-03 0.  1.
        -12    1    3    3    0    0 -0.24261625839E+02 -0.20709812090E+02 -0.16846611671E+02  0.36073967483E+02  0.00000000000E+00 0.  1.
</event>
<event>
 7    1  0.3223600E-013  0.5930194E+02  0.7816164E-02  0.1266605E+00
        -11   -1    0    0    0    0  0.00000000000E+00  0.00000000000E+00  0.45593999997E+02  0.45594000000E+02  0.51100000000E-03 0.  1.
         11   -1    0    0    0    0 -0.00000000000E+00 -0.00000000000E+00 -0.45593999997E+02  0.45594000000E+02  0.51100000000E-03 0. -1.
    9900012    2    1    2    0    0 -0.13526223303E+02 -0.23247006116E+02 -0.17127141142E+02  0.59301937623E+02  0.49999988320E+02 0.  0.
         12    1    1    2    0    0  0.13526223303E+02  0.23247006116E+02  0.17127141142E+02  0.31886062377E+02  0.00000000000E+00 0. -1.
         11    1    3    3    0    0  0.14325059984E+02 -0.57850944135E+01 -0.77193916388E+01  0.17270311764E+02  0.51100000000E-03 0. -1.
        -11    1    3    3    0    0 -0.11032191032E+02  0.54937559259E+01 -0.10352827702E+01  0.12367797048E+02  0.51100000000E-03 0.  1.
        -12    1    3    3    0    0 -0.16819092255E+02 -0.22955667628E+02 -0.83724667327E+01  0.29663828811E+02  0.00000000000E+00 0.  1.
</event>
<event>
 7    1  0.3223600E-013  0.5930197E+02  0.7816164E-02  0.1266605E+00
        -11   -1    0    0    0    0  0.00000000000E+00  0.00000000000E+00  0.45593999997E+02  0.45594000000E+02  0.51100000000E-03 0.  1.
         11   -1    0    0    0    0 -0.00000000000E+00 -0.00000000000E+00 -0.45593999997E+02  0.45594000000E+02  0.51100000000E-03 0. -1.
    9900012    2    1    2    0    0  0.13072302778E+02 -0.15305874706E+02  0.24729824911E+02  0.59301966372E+02  0.50000040750E+02 0.  0.
         12    1    1    2    0    0 -0.13072302778E+02  0.15305874706E+02 -0.24729824911E+02  0.31886033628E+02  0.00000000000E+00 0. -1.
         11    1    3    3    0    0  0.12035435962E+02 -0.93308377842E+01 -0.10907239387E+02  0.18731901234E+02  0.51100000000E-03 0. -1.
        -11    1    3    3    0    0  0.58450980779E+01  0.21245706896E+01  0.36197159803E+01  0.71959235818E+01  0.51100000000E-03 0.  1.
        -12    1    3    3    0    0 -0.48082312619E+01 -0.80996076113E+01  0.32017348317E+02  0.33374141556E+02  0.00000000000E+00 0.  1.
</event>
<event>
 7    1  0.3223600E-013  0.5930193E+02  0.7816164E-02  0.1266605E+00
        -11   -1    0    0    0    0  0.00000000000E+00  0.00000000000E+00  0.45593999997E+02  0.45594000000E+02  0.51100000000E-03 0.  1.
         11   -1    0    0    0    0 -0.00000000000E+00 -0.00000000000E+00 -0.45593999997E+02  0.45594000000E+02  0.51100000000E-03 0. -1.
    9900012    2    1    2    0    0  0.24593558361E+02 -0.17882127540E+02 -0.95972803964E+01  0.59301931110E+02  0.49999976442E+02 0.  0.
         12    1    1    2    0    0 -0.24593558361E+02  0.17882127540E+02  0.95972803964E+01  0.31886068890E+02  0.00000000000E+00 0. -1.
         11    1    3    3    0    0 -0.25569145834E+01 -0.12795891144E+01  0.19008311053E+01  0.34334122445E+01  0.51100000000E-03 0. -1.
        -11    1    3    3    0    0  0.22329529415E+02 -0.10402349441E+02  0.14585695529E+02  0.28627945650E+02  0.51100000000E-03 0.  1.
        -12    1    3    3    0    0  0.48209435295E+01 -0.62001889849E+01 -0.26083807030E+02  0.27240573216E+02  0.00000000000E+00 0.  1.
</event>
<event>
 7    1  0.3223600E-013  0.5930193E+02  0.7816164E-02  0.1266605E+00
        -11   -1    0    0    0    0  0.00000000000E+00  0.00000000000E+00  0.45593999997E+02  0.45594000000E+02  0.51100000000E-03 0. -1.
         11   -1    0    0    0    0 -0.00000000000E+00 -0.00000000000E+00 -0.45593999997E+02  0.45594000000E+02  0.51100000000E-03 0.  1.
    9900012    2    1    2    0    0  0.23103706811E+02  0.19369652426E+02 -0.10380607993E+02  0.59301925832E+02  0.49999966816E+02 0.  0.
         12    1    1    2    0    0 -0.23103706811E+02 -0.19369652426E+02  0.10380607993E+02  0.31886074168E+02  0.00000000000E+00 0. -1.
         11    1    3    3    0    0 -0.75231989385E+01  0.57857407037E+01  0.12773917132E+02  0.15913713486E+02  0.51100000000E-03 0. -1.
        -11    1    3    3    0    0 -0.15575026380E+01  0.94056400025E+00 -0.25614895655E+01  0.31419268230E+01  0.51100000000E-03 0.  1.
         12    1    3    3    0    0  0.32184408388E+02  0.12643347722E+02 -0.20593035559E+02  0.40246285523E+02  0.00000000000E+00 0. -1.
</event>
<event>
 7    1  0.3223600E-013  0.5930195E+02  0.7816164E-02  0.1266605E+00
        -11   -1    0    0    0    0  0.00000000000E+00  0.00000000000E+00  0.45593999997E+02  0.45594000000E+02  0.51100000000E-03 0.  1.
         11   -1    0    0    0    0 -0.00000000000E+00 -0.00000000000E+00 -0.45593999997E+02  0.45594000000E+02  0.51100000000E-03 0. -1.
    9900012    2    1    2    0    0 -0.25078711003E+00 -0.75180956578E+01  0.30986056678E+02  0.59301947172E+02  0.50000005735E+02 0.  0.
         12    1    1    2    0    0  0.25078711003E+00  0.75180956578E+01 -0.30986056678E+02  0.31886052828E+02  0.00000000000E+00 0. -1.
         11    1    3    3    0    0  0.24161524057E+01 -0.10487072054E+02  0.23283009537E+02  0.25649853919E+02  0.51100000000E-03 0. -1.
        -11    1    3    3    0    0 -0.18720264751E+01  0.70274117547E+01  0.19680273237E+02  0.20980995067E+02  0.51100000000E-03 0.  1.
         12    1    3    3    0    0 -0.79491304072E+00 -0.40584353586E+01 -0.11977226096E+02  0.12671098186E+02  0.00000000000E+00 0. -1.
</event>
<event>
 7    1  0.3223600E-013  0.5930195E+02  0.7816164E-02  0.1266605E+00
        -11   -1    0    0    0    0  0.00000000000E+00  0.00000000000E+00  0.45593999997E+02  0.45594000000E+02  0.51100000000E-03 0. -1.
         11   -1    0    0    0    0 -0.00000000000E+00 -0.00000000000E+00 -0.45593999997E+02  0.45594000000E+02  0.51100000000E-03 0.  1.
    9900012    2    1    2    0    0 -0.10226066853E+02  0.28238574683E+02 -0.10711244872E+02  0.59301948032E+02  0.50000007303E+02 0.  0.
         12    1    1    2    0    0  0.10226066853E+02 -0.28238574683E+02  0.10711244872E+02  0.31886051968E+02  0.00000000000E+00 0. -1.
         11    1    3    3    0    0  0.57726863541E+01 -0.12486630341E+01  0.10444190417E+02  0.11998507442E+02  0.51100000000E-03 0. -1.
        -11    1    3    3    0    0 -0.11154989118E+02 -0.72731130216E+00 -0.90988160785E+01  0.14413577566E+02  0.51100000000E-03 0.  1.
        -12    1    3    3    0    0 -0.48437640892E+01  0.30214549019E+02 -0.12056619210E+02  0.32889863024E+02  0.00000000000E+00 0.  1.
</event>
<event>
 7    1  0.3223600E-013  0.5930198E+02  0.7816164E-02  0.1266605E+00
        -11   -1    0    0    0    0  0.00000000000E+00  0.00000000000E+00  0.45593999997E+02  0.45594000000E+02  0.51100000000E-03 0.  1.
         11   -1    0    0    0    0 -0.00000000000E+00 -0.00000000000E+00 -0.45593999997E+02  0.45594000000E+02  0.51100000000E-03 0. -1.
    9900012    2    1    2    0    0  0.23800931846E+02  0.15004992163E+02 -0.15002793982E+02  0.59301984667E+02  0.50000074116E+02 0.  0.
         12    1    1    2    0    0 -0.23800931846E+02 -0.15004992163E+02  0.15002793982E+02  0.31886015333E+02  0.00000000000E+00 0. -1.
         11    1    3    3    0    0  0.56050385719E+01 -0.89433308686E+00 -0.11111612901E+02  0.12477348700E+02  0.51100000000E-03 0. -1.
        -11    1    3    3    0    0 -0.56686278313E+01 -0.77706755062E+01  0.65395602712E+01  0.11631104338E+02  0.51100000000E-03 0.  1.
        -12    1    3    3    0    0  0.23864521105E+02  0.23670000756E+02 -0.10430741352E+02  0.35193531629E+02  0.00000000000E+00 0.  1.
</event>
<event>
 7    1  0.3223600E-013  0.5930186E+02  0.7816164E-02  0.1266605E+00
        -11   -1    0    0    0    0  0.00000000000E+00  0.00000000000E+00  0.45593999997E+02  0.45594000000E+02  0.51100000000E-03 0.  1.
         11   -1    0    0    0    0 -0.00000000000E+00 -0.00000000000E+00 -0.45593999997E+02  0.45594000000E+02  0.51100000000E-03 0. -1.
    9900012    2    1    2    0    0 -0.50483401769E+01  0.16510535964E+02  0.26807510688E+02  0.59301856213E+02  0.49999839846E+02 0.  0.
         12    1    1    2    0    0  0.50483401769E+01 -0.16510535964E+02 -0.26807510688E+02  0.31886143787E+02  0.00000000000E+00 0. -1.
         11    1    3    3    0    0 -0.12349054494E+02  0.28345659116E+01  0.26121268073E+02  0.29031957509E+02  0.51100000000E-03 0.  1.
        -11    1    3    3    0    0  0.78943912491E+01  0.69048176672E+01  0.12697422872E+02  0.16468833233E+02  0.51100000000E-03 0. -1.
        -12    1    3    3    0    0 -0.59367693192E+00  0.67711523851E+01 -0.12011180258E+02  0.13801065470E+02  0.00000000000E+00 0.  1.
</event>
<event>
 7    1  0.3223600E-013  0.5930194E+02  0.7816164E-02  0.1266605E+00
        -11   -1    0    0    0    0  0.00000000000E+00  0.00000000000E+00  0.45593999997E+02  0.45594000000E+02  0.51100000000E-03 0.  1.
         11   -1    0    0    0    0 -0.00000000000E+00 -0.00000000000E+00 -0.45593999997E+02  0.45594000000E+02  0.51100000000E-03 0. -1.
    9900012    2    1    2    0    0 -0.21862885835E+02  0.23210277886E+02  0.13322147864E+00  0.59301944670E+02  0.50000001171E+02 0.  0.
         12    1    1    2    0    0  0.21862885835E+02 -0.23210277886E+02 -0.13322147864E+00  0.31886055330E+02  0.00000000000E+00 0. -1.
         11    1    3    3    0    0 -0.32633024622E+02  0.24387842692E+02 -0.84867008669E+01  0.41613762856E+02  0.51100000000E-03 0. -1.
        -11    1    3    3    0    0  0.84245700463E+00 -0.31811133288E+01 -0.12748619825E+01  0.35290918309E+01  0.51100000000E-03 0.  1.
        -12    1    3    3    0    0  0.99276817825E+01  0.20035485226E+01  0.98947843280E+01  0.14159089983E+02  0.00000000000E+00 0.  1.
</event>
<event>
 7    1  0.3223600E-013  0.5930195E+02  0.7816164E-02  0.1266605E+00
        -11   -1    0    0    0    0  0.00000000000E+00  0.00000000000E+00  0.45593999997E+02  0.45594000000E+02  0.51100000000E-03 0.  1.
         11   -1    0    0    0    0 -0.00000000000E+00 -0.00000000000E+00 -0.45593999997E+02  0.45594000000E+02  0.51100000000E-03 0. -1.
    9900012    2    1    2    0    0  0.12980407034E+02 -0.14695729752E+02  0.25144881272E+02  0.59301945150E+02  0.50000002046E+02 0.  0.
         12    1    1    2    0    0 -0.12980407034E+02  0.14695729752E+02 -0.25144881272E+02  0.31886054850E+02  0.00000000000E+00 0. -1.
         11    1    3    3    0    0  0.22547890977E+02 -0.15850768470E+01  0.69334194155E+01  0.23643015061E+02  0.51100000000E-03 0. -1.
        -11    1    3    3    0    0  0.80594300836E+00 -0.18821384943E+01  0.20146352233E+02  0.20250123407E+02  0.51100000000E-03 0.  1.
         12    1    3    3    0    0 -0.10373426951E+02 -0.11228514411E+02 -0.19348903767E+01  0.15408806681E+02  0.00000000000E+00 0. -1.
</event>
<event>
 7    1  0.3223600E-013  0.5930164E+02  0.7816164E-02  0.1266606E+00
        -11   -1    0    0    0    0  0.00000000000E+00  0.00000000000E+00  0.45593999997E+02  0.45594000000E+02  0.51100000000E-03 0. -1.
         11   -1    0    0    0    0 -0.00000000000E+00 -0.00000000000E+00 -0.45593999997E+02  0.45594000000E+02  0.51100000000E-03 0.  1.
    9900012    2    1    2    0    0  0.22615108401E+02  0.19962383285E+02  0.10334416238E+02  0.59301638755E+02  0.49999443254E+02 0.  0.
         12    1    1    2    0    0 -0.22615108401E+02 -0.19962383285E+02 -0.10334416238E+02  0.31886361245E+02  0.00000000000E+00 0. -1.
         11    1    3    3    0    0 -0.84413522903E+01 -0.49977092004E+01  0.81357951476E+01  0.12744594489E+02  0.51100000000E-03 0. -1.
        -11    1    3    3    0    0  0.13683996269E+02 -0.25650438656E+01  0.14724041915E+01  0.13999970653E+02  0.51100000000E-03 0.  1.
         12    1    3    3    0    0  0.17372464422E+02  0.27525136351E+02  0.72621689890E+00  0.32557073613E+02  0.00000000000E+00 0. -1.
</event>
<event>
 7    1  0.3223600E-013  0.5930196E+02  0.7816164E-02  0.1266605E+00
        -11   -1    0    0    0    0  0.00000000000E+00  0.00000000000E+00  0.45593999997E+02  0.45594000000E+02  0.51100000000E-03 0.  1.
         11   -1    0    0    0    0 -0.00000000000E+00 -0.00000000000E+00 -0.45593999997E+02  0.45594000000E+02  0.51100000000E-03 0. -1.
    9900012    2    1    2    0    0 -0.15996333951E+02  0.18298385517E+02  0.20639914671E+02  0.59301957756E+02  0.50000025036E+02 0.  0.
         12    1    1    2    0    0  0.15996333951E+02 -0.18298385517E+02 -0.20639914671E+02  0.31886042244E+02  0.00000000000E+00 0. -1.
         11    1    3    3    0    0 -0.22132482192E+02  0.23790506684E+01 -0.46264961890E+01  0.22735679389E+02  0.51100000000E-03 0. -1.
        -11    1    3    3    0    0 -0.58583399438E+01  0.12212732527E+02  0.10207075439E+02  0.16960406008E+02  0.51100000000E-03 0.  1.
         12    1    3    3    0    0  0.11994488185E+02  0.37066023210E+01  0.15059335422E+02  0.19605872358E+02  0.00000000000E+00 0. -1.
</event>
<event>
 7    1  0.3223600E-013  0.5930200E+02  0.7816164E-02  0.1266605E+00
        -11   -1    0    0    0    0  0.00000000000E+00  0.00000000000E+00  0.45593999997E+02  0.45594000000E+02  0.51100000000E-03 0. -1.
         11   -1    0    0    0    0 -0.00000000000E+00 -0.00000000000E+00 -0.45593999997E+02  0.45594000000E+02  0.51100000000E-03 0.  1.
    9900012    2    1    2    0    0 -0.19378835724E+02  0.11218155567E+02 -0.22700894297E+02  0.59302001658E+02  0.50000105104E+02 0.  0.
         12    1    1    2    0    0  0.19378835724E+02 -0.11218155567E+02  0.22700894297E+02  0.31885998342E+02  0.00000000000E+00 0. -1.
         11    1    3    3    0    0 -0.36818704282E+01 -0.44653309625E+01  0.28032313358E+01  0.64306653340E+01  0.51100000000E-03 0. -1.
        -11    1    3    3    0    0 -0.25907963939E+02  0.13253136311E+02 -0.45760123049E+01  0.29458582899E+02  0.51100000000E-03 0.  1.
        -12    1    3    3    0    0  0.10210998643E+02  0.24303502188E+01 -0.20928113328E+02  0.23412753425E+02  0.00000000000E+00 0.  1.
</event>
<event>
 7    1  0.3223600E-013  0.5930195E+02  0.7816164E-02  0.1266605E+00
        -11   -1    0    0    0    0  0.00000000000E+00  0.00000000000E+00  0.45593999997E+02  0.45594000000E+02  0.51100000000E-03 0.  1.
         11   -1    0    0    0    0 -0.00000000000E+00 -0.00000000000E+00 -0.45593999997E+02  0.45594000000E+02  0.51100000000E-03 0. -1.
    9900012    2    1    2    0    0 -0.27663200871E+02 -0.30665110119E+01  0.15558412702E+02  0.59301946967E+02  0.50000005361E+02 0.  0.
         12    1    1    2    0    0  0.27663200871E+02  0.30665110119E+01 -0.15558412702E+02  0.31886053033E+02  0.00000000000E+00 0. -1.
         11    1    3    3    0    0 -0.90149711310E+01 -0.99671164329E+01  0.86652277789E+00  0.13467144332E+02  0.51100000000E-03 0. -1.
        -11    1    3    3    0    0 -0.23021027996E+02  0.10170168528E+02  0.24171638571E+02  0.34895102369E+02  0.51100000000E-03 0.  1.
         12    1    3    3    0    0  0.43727982566E+01 -0.32695631074E+01 -0.94797486463E+01  0.10939700266E+02  0.00000000000E+00 0. -1.
</event>
<event>
 7    1  0.3223600E-013  0.5930195E+02  0.7816164E-02  0.1266605E+00
        -11   -1    0    0    0    0  0.00000000000E+00  0.00000000000E+00  0.45593999997E+02  0.45594000000E+02  0.51100000000E-03 0.  1.
         11   -1    0    0    0    0 -0.00000000000E+00 -0.00000000000E+00 -0.45593999997E+02  0.45594000000E+02  0.51100000000E-03 0. -1.
    9900012    2    1    2    0    0  0.21612002077E+02  0.21306666118E+02  0.97809835022E+01  0.59301948298E+02  0.50000007788E+02 0.  0.
         12    1    1    2    0    0 -0.21612002077E+02 -0.21306666118E+02 -0.97809835022E+01  0.31886051702E+02  0.00000000000E+00 0. -1.
         11    1    3    3    0    0  0.66903130602E+01  0.12046583717E+02  0.30349527712E+01  0.14109975431E+02  0.51100000000E-03 0. -1.
        -11    1    3    3    0    0 -0.28563535420E+00  0.16792379088E+02  0.18163503727E+02  0.24738198215E+02  0.51100000000E-03 0.  1.
         12    1    3    3    0    0  0.15207324371E+02 -0.75322966868E+01 -0.11417472996E+02  0.20453774652E+02  0.00000000000E+00 0. -1.
</event>
<event>
 7    1  0.3223600E-013  0.5930196E+02  0.7816164E-02  0.1266605E+00
        -11   -1    0    0    0    0  0.00000000000E+00  0.00000000000E+00  0.45593999997E+02  0.45594000000E+02  0.51100000000E-03 0. -1.
         11   -1    0    0    0    0 -0.00000000000E+00 -0.00000000000E+00 -0.45593999997E+02  0.45594000000E+02  0.51100000000E-03 0.  1.
    9900012    2    1    2    0    0 -0.31158983651E+02  0.51757781532E+00 -0.67505339296E+01  0.59301955133E+02  0.50000020253E+02 0.  0.
         12    1    1    2    0    0  0.31158983651E+02 -0.51757781532E+00  0.67505339296E+01  0.31886044867E+02  0.00000000000E+00 0. -1.
         11    1    3    3    0    0 -0.32281643167E+02 -0.33662836085E+01  0.23556257030E+01  0.32542054693E+02  0.51100000000E-03 0. -1.
        -11    1    3    3    0    0 -0.68736611460E+01 -0.76882267462E+01 -0.71717226672E+01  0.12561435202E+02  0.51100000000E-03 0.  1.
         12    1    3    3    0    0  0.79963206623E+01  0.11572088170E+02 -0.19344369653E+01  0.14198465238E+02  0.00000000000E+00 0. -1.
</event>
<event>
 7    1  0.3223600E-013  0.5930180E+02  0.7816164E-02  0.1266605E+00
        -11   -1    0    0    0    0  0.00000000000E+00  0.00000000000E+00  0.45593999997E+02  0.45594000000E+02  0.51100000000E-03 0. -1.
         11   -1    0    0    0    0 -0.00000000000E+00 -0.00000000000E+00 -0.45593999997E+02  0.45594000000E+02  0.51100000000E-03 0.  1.
    9900012    2    1    2    0    0 -0.10508751785E+02 -0.18426174355E+02 -0.23806977501E+02  0.59301796978E+02  0.49999731816E+02 0.  0.
         12    1    1    2    0    0  0.10508751785E+02  0.18426174355E+02  0.23806977501E+02  0.31886203022E+02  0.00000000000E+00 0. -1.
         11    1    3    3    0    0  0.71137090113E+01 -0.11663196934E+02 -0.19611223606E+02  0.23900525312E+02  0.51100000000E-03 0. -1.
        -11    1    3    3    0    0  0.11787186293E+01  0.54728584803E+01 -0.10673486355E+02  0.12052587638E+02  0.51100000000E-03 0.  1.
        -12    1    3    3    0    0 -0.18801179426E+02 -0.12235835901E+02  0.64777324596E+01  0.23348684027E+02  0.00000000000E+00 0.  1.
</event>
<event>
 7    1  0.3223600E-013  0.5930193E+02  0.7816164E-02  0.1266605E+00
        -11   -1    0    0    0    0  0.00000000000E+00  0.00000000000E+00  0.45593999997E+02  0.45594000000E+02  0.51100000000E-03 0.  1.
         11   -1    0    0    0    0 -0.00000000000E+00 -0.00000000000E+00 -0.45593999997E+02  0.45594000000E+02  0.51100000000E-03 0. -1.
    9900012    2    1    2    0    0 -0.27939935775E+02  0.14526347952E+02  0.50066763178E+01  0.59301927748E+02  0.49999970309E+02 0.  0.
         12    1    1    2    0    0  0.27939935775E+02 -0.14526347952E+02 -0.50066763178E+01  0.31886072252E+02  0.00000000000E+00 0. -1.
         11    1    3    3    0    0 -0.16492880882E+00 -0.92040408486E+01  0.14923341647E+01  0.93256973452E+01  0.51100000000E-03 0. -1.
        -11    1    3    3    0    0 -0.23326895484E+02  0.15671081097E+02  0.17593302517E+02  0.33154956332E+02  0.51100000000E-03 0.  1.
         12    1    3    3    0    0 -0.44481114822E+01  0.80593077040E+01 -0.14078960364E+02  0.16821274070E+02  0.00000000000E+00 0. -1.
</event>
<event>
 7    1  0.3223600E-013  0.5930198E+02  0.7816164E-02  0.1266605E+00
        -11   -1    0    0    0    0  0.00000000000E+00  0.00000000000E+00  0.45593999997E+02  0.45594000000E+02  0.51100000000E-03 0.  1.
         11   -1    0    0    0    0 -0.00000000000E+00 -0.00000000000E+00 -0.45593999997E+02  0.45594000000E+02  0.51100000000E-03 0. -1.
    9900012    2    1    2    0    0 -0.24808364063E+02  0.42097272290E+01  0.19584223690E+02  0.59301975657E+02  0.50000057685E+02 0.  0.
         12    1    1    2    0    0  0.24808364063E+02 -0.42097272290E+01 -0.19584223690E+02  0.31886024343E+02  0.00000000000E+00 0. -1.
         11    1    3    3    0    0 -0.26053427542E+02 -0.47014977969E+01  0.74220484999E+01  0.27494944489E+02  0.51100000000E-03 0. -1.
        -11    1    3    3    0    0  0.84954044271E+01 -0.69836357530E+01  0.92829584329E+00  0.11036521107E+02  0.51100000000E-03 0.  1.
         12    1    3    3    0    0 -0.72503409480E+01  0.15894860779E+02  0.11233879347E+02  0.20770510062E+02  0.00000000000E+00 0. -1.
</event>
<event>
 7    1  0.3223600E-013  0.5930195E+02  0.7816164E-02  0.1266605E+00
        -11   -1    0    0    0    0  0.00000000000E+00  0.00000000000E+00  0.45593999997E+02  0.45594000000E+02  0.51100000000E-03 0. -1.
         11   -1    0    0    0    0 -0.00000000000E+00 -0.00000000000E+00 -0.45593999997E+02  0.45594000000E+02  0.51100000000E-03 0.  1.
    9900012    2    1    2    0    0 -0.23618780172E+02 -0.77705809388E+00  0.21407231883E+02  0.59301950182E+02  0.50000011224E+02 0.  0.
         12    1    1    2    0    0  0.23618780172E+02  0.77705809388E+00 -0.21407231883E+02  0.31886049818E+02  0.00000000000E+00 0. -1.
         11    1    3    3    0    0 -0.21861257954E+01 -0.68209807233E+00  0.10849584933E+02  0.11088638205E+02  0.51100000000E-03 0. -1.
        -11    1    3    3    0    0 -0.30201745388E+02  0.37463107023E+01  0.18636851202E+02  0.35686306777E+02  0.51100000000E-03 0.  1.
        -12    1    3    3    0    0  0.87690910112E+01 -0.38412707238E+01 -0.80792042517E+01  0.12527005200E+02  0.00000000000E+00 0.  1.
</event>
<event>
 7    1  0.3223600E-013  0.5930218E+02  0.7816164E-02  0.1266604E+00
        -11   -1    0    0    0    0  0.00000000000E+00  0.00000000000E+00  0.45593999997E+02  0.45594000000E+02  0.51100000000E-03 0. -1.
         11   -1    0    0    0    0 -0.00000000000E+00 -0.00000000000E+00 -0.45593999997E+02  0.45594000000E+02  0.51100000000E-03 0.  1.
    9900012    2    1    2    0    0  0.16144721183E+02  0.68108134818E+01 -0.26639559717E+02  0.59302182709E+02  0.50000435296E+02 0.  0.
         12    1    1    2    0    0 -0.16144721183E+02 -0.68108134818E+01  0.26639559717E+02  0.31885817291E+02  0.00000000000E+00 0. -1.
         11    1    3    3    0    0  0.24484763236E+01  0.63260066546E+01  0.69286051575E+01  0.96963377721E+01  0.51100000000E-03 0. -1.
        -11    1    3    3    0    0 -0.98653608218E+01 -0.56556254876E+01 -0.15785622941E+02  0.19455007985E+02  0.51100000000E-03 0.  1.
         12    1    3    3    0    0  0.23561605681E+02  0.61404323148E+01 -0.17782541934E+02  0.30150836953E+02  0.00000000000E+00 0. -1.
</event>
<event>
 7    1  0.3223600E-013  0.5930192E+02  0.7816164E-02  0.1266605E+00
        -11   -1    0    0    0    0  0.00000000000E+00  0.00000000000E+00  0.45593999997E+02  0.45594000000E+02  0.51100000000E-03 0.  1.
         11   -1    0    0    0    0 -0.00000000000E+00 -0.00000000000E+00 -0.45593999997E+02  0.45594000000E+02  0.51100000000E-03 0. -1.
    9900012    2    1    2    0    0 -0.31126778037E+02 -0.64860238295E+01 -0.24035579184E+01  0.59301922995E+02  0.49999961642E+02 0.  0.
         12    1    1    2    0    0  0.31126778037E+02  0.64860238295E+01  0.24035579184E+01  0.31886077005E+02  0.00000000000E+00 0. -1.
         11    1    3    3    0    0  0.36415089423E+01 -0.60777322828E+01 -0.28354286061E+01  0.76314528577E+01  0.51100000000E-03 0. -1.
        -11    1    3    3    0    0 -0.19356422191E+02 -0.18877023426E+02  0.40717244387E+01  0.27342129282E+02  0.51100000000E-03 0.  1.
        -12    1    3    3    0    0 -0.15411864788E+02  0.18468731880E+02 -0.36398537510E+01  0.24328340856E+02  0.00000000000E+00 0.  1.
</event>
<event>
 7    1  0.3223600E-013  0.5930186E+02  0.7816164E-02  0.1266605E+00
        -11   -1    0    0    0    0  0.00000000000E+00  0.00000000000E+00  0.45593999997E+02  0.45594000000E+02  0.51100000000E-03 0. -1.
         11   -1    0    0    0    0 -0.00000000000E+00 -0.00000000000E+00 -0.45593999997E+02  0.45594000000E+02  0.51100000000E-03 0.  1.
    9900012    2    1    2    0    0 -0.49953667163E+00  0.28792914594E+02 -0.13691037951E+02  0.59301859000E+02  0.49999844929E+02 0.  0.
         12    1    1    2    0    0  0.49953667163E+00 -0.28792914594E+02  0.13691037951E+02  0.31886141000E+02  0.00000000000E+00 0. -1.
         11    1    3    3    0    0  0.26123491542E+01  0.38956098530E+01  0.15499066256E+01  0.49398739903E+01  0.51100000000E-03 0. -1.
        -11    1    3    3    0    0  0.17360023918E+02  0.82758730161E+01 -0.19798138122E+02  0.27601209719E+02  0.51100000000E-03 0.  1.
         12    1    3    3    0    0 -0.20471909744E+02  0.16621431725E+02  0.45571935453E+01  0.26760775291E+02  0.00000000000E+00 0. -1.
</event>
<event>
 7    1  0.3223600E-013  0.5930200E+02  0.7816164E-02  0.1266605E+00
        -11   -1    0    0    0    0  0.00000000000E+00  0.00000000000E+00  0.45593999997E+02  0.45594000000E+02  0.51100000000E-03 0.  1.
         11   -1    0    0    0    0 -0.00000000000E+00 -0.00000000000E+00 -0.45593999997E+02  0.45594000000E+02  0.51100000000E-03 0. -1.
    9900012    2    1    2    0    0 -0.83645799630E+01 -0.46061776050E+01  0.30422588906E+02  0.59302000159E+02  0.50000102371E+02 0.  0.
         12    1    1    2    0    0  0.83645799630E+01  0.46061776050E+01 -0.30422588906E+02  0.31885999841E+02  0.00000000000E+00 0. -1.
         11    1    3    3    0    0 -0.28835428393E+01  0.10305906609E+02 -0.34793960893E+01  0.11253120800E+02  0.51100000000E-03 0. -1.
        -11    1    3    3    0    0  0.82059840164E+01 -0.10355328365E+02  0.24380102699E+01  0.13435583112E+02  0.51100000000E-03 0.  1.
        -12    1    3    3    0    0 -0.13687021140E+02 -0.45567558486E+01  0.31463974725E+02  0.34613296247E+02  0.00000000000E+00 0.  1.
</event>
<event>
 7    1  0.3223600E-013  0.5930201E+02  0.7816164E-02  0.1266605E+00
        -11   -1    0    0    0    0  0.00000000000E+00  0.00000000000E+00  0.45593999997E+02  0.45594000000E+02  0.51100000000E-03 0.  1.
         11   -1    0    0    0    0 -0.00000000000E+00 -0.00000000000E+00 -0.45593999997E+02  0.45594000000E+02  0.51100000000E-03 0. -1.
    9900012    2    1    2    0    0 -0.29402066407E+02 -0.96604723945E+01  0.76752736335E+01  0.59302014658E+02  0.50000128812E+02 0.  0.
         12    1    1    2    0    0  0.29402066407E+02  0.96604723945E+01 -0.76752736335E+01  0.31885985342E+02  0.00000000000E+00 0. -1.
         11    1    3    3    0    0 -0.13415440052E+01  0.11751084936E+02 -0.56021183594E+01  0.13087072548E+02  0.51100000000E-03 0. -1.
        -11    1    3    3    0    0 -0.17954997992E+02  0.16349662901E+01  0.10584286987E+02  0.20906510922E+02  0.51100000000E-03 0.  1.
         12    1    3    3    0    0 -0.10105524410E+02 -0.23046523621E+02  0.26931050062E+01  0.25308431188E+02  0.00000000000E+00 0. -1.
</event>
<event>
 7    1  0.3223600E-013  0.5930193E+02  0.7816164E-02  0.1266605E+00
        -11   -1    0    0    0    0  0.00000000000E+00  0.00000000000E+00  0.45593999997E+02  0.45594000000E+02  0.51100000000E-03 0.  1.
         11   -1    0    0    0    0 -0.00000000000E+00 -0.00000000000E+00 -0.45593999997E+02  0.45594000000E+02  0.51100000000E-03 0. -1.
    9900012    2    1    2    0    0 -0.22611108928E+02  0.17111817547E+02  0.14582339016E+02  0.59301934738E+02  0.49999983058E+02 0.  0.
         12    1    1    2    0    0  0.22611108928E+02 -0.17111817547E+02 -0.14582339016E+02  0.31886065262E+02  0.00000000000E+00 0. -1.
         11    1    3    3    0    0 -0.53630217032E+00  0.21756763225E+00  0.16789198424E+02  0.16799170803E+02  0.51100000000E-03 0. -1.
        -11    1    3    3    0    0 -0.25125316194E+02  0.11028408349E+02  0.95173015433E+01  0.29042836182E+02  0.51100000000E-03 0.  1.
         12    1    3    3    0    0  0.30505094367E+01  0.58658415656E+01 -0.11724160952E+02  0.13459927753E+02  0.00000000000E+00 0. -1.
</event>
<event>
 7    1  0.3223600E-013  0.5930195E+02  0.7816164E-02  0.1266605E+00
        -11   -1    0    0    0    0  0.00000000000E+00  0.00000000000E+00  0.45593999997E+02  0.45594000000E+02  0.51100000000E-03 0.  1.
         11   -1    0    0    0    0 -0.00000000000E+00 -0.00000000000E+00 -0.45593999997E+02  0.45594000000E+02  0.51100000000E-03 0. -1.
    9900012    2    1    2    0    0 -0.23130494570E+02  0.26473119812E+01  0.21787435671E+02  0.59301946734E+02  0.50000004935E+02 0.  0.
         12    1    1    2    0    0  0.23130494570E+02 -0.26473119812E+01 -0.21787435671E+02  0.31886053266E+02  0.00000000000E+00 0. -1.
         11    1    3    3    0    0 -0.31034044541E+02  0.36002065050E+01  0.12105867676E+02  0.33505603113E+02  0.51100000000E-03 0. -1.
        -11    1    3    3    0    0 -0.58448437685E+01 -0.57701847222E+01  0.73915197889E+01  0.11049515621E+02  0.51100000000E-03 0.  1.
         12    1    3    3    0    0  0.13748393740E+02  0.48172901984E+01  0.22900482059E+01  0.14746828000E+02  0.00000000000E+00 0. -1.
</event>
<event>
 7    1  0.3223600E-013  0.5930197E+02  0.7816164E-02  0.1266605E+00
        -11   -1    0    0    0    0  0.00000000000E+00  0.00000000000E+00  0.45593999997E+02  0.45594000000E+02  0.51100000000E-03 0.  1.
         11   -1    0    0    0    0 -0.00000000000E+00 -0.00000000000E+00 -0.45593999997E+02  0.45594000000E+02  0.51100000000E-03 0. -1.
    9900012    2    1    2    0    0 -0.10381697290E+02 -0.13932974650E+02  0.26735957082E+02  0.59301971361E+02  0.50000049850E+02 0.  0.
         12    1    1    2    0    0  0.10381697290E+02  0.13932974650E+02 -0.26735957082E+02  0.31886028639E+02  0.00000000000E+00 0. -1.
         11    1    3    3    0    0  0.15693495457E+01  0.62617173172E+00  0.20004937510E+02  0.20076166817E+02  0.51100000000E-03 0. -1.
        -11    1    3    3    0    0  0.11275571240E+02 -0.90256170920E+00 -0.51874609749E+00  0.11323525167E+02  0.51100000000E-03 0.  1.
         12    1    3    3    0    0 -0.23226618076E+02 -0.13656584673E+02  0.72497656701E+01  0.27902279377E+02  0.00000000000E+00 0. -1.
</event>
<event>
 7    1  0.3223600E-013  0.5930194E+02  0.7816164E-02  0.1266605E+00
        -11   -1    0    0    0    0  0.00000000000E+00  0.00000000000E+00  0.45593999997E+02  0.45594000000E+02  0.51100000000E-03 0.  1.
         11   -1    0    0    0    0 -0.00000000000E+00 -0.00000000000E+00 -0.45593999997E+02  0.45594000000E+02  0.51100000000E-03 0. -1.
    9900012    2    1    2    0    0  0.14677892205E+01  0.25010244679E+02  0.19724455752E+02  0.59301938801E+02  0.49999990467E+02 0.  0.
         12    1    1    2    0    0 -0.14677892205E+01 -0.25010244679E+02 -0.19724455752E+02  0.31886061199E+02  0.00000000000E+00 0. -1.
         11    1    3    3    0    0  0.35186355005E+01  0.21334833174E+02 -0.96691782503E+01  0.23686471047E+02  0.51100000000E-03 0. -1.
        -11    1    3    3    0    0  0.42770508663E+01 -0.41832996915E+01  0.18194343447E+01  0.62532793011E+01  0.51100000000E-03 0.  1.
        -12    1    3    3    0    0 -0.63278971464E+01  0.78587111964E+01  0.27574199657E+02  0.29362188452E+02  0.00000000000E+00 0.  1.
</event>
<event>
 7    1  0.3223600E-013  0.5930194E+02  0.7816164E-02  0.1266605E+00
        -11   -1    0    0    0    0  0.00000000000E+00  0.00000000000E+00  0.45593999997E+02  0.45594000000E+02  0.51100000000E-03 0. -1.
         11   -1    0    0    0    0 -0.00000000000E+00 -0.00000000000E+00 -0.45593999997E+02  0.45594000000E+02  0.51100000000E-03 0.  1.
    9900012    2    1    2    0    0 -0.30024661724E+02  0.65061627459E+01  0.85387459769E+01  0.59301942730E+02  0.49999997634E+02 0.  0.
         12    1    1    2    0    0  0.30024661724E+02 -0.65061627459E+01 -0.85387459769E+01  0.31886057270E+02  0.00000000000E+00 0. -1.
         11    1    3    3    0    0 -0.10060285625E+02 -0.10645761611E+02  0.80286499778E+01  0.16703317271E+02  0.51100000000E-03 0. -1.
        -11    1    3    3    0    0  0.39206451666E+01 -0.70921613624E+01  0.25741364848E+01  0.85027283983E+01  0.51100000000E-03 0.  1.
        -12    1    3    3    0    0 -0.23885021266E+02  0.24244085719E+02 -0.20640404856E+01  0.34095897061E+02  0.00000000000E+00 0.  1.
</event>
<event>
 7    1  0.3223600E-013  0.5930211E+02  0.7816164E-02  0.1266604E+00
        -11   -1    0    0    0    0  0.00000000000E+00  0.00000000000E+00  0.45593999997E+02  0.45594000000E+02  0.51100000000E-03 0.  1.
         11   -1    0    0    0    0 -0.00000000000E+00 -0.00000000000E+00 -0.45593999997E+02  0.45594000000E+02  0.51100000000E-03 0. -1.
    9900012    2    1    2    0    0 -0.76345934277E+01 -0.25630170029E+02  0.17364261478E+02  0.59302106423E+02  0.50000296169E+02 0.  0.
         12    1    1    2    0    0  0.76345934277E+01  0.25630170029E+02 -0.17364261478E+02  0.31885893577E+02  0.00000000000E+00 0. -1.
         11    1    3    3    0    0  0.12119009381E+02  0.56551112940E+00 -0.10275912719E+01  0.12175636956E+02  0.51100000000E-03 0. -1.
        -11    1    3    3    0    0 -0.23075144719E+00 -0.39904567715E+00  0.14539252160E+02  0.14546557576E+02  0.51100000000E-03 0.  1.
         12    1    3    3    0    0 -0.19522851361E+02 -0.25796635482E+02  0.38526005896E+01  0.32579911890E+02  0.00000000000E+00 0. -1.
</event>
<event>
 7    1  0.3223600E-013  0.5930198E+02  0.7816164E-02  0.1266605E+00
        -11   -1    0    0    0    0  0.00000000000E+00  0.00000000000E+00  0.45593999997E+02  0.45594000000E+02  0.51100000000E-03 0.  1.
         11   -1    0    0    0    0 -0.00000000000E+00 -0.00000000000E+00 -0.45593999997E+02  0.45594000000E+02  0.51100000000E-03 0. -1.
    9900012    2    1    2    0    0  0.36889560214E+01  0.29715882263E+02  0.10957925224E+02  0.59301981427E+02  0.50000068207E+02 0.  0.
         12    1    1    2    0    0 -0.36889560214E+01 -0.29715882263E+02 -0.10957925224E+02  0.31886018573E+02  0.00000000000E+00 0. -1.
         11    1    3    3    0    0 -0.71685433601E+01  0.10805351310E+02  0.13221010593E+02  0.18518605569E+02  0.51100000000E-03 0. -1.
        -11    1    3    3    0    0  0.96956998711E+01  0.50953687410E+01  0.15043482098E+02  0.18608485497E+02  0.51100000000E-03 0.  1.
         12    1    3    3    0    0  0.11617995104E+01  0.13815162212E+02 -0.17306567467E+02  0.22174890361E+02  0.00000000000E+00 0. -1.
</event>
<event>
 7    1  0.3223600E-013  0.5930195E+02  0.7816164E-02  0.1266605E+00
        -11   -1    0    0    0    0  0.00000000000E+00  0.00000000000E+00  0.45593999997E+02  0.45594000000E+02  0.51100000000E-03 0. -1.
         11   -1    0    0    0    0 -0.00000000000E+00 -0.00000000000E+00 -0.45593999997E+02  0.45594000000E+02  0.51100000000E-03 0.  1.
    9900012    2    1    2    0    0 -0.26375284350E+02  0.10110259472E+02 -0.14793487130E+02  0.59301949247E+02  0.50000009519E+02 0.  0.
         12    1    1    2    0    0  0.26375284350E+02 -0.10110259472E+02  0.14793487130E+02  0.31886050753E+02  0.00000000000E+00 0. -1.
         11    1    3    3    0    0 -0.32145521116E+02 -0.35576982000E+00  0.49015139347E+01  0.32519008888E+02  0.51100000000E-03 0. -1.
        -11    1    3    3    0    0 -0.11986758934E+01 -0.13784701940E+01  0.89012554485E+00  0.20320747328E+01  0.51100000000E-03 0.  1.
        -12    1    3    3    0    0  0.69689126587E+01  0.11844499486E+02 -0.20585126609E+02  0.24750865626E+02  0.00000000000E+00 0.  1.
</event>
<event>
 7    1  0.3223600E-013  0.5930194E+02  0.7816164E-02  0.1266605E+00
        -11   -1    0    0    0    0  0.00000000000E+00  0.00000000000E+00  0.45593999997E+02  0.45594000000E+02  0.51100000000E-03 0.  1.
         11   -1    0    0    0    0 -0.00000000000E+00 -0.00000000000E+00 -0.45593999997E+02  0.45594000000E+02  0.51100000000E-03 0. -1.
    9900012    2    1    2    0    0 -0.99441135753E+01 -0.28864398721E+02  0.92022764587E+01  0.59301940344E+02  0.49999993283E+02 0.  0.
         12    1    1    2    0    0  0.99441135753E+01  0.28864398721E+02 -0.92022764587E+01  0.31886059656E+02  0.00000000000E+00 0. -1.
         11    1    3    3    0    0 -0.36266780634E+00 -0.10669973484E+02 -0.15604760509E+00  0.10677275552E+02  0.51100000000E-03 0. -1.
        -11    1    3    3    0    0 -0.16186527669E+02 -0.12766687711E+02 -0.13214573394E+02  0.24487077068E+02  0.51100000000E-03 0.  1.
        -12    1    3    3    0    0  0.66050819000E+01 -0.54277375263E+01  0.22572897457E+02  0.24137587725E+02  0.00000000000E+00 0.  1.
</event>
<event>
 7    1  0.3223600E-013  0.5930213E+02  0.7816164E-02  0.1266604E+00
        -11   -1    0    0    0    0  0.00000000000E+00  0.00000000000E+00  0.45593999997E+02  0.45594000000E+02  0.51100000000E-03 0.  1.
         11   -1    0    0    0    0 -0.00000000000E+00 -0.00000000000E+00 -0.45593999997E+02  0.45594000000E+02  0.51100000000E-03 0. -1.
    9900012    2    1    2    0    0 -0.30074363839E+02  0.82104015752E+01 -0.66955776217E+01  0.59302128300E+02  0.50000336068E+02 0.  0.
         12    1    1    2    0    0  0.30074363839E+02 -0.82104015752E+01  0.66955776217E+01  0.31885871700E+02  0.00000000000E+00 0. -1.
         11    1    3    3    0    0  0.60082307628E+00 -0.13378625889E+02  0.64878529221E+01  0.14880888913E+02  0.51100000000E-03 0.  1.
        -11    1    3    3    0    0 -0.18174476848E+01  0.41520003872E+01  0.44672452656E+01  0.63638434791E+01  0.51100000000E-03 0. -1.
         12    1    3    3    0    0 -0.28857739230E+02  0.17437027077E+02 -0.17650675809E+02  0.38057395908E+02  0.00000000000E+00 0. -1.
</event>
<event>
 7    1  0.3223600E-013  0.5930196E+02  0.7816164E-02  0.1266605E+00
        -11   -1    0    0    0    0  0.00000000000E+00  0.00000000000E+00  0.45593999997E+02  0.45594000000E+02  0.51100000000E-03 0. -1.
         11   -1    0    0    0    0 -0.00000000000E+00 -0.00000000000E+00 -0.45593999997E+02  0.45594000000E+02  0.51100000000E-03 0.  1.
    9900012    2    1    2    0    0  0.31668556583E+02  0.33464709315E+01 -0.16196026699E+01  0.59301961416E+02  0.50000031712E+02 0.  0.
         12    1    1    2    0    0 -0.31668556583E+02 -0.33464709315E+01  0.16196026699E+01  0.31886038584E+02  0.00000000000E+00 0. -1.
         11    1    3    3    0    0 -0.15230706483E+01 -0.15955420166E+02 -0.63030253407E+01  0.17222755459E+02  0.51100000000E-03 0. -1.
        -11    1    3    3    0    0  0.45241477147E+01 -0.30360008478E+01  0.10849049238E+00  0.54494939344E+01  0.51100000000E-03 0.  1.
        -12    1    3    3    0    0  0.28667479517E+02  0.22337891946E+02  0.45749321783E+01  0.36629712023E+02  0.00000000000E+00 0.  1.
</event>
<event>
 7    1  0.3223600E-013  0.5930194E+02  0.7816164E-02  0.1266605E+00
        -11   -1    0    0    0    0  0.00000000000E+00  0.00000000000E+00  0.45593999997E+02  0.45594000000E+02  0.51100000000E-03 0. -1.
         11   -1    0    0    0    0 -0.00000000000E+00 -0.00000000000E+00 -0.45593999997E+02  0.45594000000E+02  0.51100000000E-03 0.  1.
    9900012    2    1    2    0    0  0.98965292756E+01 -0.15736072573E+02 -0.25906665796E+02  0.59301943417E+02  0.49999998887E+02 0.  0.
         12    1    1    2    0    0 -0.98965292756E+01  0.15736072573E+02  0.25906665796E+02  0.31886056583E+02  0.00000000000E+00 0. -1.
         11    1    3    3    0    0  0.63680595276E+00  0.48071987049E+01 -0.29781245275E+01  0.56906860019E+01  0.51100000000E-03 0. -1.
        -11    1    3    3    0    0  0.99968989160E+01  0.27838580657E+01 -0.27883818995E+02  0.29752230432E+02  0.51100000000E-03 0.  1.
         12    1    3    3    0    0 -0.73717559321E+00 -0.23327129344E+02  0.49552777263E+01  0.23859026984E+02  0.00000000000E+00 0. -1.
</event>
<event>
 7    1  0.3223600E-013  0.5930193E+02  0.7816164E-02  0.1266605E+00
        -11   -1    0    0    0    0  0.00000000000E+00  0.00000000000E+00  0.45593999997E+02  0.45594000000E+02  0.51100000000E-03 0.  1.
         11   -1    0    0    0    0 -0.00000000000E+00 -0.00000000000E+00 -0.45593999997E+02  0.45594000000E+02  0.51100000000E-03 0. -1.
    9900012    2    1    2    0    0  0.44682357897E-01  0.86969556339E+01  0.30677064933E+02  0.59301931777E+02  0.49999977657E+02 0.  0.
         12    1    1    2    0    0 -0.44682357897E-01 -0.86969556339E+01 -0.30677064933E+02  0.31886068223E+02  0.00000000000E+00 0. -1.
         11    1    3    3    0    0 -0.14424621543E+02 -0.77386410014E+00  0.11576534004E+02  0.18511745248E+02  0.51100000000E-03 0. -1.
        -11    1    3    3    0    0  0.10059036217E+02 -0.69695193960E+01  0.20324823008E+02  0.23724604123E+02  0.51100000000E-03 0.  1.
        -12    1    3    3    0    0  0.44102676839E+01  0.16440339130E+02 -0.12242920792E+01  0.17065582406E+02  0.00000000000E+00 0.  1.
</event>
<event>
 7    1  0.3223600E-013  0.5930194E+02  0.7816164E-02  0.1266605E+00
        -11   -1    0    0    0    0  0.00000000000E+00  0.00000000000E+00  0.45593999997E+02  0.45594000000E+02  0.51100000000E-03 0. -1.
         11   -1    0    0    0    0 -0.00000000000E+00 -0.00000000000E+00 -0.45593999997E+02  0.45594000000E+02  0.51100000000E-03 0.  1.
    9900012    2    1    2    0    0  0.29714869155E+02  0.10780226698E+02 -0.41873918943E+01  0.59301937411E+02  0.49999987933E+02 0.  0.
         12    1    1    2    0    0 -0.29714869155E+02 -0.10780226698E+02  0.41873918943E+01  0.31886062589E+02  0.00000000000E+00 0. -1.
         11    1    3    3    0    0  0.30844576845E+01  0.11274825406E+02  0.19516293980E+02  0.22749094446E+02  0.51100000000E-03 0. -1.
        -11    1    3    3    0    0  0.12124155089E+02  0.35736502715E+01 -0.91374902753E+01  0.15596789467E+02  0.51100000000E-03 0.  1.
        -12    1    3    3    0    0  0.14506256381E+02 -0.40682489792E+01 -0.14566195599E+02  0.20956053498E+02  0.00000000000E+00 0.  1.
</event>
<event>
 7    1  0.3223600E-013  0.5930190E+02  0.7816164E-02  0.1266605E+00
        -11   -1    0    0    0    0  0.00000000000E+00  0.00000000000E+00  0.45593999997E+02  0.45594000000E+02  0.51100000000E-03 0.  1.
         11   -1    0    0    0    0 -0.00000000000E+00 -0.00000000000E+00 -0.45593999997E+02  0.45594000000E+02  0.51100000000E-03 0. -1.
    9900012    2    1    2    0    0 -0.27233260366E+02 -0.16582088316E+02  0.32704089175E+00  0.59301904616E+02  0.49999928123E+02 0.  0.
         12    1    1    2    0    0  0.27233260366E+02  0.16582088316E+02 -0.32704089175E+00  0.31886095384E+02  0.00000000000E+00 0. -1.
         11    1    3    3    0    0 -0.12494083732E+02 -0.11530980018E+02  0.77199795413E+01  0.18672539004E+02  0.51100000000E-03 0. -1.
        -11    1    3    3    0    0  0.79196257202E+01 -0.13535372055E+02 -0.41170611667E+01  0.16213480846E+02  0.51100000000E-03 0.  1.
         12    1    3    3    0    0 -0.22658802355E+02  0.84842637573E+01 -0.32758774828E+01  0.24415884767E+02  0.00000000000E+00 0. -1.
</event>
<event>
 7    1  0.3223600E-013  0.5930206E+02  0.7816164E-02  0.1266604E+00
        -11   -1    0    0    0    0  0.00000000000E+00  0.00000000000E+00  0.45593999997E+02  0.45594000000E+02  0.51100000000E-03 0.  1.
         11   -1    0    0    0    0 -0.00000000000E+00 -0.00000000000E+00 -0.45593999997E+02  0.45594000000E+02  0.51100000000E-03 0. -1.
    9900012    2    1    2    0    0 -0.14542989682E+02 -0.12312401958E+02  0.25565986619E+02  0.59302055405E+02  0.50000203126E+02 0.  0.
         12    1    1    2    0    0  0.14542989682E+02  0.12312401958E+02 -0.25565986619E+02  0.31885944595E+02  0.00000000000E+00 0. -1.
         11    1    3    3    0    0 -0.66243542132E+00  0.30366174187E+01 -0.24919455975E+01  0.39836740776E+01  0.51100000000E-03 0. -1.
        -11    1    3    3    0    0  0.15541228698E+02 -0.66293276022E+01  0.11621750653E+02  0.20507141741E+02  0.51100000000E-03 0.  1.
        -12    1    3    3    0    0 -0.29421782959E+02 -0.87196917745E+01  0.16436181564E+02  0.34811239586E+02  0.00000000000E+00 0.  1.
</event>
<event>
 7    1  0.3223600E-013  0.5930194E+02  0.7816164E-02  0.1266605E+00
        -11   -1    0    0    0    0  0.00000000000E+00  0.00000000000E+00  0.45593999997E+02  0.45594000000E+02  0.51100000000E-03 0. -1.
         11   -1    0    0    0    0 -0.00000000000E+00 -0.00000000000E+00 -0.45593999997E+02  0.45594000000E+02  0.51100000000E-03 0.  1.
    9900012    2    1    2    0    0 -0.22101374882E+02 -0.22481417398E+02 -0.47786755500E+01  0.59301942861E+02  0.49999997871E+02 0.  0.
         12    1    1    2    0    0  0.22101374882E+02  0.22481417398E+02  0.47786755500E+01  0.31886057139E+02  0.00000000000E+00 0. -1.
         11    1    3    3    0    0  0.16491437982E+01 -0.21214471397E+02  0.68228266231E+01  0.22345568584E+02  0.51100000000E-03 0. -1.
        -11    1    3    3    0    0  0.35857982895E+01  0.27992251322E+01 -0.78404440586E+01  0.90645559191E+01  0.51100000000E-03 0.  1.
         12    1    3    3    0    0 -0.27336316970E+02 -0.40661711323E+01 -0.37610581146E+01  0.27891818358E+02  0.00000000000E+00 0. -1.
</event>
<event>
 7    1  0.3223600E-013  0.5930191E+02  0.7816164E-02  0.1266605E+00
        -11   -1    0    0    0    0  0.00000000000E+00  0.00000000000E+00  0.45593999997E+02  0.45594000000E+02  0.51100000000E-03 0.  1.
         11   -1    0    0    0    0 -0.00000000000E+00 -0.00000000000E+00 -0.45593999997E+02  0.45594000000E+02  0.51100000000E-03 0. -1.
    9900012    2    1    2    0    0 -0.24666697758E+02 -0.19533024463E+02  0.51708414906E+01  0.59301911738E+02  0.49999941111E+02 0.  0.
         12    1    1    2    0    0  0.24666697758E+02  0.19533024463E+02 -0.51708414906E+01  0.31886088262E+02  0.00000000000E+00 0. -1.
         11    1    3    3    0    0 -0.23939433209E+02 -0.80029202261E+01 -0.10607689164E+02  0.27380034042E+02  0.51100000000E-03 0. -1.
        -11    1    3    3    0    0  0.83564639007E+01  0.33551322387E+01  0.99321338065E+00  0.90594632481E+01  0.51100000000E-03 0.  1.
        -12    1    3    3    0    0 -0.90837284498E+01 -0.14885236475E+02  0.14785317274E+02  0.22862414447E+02  0.00000000000E+00 0.  1.
</event>
<event>
 7    1  0.3223600E-013  0.5930194E+02  0.7816164E-02  0.1266605E+00
        -11   -1    0    0    0    0  0.00000000000E+00  0.00000000000E+00  0.45593999997E+02  0.45594000000E+02  0.51100000000E-03 0. -1.
         11   -1    0    0    0    0 -0.00000000000E+00 -0.00000000000E+00 -0.45593999997E+02  0.45594000000E+02  0.51100000000E-03 0.  1.
    9900012    2    1    2    0    0  0.36519301310E-01 -0.30228121112E+02 -0.10147917789E+02  0.59301939172E+02  0.49999991145E+02 0.  0.
         12    1    1    2    0    0 -0.36519301310E-01  0.30228121112E+02  0.10147917789E+02  0.31886060828E+02  0.00000000000E+00 0. -1.
         11    1    3    3    0    0  0.17725392581E+02 -0.26937536076E+01 -0.49006441047E+01  0.18586612482E+02  0.51100000000E-03 0. -1.
        -11    1    3    3    0    0  0.34900397649E+01 -0.15401336500E+02 -0.39203170371E+01  0.16271153293E+02  0.51100000000E-03 0.  1.
         12    1    3    3    0    0 -0.21178913045E+02 -0.12133031004E+02 -0.13269566477E+01  0.24444173397E+02  0.00000000000E+00 0. -1.
</event>
<event>
 7    1  0.3223600E-013  0.5930193E+02  0.7816164E-02  0.1266605E+00
        -11   -1    0    0    0    0  0.00000000000E+00  0.00000000000E+00  0.45593999997E+02  0.45594000000E+02  0.51100000000E-03 0. -1.
         11   -1    0    0    0    0 -0.00000000000E+00 -0.00000000000E+00 -0.45593999997E+02  0.45594000000E+02  0.51100000000E-03 0.  1.
    9900012    2    1    2    0    0 -0.17352511399E+02  0.26448111105E+02 -0.40136558301E+01  0.59301926771E+02  0.49999968527E+02 0.  0.
         12    1    1    2    0    0  0.17352511399E+02 -0.26448111105E+02  0.40136558301E+01  0.31886073229E+02  0.00000000000E+00 0. -1.
         11    1    3    3    0    0 -0.22754796503E+01  0.23322968689E+02 -0.12223363736E+01  0.23465565890E+02  0.51100000000E-03 0. -1.
        -11    1    3    3    0    0 -0.15199899851E+02  0.10110266324E+02  0.10326941042E+02  0.20973796799E+02  0.51100000000E-03 0.  1.
         12    1    3    3    0    0  0.12286810157E+00 -0.69851239080E+01 -0.13118260498E+02  0.14862564081E+02  0.00000000000E+00 0. -1.
</event>
<event>
 7    1  0.3223600E-013  0.5930193E+02  0.7816164E-02  0.1266605E+00
        -11   -1    0    0    0    0  0.00000000000E+00  0.00000000000E+00  0.45593999997E+02  0.45594000000E+02  0.51100000000E-03 0.  1.
         11   -1    0    0    0    0 -0.00000000000E+00 -0.00000000000E+00 -0.45593999997E+02  0.45594000000E+02  0.51100000000E-03 0. -1.
    9900012    2    1    2    0    0  0.19452671999E+02 -0.16250541166E+02  0.19345144937E+02  0.59301934568E+02  0.49999982748E+02 0.  0.
         12    1    1    2    0    0 -0.19452671999E+02  0.16250541166E+02 -0.19345144937E+02  0.31886065432E+02  0.00000000000E+00 0. -1.
         11    1    3    3    0    0  0.28506030602E+01 -0.32940808821E+00 -0.85939198577E+01  0.90603480218E+01  0.51100000000E-03 0. -1.
        -11    1    3    3    0    0  0.25572474321E+02 -0.28488350377E+01  0.15047275451E+02  0.29807512521E+02  0.51100000000E-03 0.  1.
         12    1    3    3    0    0 -0.89704053823E+01 -0.13072298040E+02  0.12891789344E+02  0.20434074025E+02  0.00000000000E+00 0. -1.
</event>
<event>
 7    1  0.3223600E-013  0.5930192E+02  0.7816164E-02  0.1266605E+00
        -11   -1    0    0    0    0  0.00000000000E+00  0.00000000000E+00  0.45593999997E+02  0.45594000000E+02  0.51100000000E-03 0. -1.
         11   -1    0    0    0    0 -0.00000000000E+00 -0.00000000000E+00 -0.45593999997E+02  0.45594000000E+02  0.51100000000E-03 0.  1.
    9900012    2    1    2    0    0 -0.67835184576E+01  0.14502797779E+02 -0.27574894804E+02  0.59301920129E+02  0.49999956414E+02 0.  0.
         12    1    1    2    0    0  0.67835184576E+01 -0.14502797779E+02  0.27574894804E+02  0.31886079871E+02  0.00000000000E+00 0. -1.
         11    1    3    3    0    0  0.24547613746E+01  0.40189065184E+01  0.27934148475E+01  0.54754570385E+01  0.51100000000E-03 0. -1.
        -11    1    3    3    0    0  0.87721966151E+01 -0.11059391176E+02 -0.18673076040E+02  0.23408232221E+02  0.51100000000E-03 0.  1.
        -12    1    3    3    0    0 -0.18010476447E+02  0.21543282437E+02 -0.11695233611E+02  0.30418230869E+02  0.00000000000E+00 0.  1.
</event>
<event>
 7    1  0.3223600E-013  0.5930198E+02  0.7816164E-02  0.1266605E+00
        -11   -1    0    0    0    0  0.00000000000E+00  0.00000000000E+00  0.45593999997E+02  0.45594000000E+02  0.51100000000E-03 0.  1.
         11   -1    0    0    0    0 -0.00000000000E+00 -0.00000000000E+00 -0.45593999997E+02  0.45594000000E+02  0.51100000000E-03 0. -1.
    9900012    2    1    2    0    0 -0.29728594336E+02 -0.17058232686E+01  0.11402586391E+02  0.59301982208E+02  0.50000069632E+02 0.  0.
         12    1    1    2    0    0  0.29728594336E+02  0.17058232686E+01 -0.11402586391E+02  0.31886017792E+02  0.00000000000E+00 0. -1.
         11    1    3    3    0    0 -0.27054346084E+02 -0.10475651724E+02  0.51630907847E+01  0.29467514789E+02  0.51100000000E-03 0. -1.
        -11    1    3    3    0    0  0.18664441918E+01 -0.98387827947E+01  0.24268210627E+01  0.10304111875E+02  0.51100000000E-03 0.  1.
         12    1    3    3    0    0 -0.45406924431E+01  0.18608611250E+02  0.38126745436E+01  0.19530355545E+02  0.00000000000E+00 0. -1.
</event>
<event>
 7    1  0.3223600E-013  0.5930195E+02  0.7816164E-02  0.1266605E+00
        -11   -1    0    0    0    0  0.00000000000E+00  0.00000000000E+00  0.45593999997E+02  0.45594000000E+02  0.51100000000E-03 0.  1.
         11   -1    0    0    0    0 -0.00000000000E+00 -0.00000000000E+00 -0.45593999997E+02  0.45594000000E+02  0.51100000000E-03 0. -1.
    9900012    2    1    2    0    0 -0.25750857021E+02  0.20988951675E+01  0.18687114153E+02  0.59301949232E+02  0.50000009491E+02 0.  0.
         12    1    1    2    0    0  0.25750857021E+02 -0.20988951675E+01 -0.18687114153E+02  0.31886050768E+02  0.00000000000E+00 0. -1.
         11    1    3    3    0    0 -0.11106953980E+02 -0.54241235820E+01 -0.18463470716E+01  0.12497781448E+02  0.51100000000E-03 0. -1.
        -11    1    3    3    0    0 -0.25806159728E+02 -0.35954900071E+01  0.15232555206E+02  0.30181387753E+02  0.51100000000E-03 0.  1.
         12    1    3    3    0    0  0.11162256688E+02  0.11118508757E+02  0.53009060186E+01  0.16622780031E+02  0.00000000000E+00 0. -1.
</event>
<event>
 7    1  0.3223600E-013  0.5930195E+02  0.7816164E-02  0.1266605E+00
        -11   -1    0    0    0    0  0.00000000000E+00  0.00000000000E+00  0.45593999997E+02  0.45594000000E+02  0.51100000000E-03 0.  1.
         11   -1    0    0    0    0 -0.00000000000E+00 -0.00000000000E+00 -0.45593999997E+02  0.45594000000E+02  0.51100000000E-03 0. -1.
    9900012    2    1    2    0    0  0.19283907637E+02  0.18932177410E+02  0.16924061066E+02  0.59301948532E+02  0.50000008215E+02 0.  0.
         12    1    1    2    0    0 -0.19283907637E+02 -0.18932177410E+02 -0.16924061066E+02  0.31886051468E+02  0.00000000000E+00 0. -1.
         11    1    3    3    0    0  0.12020067447E+02 -0.60402387888E+01  0.48541610093E+01  0.14301377046E+02  0.51100000000E-03 0. -1.
        -11    1    3    3    0    0  0.14384954168E+00 -0.67662544359E+01  0.10428018034E+02  0.12431671334E+02  0.51100000000E-03 0.  1.
         12    1    3    3    0    0  0.71199906486E+01  0.31738670635E+02  0.16418820222E+01  0.32568900152E+02  0.00000000000E+00 0. -1.
</event>
<event>
 7    1  0.3223600E-013  0.5930193E+02  0.7816164E-02  0.1266605E+00
        -11   -1    0    0    0    0  0.00000000000E+00  0.00000000000E+00  0.45593999997E+02  0.45594000000E+02  0.51100000000E-03 0.  1.
         11   -1    0    0    0    0 -0.00000000000E+00 -0.00000000000E+00 -0.45593999997E+02  0.45594000000E+02  0.51100000000E-03 0. -1.
    9900012    2    1    2    0    0  0.13904804451E+02 -0.12862993566E+02  0.25649972186E+02  0.59301933083E+02  0.49999980040E+02 0.  0.
         12    1    1    2    0    0 -0.13904804451E+02  0.12862993566E+02 -0.25649972186E+02  0.31886066917E+02  0.00000000000E+00 0. -1.
         11    1    3    3    0    0  0.85796203457E+01  0.11171448997E+02 -0.40576587150E+01  0.14658640881E+02  0.51100000000E-03 0. -1.
        -11    1    3    3    0    0  0.26705324033E+01 -0.85946278284E+01 -0.20510684026E+01  0.92307233021E+01  0.51100000000E-03 0.  1.
         12    1    3    3    0    0  0.26546517018E+01 -0.15439814734E+02  0.31758699303E+02  0.35412568900E+02  0.00000000000E+00 0. -1.
</event>
<event>
 7    1  0.3223600E-013  0.5930195E+02  0.7816164E-02  0.1266605E+00
        -11   -1    0    0    0    0  0.00000000000E+00  0.00000000000E+00  0.45593999997E+02  0.45594000000E+02  0.51100000000E-03 0. -1.
         11   -1    0    0    0    0 -0.00000000000E+00 -0.00000000000E+00 -0.45593999997E+02  0.45594000000E+02  0.51100000000E-03 0.  1.
    9900012    2    1    2    0    0  0.15949155265E+02 -0.26817006965E+02 -0.65721275381E+01  0.59301948557E+02  0.50000008261E+02 0.  0.
         12    1    1    2    0    0 -0.15949155265E+02  0.26817006965E+02  0.65721275381E+01  0.31886051443E+02  0.00000000000E+00 0. -1.
         11    1    3    3    0    0  0.11267650139E+02  0.46307626806E+01  0.77351845769E+01  0.14430418682E+02  0.51100000000E-03 0. -1.
        -11    1    3    3    0    0  0.15382177704E+02 -0.15739005785E+02 -0.13560328889E+02  0.25849762356E+02  0.51100000000E-03 0.  1.
        -12    1    3    3    0    0 -0.10700672577E+02 -0.15708763860E+02 -0.74698322625E+00  0.19021767519E+02  0.00000000000E+00 0.  1.
</event>
<event>
 7    1  0.3223600E-013  0.5930201E+02  0.7816164E-02  0.1266605E+00
        -11   -1    0    0    0    0  0.00000000000E+00  0.00000000000E+00  0.45593999997E+02  0.45594000000E+02  0.51100000000E-03 0. -1.
         11   -1    0    0    0    0 -0.00000000000E+00 -0.00000000000E+00 -0.45593999997E+02  0.45594000000E+02  0.51100000000E-03 0.  1.
    9900012    2    1    2    0    0 -0.32594708184E+01 -0.19815874459E+02 -0.24767379406E+02  0.59302013842E+02  0.50000127325E+02 0.  0.
         12    1    1    2    0    0  0.32594708184E+01  0.19815874459E+02  0.24767379406E+02  0.31885986158E+02  0.00000000000E+00 0. -1.
         11    1    3    3    0    0  0.12630193424E+02 -0.32272310213E+01 -0.12445465408E+02  0.18022941366E+02  0.51100000000E-03 0. -1.
        -11    1    3    3    0    0  0.68100676051E+01 -0.13603930737E+02 -0.10134226287E+02  0.18279674368E+02  0.51100000000E-03 0.  1.
        -12    1    3    3    0    0 -0.22699731847E+02 -0.29847127010E+01 -0.21876877109E+01  0.22999398109E+02  0.00000000000E+00 0.  1.
</event>
<event>
 7    1  0.3223600E-013  0.5930191E+02  0.7816164E-02  0.1266605E+00
        -11   -1    0    0    0    0  0.00000000000E+00  0.00000000000E+00  0.45593999997E+02  0.45594000000E+02  0.51100000000E-03 0.  1.
         11   -1    0    0    0    0 -0.00000000000E+00 -0.00000000000E+00 -0.45593999997E+02  0.45594000000E+02  0.51100000000E-03 0. -1.
    9900012    2    1    2    0    0 -0.30894406962E+02 -0.77753603397E+01 -0.13423266828E+01  0.59301914463E+02  0.49999946082E+02 0.  0.
         12    1    1    2    0    0  0.30894406962E+02  0.77753603397E+01  0.13423266828E+01  0.31886085537E+02  0.00000000000E+00 0. -1.
         11    1    3    3    0    0 -0.69795296411E+01 -0.90404686161E+01 -0.14734159854E+02  0.18642407937E+02  0.51100000000E-03 0. -1.
        -11    1    3    3    0    0 -0.60639253109E+01 -0.13726321935E+02  0.64801436878E+01  0.16345499886E+02  0.51100000000E-03 0.  1.
        -12    1    3    3    0    0 -0.17850952010E+02  0.14991430211E+02  0.69116894833E+01  0.24314006641E+02  0.00000000000E+00 0.  1.
</event>
<event>
 7    1  0.3223600E-013  0.5930196E+02  0.7816164E-02  0.1266605E+00
        -11   -1    0    0    0    0  0.00000000000E+00  0.00000000000E+00  0.45593999997E+02  0.45594000000E+02  0.51100000000E-03 0. -1.
         11   -1    0    0    0    0 -0.00000000000E+00 -0.00000000000E+00 -0.45593999997E+02  0.45594000000E+02  0.51100000000E-03 0.  1.
    9900012    2    1    2    0    0 -0.28177402529E+02 -0.23585150880E+01 -0.14737393969E+02  0.59301962496E+02  0.50000033682E+02 0.  0.
         12    1    1    2    0    0  0.28177402529E+02  0.23585150880E+01  0.14737393969E+02  0.31886037504E+02  0.00000000000E+00 0. -1.
         11    1    3    3    0    0 -0.85482056101E+01  0.96101033663E+00  0.10191085105E+02  0.13336175460E+02  0.51100000000E-03 0. -1.
        -11    1    3    3    0    0 -0.90560085842E+01 -0.82472675297E+01  0.54636084397E+01  0.13411924941E+02  0.51100000000E-03 0.  1.
        -12    1    3    3    0    0 -0.10573188335E+02  0.49277421051E+01 -0.30392087514E+02  0.32553862095E+02  0.00000000000E+00 0.  1.
</event>
<event>
 7    1  0.3223600E-013  0.5930197E+02  0.7816164E-02  0.1266605E+00
        -11   -1    0    0    0    0  0.00000000000E+00  0.00000000000E+00  0.45593999997E+02  0.45594000000E+02  0.51100000000E-03 0.  1.
         11   -1    0    0    0    0 -0.00000000000E+00 -0.00000000000E+00 -0.45593999997E+02  0.45594000000E+02  0.51100000000E-03 0. -1.
    9900012    2    1    2    0    0  0.30815338320E+02  0.54841797657E+01 -0.60875012231E+01  0.59301968973E+02  0.50000045495E+02 0.  0.
         12    1    1    2    0    0 -0.30815338320E+02 -0.54841797657E+01  0.60875012231E+01  0.31886031027E+02  0.00000000000E+00 0. -1.
         11    1    3    3    0    0  0.31330223288E+01  0.59578207947E+01 -0.19765527980E+02  0.20880314991E+02  0.51100000000E-03 0. -1.
        -11    1    3    3    0    0 -0.35474199739E+01 -0.16142118739E+01  0.42797915740E+01  0.57884786104E+01  0.51100000000E-03 0.  1.
         12    1    3    3    0    0  0.31229735965E+02  0.11405708448E+01  0.93982351825E+01  0.32633175372E+02  0.00000000000E+00 0. -1.
</event>
<event>
 7    1  0.3223600E-013  0.5930192E+02  0.7816164E-02  0.1266605E+00
        -11   -1    0    0    0    0  0.00000000000E+00  0.00000000000E+00  0.45593999997E+02  0.45594000000E+02  0.51100000000E-03 0.  1.
         11   -1    0    0    0    0 -0.00000000000E+00 -0.00000000000E+00 -0.45593999997E+02  0.45594000000E+02  0.51100000000E-03 0. -1.
    9900012    2    1    2    0    0  0.10561387310E+02  0.77520304428E+01  0.29070344429E+02  0.59301924620E+02  0.49999964605E+02 0.  0.
         12    1    1    2    0    0 -0.10561387310E+02 -0.77520304428E+01 -0.29070344429E+02  0.31886075380E+02  0.00000000000E+00 0. -1.
         11    1    3    3    0    0 -0.89227642916E+01 -0.14763250129E+02  0.97671080330E+01  0.19823361889E+02  0.51100000000E-03 0. -1.
        -11    1    3    3    0    0 -0.10158076091E+01  0.22240737462E+00  0.65253395794E+01  0.66076763712E+01  0.51100000000E-03 0.  1.
        -12    1    3    3    0    0  0.20499959211E+02  0.22292873197E+02  0.12777896817E+02  0.32870886360E+02  0.00000000000E+00 0.  1.
</event>
<event>
 7    1  0.3223600E-013  0.5930191E+02  0.7816164E-02  0.1266605E+00
        -11   -1    0    0    0    0  0.00000000000E+00  0.00000000000E+00  0.45593999997E+02  0.45594000000E+02  0.51100000000E-03 0. -1.
         11   -1    0    0    0    0 -0.00000000000E+00 -0.00000000000E+00 -0.45593999997E+02  0.45594000000E+02  0.51100000000E-03 0.  1.
    9900012    2    1    2    0    0  0.31369272618E+02 -0.22765175779E+01  0.52449051703E+01  0.59301908564E+02  0.49999935322E+02 0.  0.
         12    1    1    2    0    0 -0.31369272618E+02  0.22765175779E+01 -0.52449051703E+01  0.31886091436E+02  0.00000000000E+00 0. -1.
         11    1    3    3    0    0  0.14546241815E+02 -0.13845952966E+02 -0.94965962522E+00  0.20104860560E+02  0.51100000000E-03 0. -1.
        -11    1    3    3    0    0 -0.61810847299E+01 -0.66717228760E+01 -0.41202341348E+00  0.91042549463E+01  0.51100000000E-03 0.  1.
         12    1    3    3    0    0  0.23004115532E+02  0.18241158264E+02  0.66065882090E+01  0.30092793058E+02  0.00000000000E+00 0. -1.
</event>
<event>
 7    1  0.3223600E-013  0.5930195E+02  0.7816164E-02  0.1266605E+00
        -11   -1    0    0    0    0  0.00000000000E+00  0.00000000000E+00  0.45593999997E+02  0.45594000000E+02  0.51100000000E-03 0.  1.
         11   -1    0    0    0    0 -0.00000000000E+00 -0.00000000000E+00 -0.45593999997E+02  0.45594000000E+02  0.51100000000E-03 0. -1.
    9900012    2    1    2    0    0  0.34226019573E+01 -0.28635801289E+02 -0.13601356540E+02  0.59301949455E+02  0.50000009898E+02 0.  0.
         12    1    1    2    0    0 -0.34226019573E+01  0.28635801289E+02  0.13601356540E+02  0.31886050545E+02  0.00000000000E+00 0. -1.
         11    1    3    3    0    0 -0.78682842666E+01 -0.20784420696E+02 -0.92629717770E+01  0.24077057282E+02  0.51100000000E-03 0. -1.
        -11    1    3    3    0    0 -0.10574399120E+02 -0.12537988517E+01 -0.61798465393E+01  0.12311800511E+02  0.51100000000E-03 0.  1.
        -12    1    3    3    0    0  0.21865285344E+02 -0.65975817419E+01  0.18414617758E+01  0.22913091662E+02  0.00000000000E+00 0.  1.
</event>
<event>
 7    1  0.3223600E-013  0.5930194E+02  0.7816164E-02  0.1266605E+00
        -11   -1    0    0    0    0  0.00000000000E+00  0.00000000000E+00  0.45593999997E+02  0.45594000000E+02  0.51100000000E-03 0.  1.
         11   -1    0    0    0    0 -0.00000000000E+00 -0.00000000000E+00 -0.45593999997E+02  0.45594000000E+02  0.51100000000E-03 0. -1.
    9900012    2    1    2    0    0  0.30762214114E+02 -0.77369944087E+00  0.83551541968E+01  0.59301936749E+02  0.49999986725E+02 0.  0.
         12    1    1    2    0    0 -0.30762214114E+02  0.77369944087E+00 -0.83551541968E+01  0.31886063251E+02  0.00000000000E+00 0. -1.
         11    1    3    3    0    0  0.28756867556E+01  0.11354931672E+02 -0.95215181962E+01  0.15095143477E+02  0.51100000000E-03 0. -1.
        -11    1    3    3    0    0 -0.30585626691E+01  0.36659683998E+01 -0.67386069125E+00  0.48216406338E+01  0.51100000000E-03 0.  1.
        -12    1    3    3    0    0  0.30945090027E+02 -0.15794599512E+02  0.18550533084E+02  0.39385152637E+02  0.00000000000E+00 0.  1.
</event>
<event>
 7    1  0.3223600E-013  0.5930192E+02  0.7816164E-02  0.1266605E+00
        -11   -1    0    0    0    0  0.00000000000E+00  0.00000000000E+00  0.45593999997E+02  0.45594000000E+02  0.51100000000E-03 0. -1.
         11   -1    0    0    0    0 -0.00000000000E+00 -0.00000000000E+00 -0.45593999997E+02  0.45594000000E+02  0.51100000000E-03 0.  1.
    9900012    2    1    2    0    0  0.21209169433E+02 -0.20644713763E+02 -0.11861231268E+02  0.59301923390E+02  0.49999962361E+02 0.  0.
         12    1    1    2    0    0 -0.21209169433E+02  0.20644713763E+02  0.11861231268E+02  0.31886076610E+02  0.00000000000E+00 0. -1.
         11    1    3    3    0    0 -0.23781682721E+01  0.27103930767E+01 -0.18460157837E+02  0.18809022904E+02  0.51100000000E-03 0. -1.
        -11    1    3    3    0    0  0.18166056435E+01  0.24701972613E+01  0.59680186243E+01  0.67096331595E+01  0.51100000000E-03 0.  1.
        -12    1    3    3    0    0  0.21770732061E+02 -0.25825304101E+02  0.63090794428E+00  0.33783267327E+02  0.00000000000E+00 0.  1.
</event>
<event>
 7    1  0.3223600E-013  0.5930190E+02  0.7816164E-02  0.1266605E+00
        -11   -1    0    0    0    0  0.00000000000E+00  0.00000000000E+00  0.45593999997E+02  0.45594000000E+02  0.51100000000E-03 0.  1.
         11   -1    0    0    0    0 -0.00000000000E+00 -0.00000000000E+00 -0.45593999997E+02  0.45594000000E+02  0.51100000000E-03 0. -1.
    9900012    2    1    2    0    0 -0.31705019254E+02 -0.26806733895E+01  0.20806725616E+01  0.59301898733E+02  0.49999917394E+02 0.  0.
         12    1    1    2    0    0  0.31705019254E+02  0.26806733895E+01 -0.20806725616E+01  0.31886101267E+02  0.00000000000E+00 0. -1.
         11    1    3    3    0    0 -0.89101428996E+01  0.14944413797E+02  0.57867010701E+01  0.18336086271E+02  0.51100000000E-03 0.  1.
        -11    1    3    3    0    0  0.36970295923E+01  0.48001479988E+01 -0.11121522659E+01  0.61600593780E+01  0.51100000000E-03 0. -1.
        -12    1    3    3    0    0 -0.26491905946E+02 -0.22425235185E+02 -0.25938762426E+01  0.34805753084E+02  0.00000000000E+00 0.  1.
</event>
<event>
 7    1  0.3223600E-013  0.5930191E+02  0.7816164E-02  0.1266605E+00
        -11   -1    0    0    0    0  0.00000000000E+00  0.00000000000E+00  0.45593999997E+02  0.45594000000E+02  0.51100000000E-03 0. -1.
         11   -1    0    0    0    0 -0.00000000000E+00 -0.00000000000E+00 -0.45593999997E+02  0.45594000000E+02  0.51100000000E-03 0.  1.
    9900012    2    1    2    0    0  0.24778041063E+02  0.87692625140E+00 -0.20049996460E+02  0.59301910923E+02  0.49999939624E+02 0.  0.
         12    1    1    2    0    0 -0.24778041063E+02 -0.87692625140E+00  0.20049996460E+02  0.31886089077E+02  0.00000000000E+00 0. -1.
         11    1    3    3    0    0  0.14891430246E+02 -0.27116784258E+01  0.66541937586E+01  0.16534394137E+02  0.51100000000E-03 0. -1.
        -11    1    3    3    0    0  0.19138745367E+02  0.95183257180E+01 -0.12338278146E+02  0.24680421523E+02  0.51100000000E-03 0.  1.
        -12    1    3    3    0    0 -0.92521345489E+01 -0.59297210407E+01 -0.14365912073E+02  0.18087095262E+02  0.00000000000E+00 0.  1.
</event>
<event>
 7    1  0.3223600E-013  0.5930196E+02  0.7816164E-02  0.1266605E+00
        -11   -1    0    0    0    0  0.00000000000E+00  0.00000000000E+00  0.45593999997E+02  0.45594000000E+02  0.51100000000E-03 0.  1.
         11   -1    0    0    0    0 -0.00000000000E+00 -0.00000000000E+00 -0.45593999997E+02  0.45594000000E+02  0.51100000000E-03 0. -1.
    9900012    2    1    2    0    0  0.39554859650E+01  0.29496502324E+02  0.11446842476E+02  0.59301957266E+02  0.50000024143E+02 0.  0.
         12    1    1    2    0    0 -0.39554859650E+01 -0.29496502324E+02 -0.11446842476E+02  0.31886042734E+02  0.00000000000E+00 0. -1.
         11    1    3    3    0    0  0.63339679494E+01  0.26176209716E+02  0.44094213075E+01  0.27290219890E+02  0.51100000000E-03 0. -1.
        -11    1    3    3    0    0  0.10797267245E+02 -0.81285715211E+01  0.10391656920E+01  0.13554870731E+02  0.51100000000E-03 0.  1.
         12    1    3    3    0    0 -0.13175749230E+02  0.11448864129E+02  0.59982554766E+01  0.18456866645E+02  0.00000000000E+00 0. -1.
</event>
<event>
 7    1  0.3223600E-013  0.5930190E+02  0.7816164E-02  0.1266605E+00
        -11   -1    0    0    0    0  0.00000000000E+00  0.00000000000E+00  0.45593999997E+02  0.45594000000E+02  0.51100000000E-03 0.  1.
         11   -1    0    0    0    0 -0.00000000000E+00 -0.00000000000E+00 -0.45593999997E+02  0.45594000000E+02  0.51100000000E-03 0. -1.
    9900012    2    1    2    0    0  0.22292813850E+02  0.21936654567E+02  0.62078117700E+01  0.59301901307E+02  0.49999922087E+02 0.  0.
         12    1    1    2    0    0 -0.22292813850E+02 -0.21936654567E+02 -0.62078117700E+01  0.31886098693E+02  0.00000000000E+00 0. -1.
         11    1    3    3    0    0  0.22778387890E+02  0.61129108478E+01 -0.52472589154E+01  0.24161050480E+02  0.51100000000E-03 0.  1.
        -11    1    3    3    0    0 -0.92639735857E+01  0.14124166765E+02 -0.39335077207E+01  0.17343176660E+02  0.51100000000E-03 0. -1.
        -12    1    3    3    0    0  0.87783995454E+01  0.16995769537E+01  0.15388578406E+02  0.17797674167E+02  0.00000000000E+00 0.  1.
</event>
<event>
 7    1  0.3223600E-013  0.5930194E+02  0.7816164E-02  0.1266605E+00
        -11   -1    0    0    0    0  0.00000000000E+00  0.00000000000E+00  0.45593999997E+02  0.45594000000E+02  0.51100000000E-03 0. -1.
         11   -1    0    0    0    0 -0.00000000000E+00 -0.00000000000E+00 -0.45593999997E+02  0.45594000000E+02  0.51100000000E-03 0.  1.
    9900012    2    1    2    0    0  0.19526616625E+02 -0.96111308307E+01 -0.23303614370E+02  0.59301936660E+02  0.49999986563E+02 0.  0.
         12    1    1    2    0    0 -0.19526616625E+02  0.96111308307E+01  0.23303614370E+02  0.31886063340E+02  0.00000000000E+00 0. -1.
         11    1    3    3    0    0  0.77032697481E+01  0.60668118727E+01 -0.55680042725E+01  0.11276047311E+02  0.51100000000E-03 0. -1.
        -11    1    3    3    0    0 -0.12494723198E+02 -0.15994608521E+02 -0.74587198186E+01  0.21623554544E+02  0.51100000000E-03 0.  1.
         12    1    3    3    0    0  0.24318070074E+02  0.31666581751E+00 -0.10276890278E+02  0.26402334805E+02  0.00000000000E+00 0. -1.
</event>
<event>
 7    1  0.3223600E-013  0.5930195E+02  0.7816164E-02  0.1266605E+00
        -11   -1    0    0    0    0  0.00000000000E+00  0.00000000000E+00  0.45593999997E+02  0.45594000000E+02  0.51100000000E-03 0.  1.
         11   -1    0    0    0    0 -0.00000000000E+00 -0.00000000000E+00 -0.45593999997E+02  0.45594000000E+02  0.51100000000E-03 0. -1.
    9900012    2    1    2    0    0 -0.30434881952E+02 -0.94972339073E+01  0.49081254413E+00  0.59301946807E+02  0.50000005068E+02 0.  0.
         12    1    1    2    0    0  0.30434881952E+02  0.94972339073E+01 -0.49081254413E+00  0.31886053193E+02  0.00000000000E+00 0. -1.
         11    1    3    3    0    0 -0.88481858053E+01  0.75616597200E+01  0.38160156344E+01  0.12248716886E+02  0.51100000000E-03 0. -1.
        -11    1    3    3    0    0 -0.26015417872E+02 -0.15165194518E+01  0.80679842429E+01  0.27279922440E+02  0.51100000000E-03 0.  1.
         12    1    3    3    0    0  0.44287217257E+01 -0.15542374176E+02 -0.11393187333E+02  0.19773307481E+02  0.00000000000E+00 0. -1.
</event>
<event>
 7    1  0.3223600E-013  0.5930195E+02  0.7816164E-02  0.1266605E+00
        -11   -1    0    0    0    0  0.00000000000E+00  0.00000000000E+00  0.45593999997E+02  0.45594000000E+02  0.51100000000E-03 0. -1.
         11   -1    0    0    0    0 -0.00000000000E+00 -0.00000000000E+00 -0.45593999997E+02  0.45594000000E+02  0.51100000000E-03 0.  1.
    9900012    2    1    2    0    0 -0.56581486638E+01  0.24708293729E+02  0.19344401255E+02  0.59301948423E+02  0.50000008015E+02 0.  0.
         12    1    1    2    0    0  0.56581486638E+01 -0.24708293729E+02 -0.19344401255E+02  0.31886051577E+02  0.00000000000E+00 0. -1.
         11    1    3    3    0    0  0.13477397850E+02  0.18281630440E+02  0.19101891277E+02  0.29677272701E+02  0.51100000000E-03 0. -1.
        -11    1    3    3    0    0  0.48129653049E+01  0.76249883752E+00 -0.10373883220E+01  0.49821897089E+01  0.51100000000E-03 0.  1.
         12    1    3    3    0    0 -0.23948511818E+02  0.56641644513E+01  0.12798983004E+01  0.24642486013E+02  0.00000000000E+00 0. -1.
</event>
<event>
 7    1  0.3223600E-013  0.5930197E+02  0.7816164E-02  0.1266605E+00
        -11   -1    0    0    0    0  0.00000000000E+00  0.00000000000E+00  0.45593999997E+02  0.45594000000E+02  0.51100000000E-03 0.  1.
         11   -1    0    0    0    0 -0.00000000000E+00 -0.00000000000E+00 -0.45593999997E+02  0.45594000000E+02  0.51100000000E-03 0. -1.
    9900012    2    1    2    0    0 -0.20296008643E+02 -0.20259894165E+02  0.13940150366E+02  0.59301967468E+02  0.50000042749E+02 0.  0.
         12    1    1    2    0    0  0.20296008643E+02  0.20259894165E+02 -0.13940150366E+02  0.31886032532E+02  0.00000000000E+00 0. -1.
         11    1    3    3    0    0 -0.88728576393E+01 -0.28884902024E+01  0.26231156625E+01  0.96928692541E+01  0.51100000000E-03 0. -1.
        -11    1    3    3    0    0 -0.20577533902E+01 -0.30371750721E+02  0.81645301316E+00  0.30452326457E+02  0.51100000000E-03 0.  1.
         12    1    3    3    0    0 -0.93653976130E+01  0.13000346759E+02  0.10500581691E+02  0.19156771757E+02  0.00000000000E+00 0. -1.
</event>
<event>
 7    1  0.3223600E-013  0.5930194E+02  0.7816164E-02  0.1266605E+00
        -11   -1    0    0    0    0  0.00000000000E+00  0.00000000000E+00  0.45593999997E+02  0.45594000000E+02  0.51100000000E-03 0. -1.
         11   -1    0    0    0    0 -0.00000000000E+00 -0.00000000000E+00 -0.45593999997E+02  0.45594000000E+02  0.51100000000E-03 0.  1.
    9900012    2    1    2    0    0 -0.82408712644E+01  0.13987250971E+02 -0.27443858677E+02  0.59301944615E+02  0.50000001072E+02 0.  0.
         12    1    1    2    0    0  0.82408712644E+01 -0.13987250971E+02  0.27443858677E+02  0.31886055385E+02  0.00000000000E+00 0. -1.
         11    1    3    3    0    0 -0.48149131889E+01 -0.94910496117E+01 -0.34959601144E+01  0.11202015405E+02  0.51100000000E-03 0.  1.
        -11    1    3    3    0    0  0.23289686562E+01  0.12322309971E+02  0.72401527361E+01  0.14480443015E+02  0.51100000000E-03 0. -1.
        -12    1    3    3    0    0 -0.57549267317E+01  0.11155990612E+02 -0.31188051298E+02  0.33619486195E+02  0.00000000000E+00 0.  1.
</event>
<event>
 7    1  0.3223600E-013  0.5930184E+02  0.7816164E-02  0.1266605E+00
        -11   -1    0    0    0    0  0.00000000000E+00  0.00000000000E+00  0.45593999997E+02  0.45594000000E+02  0.51100000000E-03 0.  1.
         11   -1    0    0    0    0 -0.00000000000E+00 -0.00000000000E+00 -0.45593999997E+02  0.45594000000E+02  0.51100000000E-03 0. -1.
    9900012    2    1    2    0    0  0.23601796019E+02 -0.19694029387E+02  0.84751184249E+01  0.59301839975E+02  0.49999810232E+02 0.  0.
         12    1    1    2    0    0 -0.23601796019E+02  0.19694029387E+02 -0.84751184249E+01  0.31886160025E+02  0.00000000000E+00 0. -1.
         11    1    3    3    0    0  0.11066975427E+02 -0.41413570831E+01 -0.13208254573E+02  0.17722493411E+02  0.51100000000E-03 0. -1.
        -11    1    3    3    0    0  0.17451810673E+02 -0.86644322909E+00  0.19084430547E+02  0.25875314669E+02  0.51100000000E-03 0.  1.
         12    1    3    3    0    0 -0.49169900806E+01 -0.14686229075E+02  0.25989424502E+01  0.15704031895E+02  0.00000000000E+00 0. -1.
</event>
<event>
 7    1  0.3223600E-013  0.5930196E+02  0.7816164E-02  0.1266605E+00
        -11   -1    0    0    0    0  0.00000000000E+00  0.00000000000E+00  0.45593999997E+02  0.45594000000E+02  0.51100000000E-03 0.  1.
         11   -1    0    0    0    0 -0.00000000000E+00 -0.00000000000E+00 -0.45593999997E+02  0.45594000000E+02  0.51100000000E-03 0. -1.
    9900012    2    1    2    0    0 -0.20984243799E+02  0.31926665380E+01  0.23794699513E+02  0.59301963364E+02  0.50000035264E+02 0.  0.
         12    1    1    2    0    0  0.20984243799E+02 -0.31926665380E+01 -0.23794699513E+02  0.31886036636E+02  0.00000000000E+00 0. -1.
         11    1    3    3    0    0  0.56084510277E+01 -0.17217780373E+01  0.12339539064E+02  0.13663215841E+02  0.51100000000E-03 0.  1.
        -11    1    3    3    0    0 -0.16399476258E+02 -0.49095050272E+01 -0.10080965195E+02  0.19866351468E+02  0.51100000000E-03 0. -1.
         12    1    3    3    0    0 -0.10193218569E+02  0.98239496025E+01  0.21536125645E+02  0.25772396055E+02  0.00000000000E+00 0. -1.
</event>
<event>
 7    1  0.3223600E-013  0.5930195E+02  0.7816164E-02  0.1266605E+00
        -11   -1    0    0    0    0  0.00000000000E+00  0.00000000000E+00  0.45593999997E+02  0.45594000000E+02  0.51100000000E-03 0.  1.
         11   -1    0    0    0    0 -0.00000000000E+00 -0.00000000000E+00 -0.45593999997E+02  0.45594000000E+02  0.51100000000E-03 0. -1.
    9900012    2    1    2    0    0  0.74102603783E+01  0.82930032290E+01  0.29883680357E+02  0.59301949553E+02  0.50000010077E+02 0.  0.
         12    1    1    2    0    0 -0.74102603783E+01 -0.82930032290E+01 -0.29883680357E+02  0.31886050447E+02  0.00000000000E+00 0. -1.
         11    1    3    3    0    0  0.29242448949E+00  0.71882019092E+00 -0.11838567358E+02  0.11863974540E+02  0.51100000000E-03 0. -1.
        -11    1    3    3    0    0  0.10911410369E+02  0.47538263521E+01  0.10535815139E+02  0.15895318246E+02  0.51100000000E-03 0.  1.
        -12    1    3    3    0    0 -0.37935744804E+01  0.28203566860E+01  0.31186432575E+02  0.31542656767E+02  0.00000000000E+00 0.  1.
</event>
<event>
 7    1  0.3223600E-013  0.5930194E+02  0.7816164E-02  0.1266605E+00
        -11   -1    0    0    0    0  0.00000000000E+00  0.00000000000E+00  0.45593999997E+02  0.45594000000E+02  0.51100000000E-03 0. -1.
         11   -1    0    0    0    0 -0.00000000000E+00 -0.00000000000E+00 -0.45593999997E+02  0.45594000000E+02  0.51100000000E-03 0.  1.
    9900012    2    1    2    0    0 -0.30309527941E+02  0.76222886759E+01 -0.63209387050E+01  0.59301936669E+02  0.49999986579E+02 0.  0.
         12    1    1    2    0    0  0.30309527941E+02 -0.76222886759E+01  0.63209387050E+01  0.31886063331E+02  0.00000000000E+00 0. -1.
         11    1    3    3    0    0 -0.68625562977E-02 -0.23861616155E+00  0.12134625632E+02  0.12136973438E+02  0.51100000000E-03 0. -1.
        -11    1    3    3    0    0 -0.27395418340E+02 -0.68961652809E+01 -0.10405750986E+02  0.30105575819E+02  0.51100000000E-03 0.  1.
        -12    1    3    3    0    0 -0.29072470447E+01  0.14757070118E+02 -0.80498133509E+01  0.17059387411E+02  0.00000000000E+00 0.  1.
</event>
<event>
 7    1  0.3223600E-013  0.5930192E+02  0.7816164E-02  0.1266605E+00
        -11   -1    0    0    0    0  0.00000000000E+00  0.00000000000E+00  0.45593999997E+02  0.45594000000E+02  0.51100000000E-03 0. -1.
         11   -1    0    0    0    0 -0.00000000000E+00 -0.00000000000E+00 -0.45593999997E+02  0.45594000000E+02  0.51100000000E-03 0.  1.
    9900012    2    1    2    0    0 -0.28752058533E+02  0.13598048622E+02 -0.22658889100E+01  0.59301920768E+02  0.49999957580E+02 0.  0.
         12    1    1    2    0    0  0.28752058533E+02 -0.13598048622E+02  0.22658889100E+01  0.31886079232E+02  0.00000000000E+00 0. -1.
         11    1    3    3    0    0 -0.66456761688E+01  0.10289439495E+02  0.90216761153E+01  0.15212764938E+02  0.51100000000E-03 0. -1.
        -11    1    3    3    0    0 -0.10657887225E+02 -0.53140873964E+01  0.11896111711E+02  0.16832930793E+02  0.51100000000E-03 0.  1.
        -12    1    3    3    0    0 -0.11448495139E+02  0.86226965232E+01 -0.23183676737E+02  0.27256225038E+02  0.00000000000E+00 0.  1.
</event>
<event>
 7    1  0.3223600E-013  0.5930191E+02  0.7816164E-02  0.1266605E+00
        -11   -1    0    0    0    0  0.00000000000E+00  0.00000000000E+00  0.45593999997E+02  0.45594000000E+02  0.51100000000E-03 0.  1.
         11   -1    0    0    0    0 -0.00000000000E+00 -0.00000000000E+00 -0.45593999997E+02  0.45594000000E+02  0.51100000000E-03 0. -1.
    9900012    2    1    2    0    0 -0.60744073801E+00 -0.16335615228E+02  0.27377018785E+02  0.59301914215E+02  0.49999945629E+02 0.  0.
         12    1    1    2    0    0  0.60744073801E+00  0.16335615228E+02 -0.27377018785E+02  0.31886085785E+02  0.00000000000E+00 0. -1.
         11    1    3    3    0    0 -0.18223346981E+01 -0.15955394954E+02  0.66877582455E+01  0.17396023756E+02  0.51100000000E-03 0. -1.
        -11    1    3    3    0    0 -0.17340831778E+02 -0.29580347818E+01  0.83424593182E+01  0.19469233273E+02  0.51100000000E-03 0.  1.
         12    1    3    3    0    0  0.18555725738E+02  0.25778145080E+01  0.12346801221E+02  0.22436657186E+02  0.00000000000E+00 0. -1.
</event>
<event>
 7    1  0.3223600E-013  0.5930191E+02  0.7816164E-02  0.1266605E+00
        -11   -1    0    0    0    0  0.00000000000E+00  0.00000000000E+00  0.45593999997E+02  0.45594000000E+02  0.51100000000E-03 0.  1.
         11   -1    0    0    0    0 -0.00000000000E+00 -0.00000000000E+00 -0.45593999997E+02  0.45594000000E+02  0.51100000000E-03 0. -1.
    9900012    2    1    2    0    0  0.18696854969E+02  0.17885702792E+02 -0.18634692913E+02  0.59301913221E+02  0.49999943816E+02 0.  0.
         12    1    1    2    0    0 -0.18696854969E+02 -0.17885702792E+02  0.18634692913E+02  0.31886086779E+02  0.00000000000E+00 0. -1.
         11    1    3    3    0    0  0.18017292058E+01  0.14625568876E+02 -0.20766356833E+01  0.14881730716E+02  0.51100000000E-03 0.  1.
        -11    1    3    3    0    0  0.51229728557E+01  0.18045977282E+02 -0.17282271336E+02  0.25506451140E+02  0.51100000000E-03 0. -1.
         12    1    3    3    0    0  0.11772152907E+02 -0.14785843366E+02  0.72421410617E+00  0.18913731366E+02  0.00000000000E+00 0. -1.
</event>
<event>
 7    1  0.3223600E-013  0.5930195E+02  0.7816164E-02  0.1266605E+00
        -11   -1    0    0    0    0  0.00000000000E+00  0.00000000000E+00  0.45593999997E+02  0.45594000000E+02  0.51100000000E-03 0. -1.
         11   -1    0    0    0    0 -0.00000000000E+00 -0.00000000000E+00 -0.45593999997E+02  0.45594000000E+02  0.51100000000E-03 0.  1.
    9900012    2    1    2    0    0 -0.23143659471E+02 -0.10611413396E+02  0.19196069117E+02  0.59301950739E+02  0.50000012239E+02 0.  0.
         12    1    1    2    0    0  0.23143659471E+02  0.10611413396E+02 -0.19196069117E+02  0.31886049261E+02  0.00000000000E+00 0. -1.
         11    1    3    3    0    0 -0.21703296149E+01 -0.35129662081E+01  0.20277388092E+02  0.20693567366E+02  0.51100000000E-03 0. -1.
        -11    1    3    3    0    0  0.32040333307E+01 -0.10481001383E+02 -0.76038217119E+01  0.13339240026E+02  0.51100000000E-03 0.  1.
        -12    1    3    3    0    0 -0.24177363187E+02  0.33825541955E+01  0.65225027367E+01  0.25269143347E+02  0.00000000000E+00 0.  1.
</event>
<event>
 7    1  0.3223600E-013  0.5930195E+02  0.7816164E-02  0.1266605E+00
        -11   -1    0    0    0    0  0.00000000000E+00  0.00000000000E+00  0.45593999997E+02  0.45594000000E+02  0.51100000000E-03 0.  1.
         11   -1    0    0    0    0 -0.00000000000E+00 -0.00000000000E+00 -0.45593999997E+02  0.45594000000E+02  0.51100000000E-03 0. -1.
    9900012    2    1    2    0    0  0.81837759004E+01 -0.29348022174E+02  0.94042249892E+01  0.59301952249E+02  0.50000014993E+02 0.  0.
         12    1    1    2    0    0 -0.81837759004E+01  0.29348022174E+02 -0.94042249892E+01  0.31886047751E+02  0.00000000000E+00 0. -1.
         11    1    3    3    0    0  0.11921969969E+02  0.21323081983E+01 -0.10582618346E+02  0.16083280682E+02  0.51100000000E-03 0. -1.
        -11    1    3    3    0    0  0.35577809233E+01 -0.28605268059E+02  0.20481371973E+02  0.35361076963E+02  0.51100000000E-03 0.  1.
         12    1    3    3    0    0 -0.72959749915E+01 -0.28750623141E+01 -0.49452863807E+00  0.78575946040E+01  0.00000000000E+00 0. -1.
</event>
<event>
 7    1  0.3223600E-013  0.5930194E+02  0.7816164E-02  0.1266605E+00
        -11   -1    0    0    0    0  0.00000000000E+00  0.00000000000E+00  0.45593999997E+02  0.45594000000E+02  0.51100000000E-03 0.  1.
         11   -1    0    0    0    0 -0.00000000000E+00 -0.00000000000E+00 -0.45593999997E+02  0.45594000000E+02  0.51100000000E-03 0. -1.
    9900012    2    1    2    0    0  0.19129070824E+02  0.16367334369E+02  0.19568087469E+02  0.59301936710E+02  0.49999986655E+02 0.  0.
         12    1    1    2    0    0 -0.19129070824E+02 -0.16367334369E+02 -0.19568087469E+02  0.31886063290E+02  0.00000000000E+00 0. -1.
         11    1    3    3    0    0 -0.56091192568E+01 -0.65878970329E+01  0.39619920412E+01  0.95163011380E+01  0.51100000000E-03 0. -1.
        -11    1    3    3    0    0  0.12081668718E+02  0.23232703415E+02  0.23232160287E+02  0.35006549370E+02  0.51100000000E-03 0.  1.
         12    1    3    3    0    0  0.12656521363E+02 -0.27747201293E+00 -0.76260648595E+01  0.14779086202E+02  0.00000000000E+00 0. -1.
</event>
<event>
 7    1  0.3223600E-013  0.5930194E+02  0.7816164E-02  0.1266605E+00
        -11   -1    0    0    0    0  0.00000000000E+00  0.00000000000E+00  0.45593999997E+02  0.45594000000E+02  0.51100000000E-03 0.  1.
         11   -1    0    0    0    0 -0.00000000000E+00 -0.00000000000E+00 -0.45593999997E+02  0.45594000000E+02  0.51100000000E-03 0. -1.
    9900012    2    1    2    0    0 -0.16803318625E+01  0.30988777070E+02  0.73207189219E+01  0.59301941213E+02  0.49999994866E+02 0.  0.
         12    1    1    2    0    0  0.16803318625E+01 -0.30988777070E+02 -0.73207189219E+01  0.31886058787E+02  0.00000000000E+00 0. -1.
         11    1    3    3    0    0 -0.58236676063E+01 -0.70515293547E+01 -0.69888937915E+01  0.11510161047E+02  0.51100000000E-03 0. -1.
        -11    1    3    3    0    0  0.41534956798E+01  0.77324079128E+01  0.15108809202E+02  0.17473344678E+02  0.51100000000E-03 0.  1.
        -12    1    3    3    0    0 -0.10159936031E-01  0.30307898511E+02 -0.79919648857E+00  0.30318435488E+02  0.00000000000E+00 0.  1.
</event>
<event>
 7    1  0.3223600E-013  0.5930195E+02  0.7816164E-02  0.1266605E+00
        -11   -1    0    0    0    0  0.00000000000E+00  0.00000000000E+00  0.45593999997E+02  0.45594000000E+02  0.51100000000E-03 0. -1.
         11   -1    0    0    0    0 -0.00000000000E+00 -0.00000000000E+00 -0.45593999997E+02  0.45594000000E+02  0.51100000000E-03 0.  1.
    9900012    2    1    2    0    0  0.62402077773E+00  0.31787776408E+02  0.24223899839E+01  0.59301951262E+02  0.50000013194E+02 0.  0.
         12    1    1    2    0    0 -0.62402077773E+00 -0.31787776408E+02 -0.24223899839E+01  0.31886048738E+02  0.00000000000E+00 0. -1.
         11    1    3    3    0    0 -0.15011804754E+02 -0.40052702389E+00 -0.71771577437E+01  0.16644106987E+02  0.51100000000E-03 0. -1.
        -11    1    3    3    0    0 -0.49195635475E+01  0.33432125250E+01  0.28706593398E+01  0.66045333515E+01  0.51100000000E-03 0.  1.
        -12    1    3    3    0    0  0.20555389079E+02  0.28845090907E+02  0.67288883878E+01  0.36053310923E+02  0.00000000000E+00 0.  1.
</event>
<event>
 7    1  0.3223600E-013  0.5930195E+02  0.7816164E-02  0.1266605E+00
        -11   -1    0    0    0    0  0.00000000000E+00  0.00000000000E+00  0.45593999997E+02  0.45594000000E+02  0.51100000000E-03 0.  1.
         11   -1    0    0    0    0 -0.00000000000E+00 -0.00000000000E+00 -0.45593999997E+02  0.45594000000E+02  0.51100000000E-03 0. -1.
    9900012    2    1    2    0    0  0.27943274449E+02  0.53509483584E+01  0.14396560757E+02  0.59301949808E+02  0.50000010541E+02 0.  0.
         12    1    1    2    0    0 -0.27943274449E+02 -0.53509483584E+01 -0.14396560757E+02  0.31886050192E+02  0.00000000000E+00 0. -1.
         11    1    3    3    0    0 -0.16550764469E+00  0.37407974223E+01 -0.13219949958E+02  0.13740015840E+02  0.51100000000E-03 0. -1.
        -11    1    3    3    0    0  0.13623869342E+02 -0.79396790446E+01  0.40188497566E+01  0.16272660287E+02  0.51100000000E-03 0.  1.
        -12    1    3    3    0    0  0.14484912751E+02  0.95498299807E+01  0.23597660958E+02  0.29289273681E+02  0.00000000000E+00 0.  1.
</event>
<event>
 7    1  0.3223600E-013  0.5930197E+02  0.7816164E-02  0.1266605E+00
        -11   -1    0    0    0    0  0.00000000000E+00  0.00000000000E+00  0.45593999997E+02  0.45594000000E+02  0.51100000000E-03 0. -1.
         11   -1    0    0    0    0 -0.00000000000E+00 -0.00000000000E+00 -0.45593999997E+02  0.45594000000E+02  0.51100000000E-03 0.  1.
    9900012    2    1    2    0    0 -0.22760068189E+02  0.84804678382E+01 -0.20658643699E+02  0.59301974876E+02  0.50000056261E+02 0.  0.
         12    1    1    2    0    0  0.22760068189E+02 -0.84804678382E+01  0.20658643699E+02  0.31886025124E+02  0.00000000000E+00 0. -1.
         11    1    3    3    0    0  0.76430616128E+01  0.67003623477E+01 -0.52129922279E+01  0.11423070281E+02  0.51100000000E-03 0. -1.
        -11    1    3    3    0    0 -0.25251910128E+02  0.74216083607E+01 -0.24551216657E+02  0.35993075381E+02  0.51100000000E-03 0.  1.
         12    1    3    3    0    0 -0.51512196741E+01 -0.56415028701E+01  0.91055651865E+01  0.11885829215E+02  0.00000000000E+00 0. -1.
</event>
<event>
 7    1  0.3223600E-013  0.5930190E+02  0.7816164E-02  0.1266605E+00
        -11   -1    0    0    0    0  0.00000000000E+00  0.00000000000E+00  0.45593999997E+02  0.45594000000E+02  0.51100000000E-03 0.  1.
         11   -1    0    0    0    0 -0.00000000000E+00 -0.00000000000E+00 -0.45593999997E+02  0.45594000000E+02  0.51100000000E-03 0. -1.
    9900012    2    1    2    0    0 -0.29147448169E+02  0.23017630306E+01  0.12722081762E+02  0.59301902525E+02  0.49999924309E+02 0.  0.
         12    1    1    2    0    0  0.29147448169E+02 -0.23017630306E+01 -0.12722081762E+02  0.31886097475E+02  0.00000000000E+00 0. -1.
         11    1    3    3    0    0 -0.13236809155E+02 -0.14560912810E+01  0.35784950997E+01  0.13789087928E+02  0.51100000000E-03 0.  1.
        -11    1    3    3    0    0 -0.17899624719E+02 -0.16249081848E+02  0.76295386843E+01  0.25350327153E+02  0.51100000000E-03 0. -1.
         12    1    3    3    0    0  0.19889857047E+01  0.20006936160E+02  0.15140479783E+01  0.20162487444E+02  0.00000000000E+00 0. -1.
</event>
<event>
 7    1  0.3223600E-013  0.5930195E+02  0.7816164E-02  0.1266605E+00
        -11   -1    0    0    0    0  0.00000000000E+00  0.00000000000E+00  0.45593999997E+02  0.45594000000E+02  0.51100000000E-03 0. -1.
         11   -1    0    0    0    0 -0.00000000000E+00 -0.00000000000E+00 -0.45593999997E+02  0.45594000000E+02  0.51100000000E-03 0.  1.
    9900012    2    1    2    0    0  0.23272210815E+02 -0.15956897237E+01  0.21738865795E+02  0.59301948066E+02  0.50000007364E+02 0.  0.
         12    1    1    2    0    0 -0.23272210815E+02  0.15956897237E+01 -0.21738865795E+02  0.31886051934E+02  0.00000000000E+00 0. -1.
         11    1    3    3    0    0 -0.52268671089E+00 -0.10432417410E+01  0.19760831266E+02  0.19795252141E+02  0.51100000000E-03 0. -1.
        -11    1    3    3    0    0  0.37857418132E+01  0.81893792131E+01  0.12381219219E+02  0.15319672405E+02  0.51100000000E-03 0.  1.
        -12    1    3    3    0    0  0.20009155713E+02 -0.87418271958E+01 -0.10403184691E+02  0.24187023520E+02  0.00000000000E+00 0.  1.
</event>
<event>
 7    1  0.3223600E-013  0.5930195E+02  0.7816164E-02  0.1266605E+00
        -11   -1    0    0    0    0  0.00000000000E+00  0.00000000000E+00  0.45593999997E+02  0.45594000000E+02  0.51100000000E-03 0.  1.
         11   -1    0    0    0    0 -0.00000000000E+00 -0.00000000000E+00 -0.45593999997E+02  0.45594000000E+02  0.51100000000E-03 0. -1.
    9900012    2    1    2    0    0  0.23565871379E+02  0.65927325482E+01  0.20442750773E+02  0.59301945439E+02  0.50000002573E+02 0.  0.
         12    1    1    2    0    0 -0.23565871379E+02 -0.65927325482E+01 -0.20442750773E+02  0.31886054561E+02  0.00000000000E+00 0. -1.
         11    1    3    3    0    0 -0.67494293285E-01 -0.76983781958E+01  0.18161888733E+02  0.19726220747E+02  0.51100000000E-03 0. -1.
        -11    1    3    3    0    0 -0.60539615602E+01  0.41271357156E+01 -0.26905799011E+01  0.78053135909E+01  0.51100000000E-03 0.  1.
        -12    1    3    3    0    0  0.29687327232E+02  0.10163975028E+02  0.49714419415E+01  0.31770411101E+02  0.00000000000E+00 0.  1.
</event>
<event>
 7    1  0.3223600E-013  0.5930187E+02  0.7816164E-02  0.1266605E+00
        -11   -1    0    0    0    0  0.00000000000E+00  0.00000000000E+00  0.45593999997E+02  0.45594000000E+02  0.51100000000E-03 0.  1.
         11   -1    0    0    0    0 -0.00000000000E+00 -0.00000000000E+00 -0.45593999997E+02  0.45594000000E+02  0.51100000000E-03 0. -1.
    9900012    2    1    2    0    0  0.21635168989E+02  0.97515685351E+01  0.21296754826E+02  0.59301868340E+02  0.49999861964E+02 0.  0.
         12    1    1    2    0    0 -0.21635168989E+02 -0.97515685351E+01 -0.21296754826E+02  0.31886131660E+02  0.00000000000E+00 0. -1.
         11    1    3    3    0    0 -0.21495663764E+01  0.68830234220E+01 -0.83265003622E+01  0.11014865209E+02  0.51100000000E-03 0. -1.
        -11    1    3    3    0    0  0.23123509751E+02  0.13051416137E+02  0.15126396519E+02  0.30558861862E+02  0.51100000000E-03 0.  1.
        -12    1    3    3    0    0  0.66122561477E+00 -0.10182871024E+02  0.14496858669E+02  0.17728141269E+02  0.00000000000E+00 0.  1.
</event>
<event>
 7    1  0.3223600E-013  0.5930193E+02  0.7816164E-02  0.1266605E+00
        -11   -1    0    0    0    0  0.00000000000E+00  0.00000000000E+00  0.45593999997E+02  0.45594000000E+02  0.51100000000E-03 0.  1.
         11   -1    0    0    0    0 -0.00000000000E+00 -0.00000000000E+00 -0.45593999997E+02  0.45594000000E+02  0.51100000000E-03 0. -1.
    9900012    2    1    2    0    0 -0.68567441645E+01 -0.29246107495E+02  0.10694478622E+02  0.59301927537E+02  0.49999969924E+02 0.  0.
         12    1    1    2    0    0  0.68567441645E+01  0.29246107495E+02 -0.10694478622E+02  0.31886072463E+02  0.00000000000E+00 0. -1.
         11    1    3    3    0    0  0.24039587775E+01 -0.69254968103E+01  0.74648053134E+00  0.73687690504E+01  0.51100000000E-03 0. -1.
        -11    1    3    3    0    0  0.17536539208E+02 -0.71975242291E+01  0.93985245811E+01  0.21158138552E+02  0.51100000000E-03 0.  1.
         12    1    3    3    0    0 -0.26797242150E+02 -0.15123086456E+02  0.54947350925E+00  0.30775019934E+02  0.00000000000E+00 0. -1.
</event>
<event>
 7    1  0.3223600E-013  0.5930195E+02  0.7816164E-02  0.1266605E+00
        -11   -1    0    0    0    0  0.00000000000E+00  0.00000000000E+00  0.45593999997E+02  0.45594000000E+02  0.51100000000E-03 0.  1.
         11   -1    0    0    0    0 -0.00000000000E+00 -0.00000000000E+00 -0.45593999997E+02  0.45594000000E+02  0.51100000000E-03 0. -1.
    9900012    2    1    2    0    0  0.12633383893E+01  0.13501076600E+02  0.28859052030E+02  0.59301953250E+02  0.50000016820E+02 0.  0.
         12    1    1    2    0    0 -0.12633383893E+01 -0.13501076600E+02 -0.28859052030E+02  0.31886046750E+02  0.00000000000E+00 0. -1.
         11    1    3    3    0    0  0.40720346837E+01  0.20235761325E+02  0.18963966658E+02  0.28030332402E+02  0.51100000000E-03 0.  1.
        -11    1    3    3    0    0  0.51037017260E+01 -0.11118305045E+02  0.16159948021E+02  0.20268408884E+02  0.51100000000E-03 0. -1.
         12    1    3    3    0    0 -0.79123980203E+01  0.43836203198E+01 -0.62648626487E+01  0.11003211965E+02  0.00000000000E+00 0. -1.
</event>
<event>
 7    1  0.3223600E-013  0.5930195E+02  0.7816164E-02  0.1266605E+00
        -11   -1    0    0    0    0  0.00000000000E+00  0.00000000000E+00  0.45593999997E+02  0.45594000000E+02  0.51100000000E-03 0.  1.
         11   -1    0    0    0    0 -0.00000000000E+00 -0.00000000000E+00 -0.45593999997E+02  0.45594000000E+02  0.51100000000E-03 0. -1.
    9900012    2    1    2    0    0 -0.13040985424E+02  0.23196816473E+02  0.17565890375E+02  0.59301951327E+02  0.50000013312E+02 0.  0.
         12    1    1    2    0    0  0.13040985424E+02 -0.23196816473E+02 -0.17565890375E+02  0.31886048673E+02  0.00000000000E+00 0. -1.
         11    1    3    3    0    0  0.15643856609E+02  0.54660926299E+01  0.14046488378E+02  0.21723541476E+02  0.51100000000E-03 0. -1.
        -11    1    3    3    0    0 -0.16201575461E+02  0.44485903012E+01  0.82924243039E+01  0.18736203036E+02  0.51100000000E-03 0.  1.
        -12    1    3    3    0    0 -0.12483266572E+02  0.13282133542E+02 -0.47730223068E+01  0.18842206815E+02  0.00000000000E+00 0.  1.
</event>
<event>
 7    1  0.3223600E-013  0.5930195E+02  0.7816164E-02  0.1266605E+00
        -11   -1    0    0    0    0  0.00000000000E+00  0.00000000000E+00  0.45593999997E+02  0.45594000000E+02  0.51100000000E-03 0.  1.
         11   -1    0    0    0    0 -0.00000000000E+00 -0.00000000000E+00 -0.45593999997E+02  0.45594000000E+02  0.51100000000E-03 0. -1.
    9900012    2    1    2    0    0  0.70925653073E+01  0.29848606238E+02  0.86877260111E+01  0.59301947246E+02  0.50000005870E+02 0.  0.
         12    1    1    2    0    0 -0.70925653073E+01 -0.29848606238E+02 -0.86877260111E+01  0.31886052754E+02  0.00000000000E+00 0. -1.
         11    1    3    3    0    0 -0.13348324137E+01 -0.35779270041E+01  0.12004160810E+02  0.12596952657E+02  0.51100000000E-03 0. -1.
        -11    1    3    3    0    0  0.14524175852E+02  0.30780903449E+01 -0.51015137904E+01  0.15698782359E+02  0.51100000000E-03 0.  1.
         12    1    3    3    0    0 -0.60967781308E+01  0.30348442897E+02  0.17850789911E+01  0.31006212230E+02  0.00000000000E+00 0. -1.
</event>
<event>
 7    1  0.3223600E-013  0.5930196E+02  0.7816164E-02  0.1266605E+00
        -11   -1    0    0    0    0  0.00000000000E+00  0.00000000000E+00  0.45593999997E+02  0.45594000000E+02  0.51100000000E-03 0. -1.
         11   -1    0    0    0    0 -0.00000000000E+00 -0.00000000000E+00 -0.45593999997E+02  0.45594000000E+02  0.51100000000E-03 0.  1.
    9900012    2    1    2    0    0 -0.16888881123E+02  0.85411978377E+01 -0.25661898979E+02  0.59301961907E+02  0.50000032607E+02 0.  0.
         12    1    1    2    0    0  0.16888881123E+02 -0.85411978377E+01  0.25661898979E+02  0.31886038093E+02  0.00000000000E+00 0. -1.
         11    1    3    3    0    0 -0.58824988661E+01  0.52030505674E+01  0.34444061479E+01  0.85755152667E+01  0.51100000000E-03 0. -1.
        -11    1    3    3    0    0 -0.24373517695E+02 -0.37959955252E+01 -0.24790309162E+02  0.34971951268E+02  0.51100000000E-03 0.  1.
         12    1    3    3    0    0  0.13367135439E+02  0.71341427955E+01 -0.43159959648E+01  0.15754495372E+02  0.00000000000E+00 0. -1.
</event>
<event>
 7    1  0.3223600E-013  0.5930190E+02  0.7816164E-02  0.1266605E+00
        -11   -1    0    0    0    0  0.00000000000E+00  0.00000000000E+00  0.45593999997E+02  0.45594000000E+02  0.51100000000E-03 0.  1.
         11   -1    0    0    0    0 -0.00000000000E+00 -0.00000000000E+00 -0.45593999997E+02  0.45594000000E+02  0.51100000000E-03 0. -1.
    9900012    2    1    2    0    0  0.25024867909E+02 -0.10215283102E+02  0.16915303221E+02  0.59301897921E+02  0.49999915912E+02 0.  0.
         12    1    1    2    0    0 -0.25024867909E+02  0.10215283102E+02 -0.16915303221E+02  0.31886102079E+02  0.00000000000E+00 0. -1.
         11    1    3    3    0    0  0.28102709796E+02 -0.70643360166E+01  0.14407533977E+02  0.32361152279E+02  0.51100000000E-03 0. -1.
        -11    1    3    3    0    0 -0.23958621059E+01  0.52190804186E+01 -0.10201973519E+02  0.11707229373E+02  0.51100000000E-03 0.  1.
        -12    1    3    3    0    0 -0.68197978105E+00 -0.83700275039E+01  0.12709742763E+02  0.15233516270E+02  0.00000000000E+00 0.  1.
</event>
<event>
 7    1  0.3223600E-013  0.5930192E+02  0.7816164E-02  0.1266605E+00
        -11   -1    0    0    0    0  0.00000000000E+00  0.00000000000E+00  0.45593999997E+02  0.45594000000E+02  0.51100000000E-03 0.  1.
         11   -1    0    0    0    0 -0.00000000000E+00 -0.00000000000E+00 -0.45593999997E+02  0.45594000000E+02  0.51100000000E-03 0. -1.
    9900012    2    1    2    0    0  0.21517351049E+02 -0.16973515801E+02  0.16298027421E+02  0.59301916317E+02  0.49999949462E+02 0.  0.
         12    1    1    2    0    0 -0.21517351049E+02  0.16973515801E+02 -0.16298027421E+02  0.31886083683E+02  0.00000000000E+00 0. -1.
         11    1    3    3    0    0  0.81020276265E+01 -0.12491781847E+02  0.19049055170E+02  0.24177550920E+02  0.51100000000E-03 0.  1.
        -11    1    3    3    0    0  0.92580866137E+01 -0.17322369447E+02 -0.71906927304E+01  0.20916087426E+02  0.51100000000E-03 0. -1.
         12    1    3    3    0    0  0.41572368092E+01  0.12840635493E+02  0.44396649815E+01  0.14208277971E+02  0.00000000000E+00 0. -1.
</event>
<event>
 7    1  0.3223600E-013  0.5930198E+02  0.7816164E-02  0.1266605E+00
        -11   -1    0    0    0    0  0.00000000000E+00  0.00000000000E+00  0.45593999997E+02  0.45594000000E+02  0.51100000000E-03 0.  1.
         11   -1    0    0    0    0 -0.00000000000E+00 -0.00000000000E+00 -0.45593999997E+02  0.45594000000E+02  0.51100000000E-03 0. -1.
    9900012    2    1    2    0    0  0.12111907173E+02 -0.41547808000E+01  0.29202015025E+02  0.59301981428E+02  0.50000068208E+02 0.  0.
         12    1    1    2    0    0 -0.12111907173E+02  0.41547808000E+01 -0.29202015025E+02  0.31886018572E+02  0.00000000000E+00 0. -1.
         11    1    3    3    0    0  0.32741329516E+01 -0.11937925036E+02 -0.78996431208E+01  0.14684630144E+02  0.51100000000E-03 0. -1.
        -11    1    3    3    0    0  0.91709271732E+01  0.55977120108E+00  0.28634134973E+01  0.96238446648E+01  0.51100000000E-03 0.  1.
        -12    1    3    3    0    0 -0.33315295187E+00  0.72233730352E+01  0.34238244649E+02  0.34993506619E+02  0.00000000000E+00 0.  1.
</event>
<event>
 7    1  0.3223600E-013  0.5930194E+02  0.7816164E-02  0.1266605E+00
        -11   -1    0    0    0    0  0.00000000000E+00  0.00000000000E+00  0.45593999997E+02  0.45594000000E+02  0.51100000000E-03 0. -1.
         11   -1    0    0    0    0 -0.00000000000E+00 -0.00000000000E+00 -0.45593999997E+02  0.45594000000E+02  0.51100000000E-03 0.  1.
    9900012    2    1    2    0    0 -0.55115781820E+00  0.28656861971E+02  0.13971443353E+02  0.59301941254E+02  0.49999994941E+02 0.  0.
         12    1    1    2    0    0  0.55115781820E+00 -0.28656861971E+02 -0.13971443353E+02  0.31886058746E+02  0.00000000000E+00 0. -1.
         11    1    3    3    0    0  0.19674020721E+02  0.58067631222E+01  0.14554641347E+02  0.25152001398E+02  0.51100000000E-03 0. -1.
        -11    1    3    3    0    0 -0.95060749907E+00  0.25387393030E+01  0.49160623072E+01  0.56139576713E+01  0.51100000000E-03 0.  1.
        -12    1    3    3    0    0 -0.19274571040E+02  0.20311359546E+02 -0.54992603013E+01  0.28535982185E+02  0.00000000000E+00 0.  1.
</event>
<event>
 7    1  0.3223600E-013  0.5930194E+02  0.7816164E-02  0.1266605E+00
        -11   -1    0    0    0    0  0.00000000000E+00  0.00000000000E+00  0.45593999997E+02  0.45594000000E+02  0.51100000000E-03 0. -1.
         11   -1    0    0    0    0 -0.00000000000E+00 -0.00000000000E+00 -0.45593999997E+02  0.45594000000E+02  0.51100000000E-03 0.  1.
    9900012    2    1    2    0    0 -0.25308791717E+02 -0.19378235003E+02 -0.81838862690E+00  0.59301942076E+02  0.49999996440E+02 0.  0.
         12    1    1    2    0    0  0.25308791717E+02  0.19378235003E+02  0.81838862690E+00  0.31886057924E+02  0.00000000000E+00 0. -1.
         11    1    3    3    0    0 -0.13302470242E+01  0.15824635724E+01  0.12722694052E+02  0.12889557491E+02  0.51100000000E-03 0. -1.
        -11    1    3    3    0    0 -0.30848105777E+02 -0.14753116839E+02 -0.65632213100E+01  0.34818615147E+02  0.51100000000E-03 0.  1.
        -12    1    3    3    0    0  0.68695610848E+01 -0.62075817367E+01 -0.69778613688E+01  0.11593769439E+02  0.00000000000E+00 0.  1.
</event>
<event>
 7    1  0.3223600E-013  0.5930194E+02  0.7816164E-02  0.1266605E+00
        -11   -1    0    0    0    0  0.00000000000E+00  0.00000000000E+00  0.45593999997E+02  0.45594000000E+02  0.51100000000E-03 0. -1.
         11   -1    0    0    0    0 -0.00000000000E+00 -0.00000000000E+00 -0.45593999997E+02  0.45594000000E+02  0.51100000000E-03 0.  1.
    9900012    2    1    2    0    0  0.17068947714E+02 -0.20536719934E+02 -0.17424549734E+02  0.59301940740E+02  0.49999994004E+02 0.  0.
         12    1    1    2    0    0 -0.17068947714E+02  0.20536719934E+02  0.17424549734E+02  0.31886059260E+02  0.00000000000E+00 0. -1.
         11    1    3    3    0    0 -0.45005188274E+01 -0.59952722159E+01 -0.58108268230E+01  0.94849178851E+01  0.51100000000E-03 0. -1.
        -11    1    3    3    0    0  0.55569241988E+01 -0.27057487301E+02 -0.10195992810E+02  0.29443934779E+02  0.51100000000E-03 0.  1.
        -12    1    3    3    0    0  0.16012542342E+02  0.12516039583E+02 -0.14177301010E+01  0.20373088076E+02  0.00000000000E+00 0.  1.
</event>
<event>
 7    1  0.3223600E-013  0.5930181E+02  0.7816164E-02  0.1266605E+00
        -11   -1    0    0    0    0  0.00000000000E+00  0.00000000000E+00  0.45593999997E+02  0.45594000000E+02  0.51100000000E-03 0. -1.
         11   -1    0    0    0    0 -0.00000000000E+00 -0.00000000000E+00 -0.45593999997E+02  0.45594000000E+02  0.51100000000E-03 0.  1.
    9900012    2    1    2    0    0 -0.26288457983E+02 -0.81595971778E+01  0.16095566188E+02  0.59301807061E+02  0.49999750205E+02 0.  0.
         12    1    1    2    0    0  0.26288457983E+02  0.81595971778E+01 -0.16095566188E+02  0.31886192939E+02  0.00000000000E+00 0. -1.
         11    1    3    3    0    0  0.29586312561E+01 -0.27855802168E+01 -0.55997190287E+01  0.69188011618E+01  0.51100000000E-03 0. -1.
        -11    1    3    3    0    0 -0.88794819235E+01  0.18280820196E+00 -0.10581526857E+02  0.13814750412E+02  0.51100000000E-03 0.  1.
         12    1    3    3    0    0 -0.20367607316E+02 -0.55568251629E+01  0.32276812074E+02  0.38568255487E+02  0.00000000000E+00 0. -1.
</event>
<event>
 7    1  0.3223600E-013  0.5930194E+02  0.7816164E-02  0.1266605E+00
        -11   -1    0    0    0    0  0.00000000000E+00  0.00000000000E+00  0.45593999997E+02  0.45594000000E+02  0.51100000000E-03 0. -1.
         11   -1    0    0    0    0 -0.00000000000E+00 -0.00000000000E+00 -0.45593999997E+02  0.45594000000E+02  0.51100000000E-03 0.  1.
    9900012    2    1    2    0    0  0.38503789814E+01 -0.21110636783E+02 -0.23584667281E+02  0.59301938242E+02  0.49999989448E+02 0.  0.
         12    1    1    2    0    0 -0.38503789814E+01  0.21110636783E+02  0.23584667281E+02  0.31886061758E+02  0.00000000000E+00 0. -1.
         11    1    3    3    0    0 -0.99461268991E+01 -0.51331919114E+01 -0.48000042421E+01  0.12178470367E+02  0.51100000000E-03 0. -1.
        -11    1    3    3    0    0 -0.42062661472E+01  0.10397702565E+02 -0.37392808656E+01  0.11823160118E+02  0.51100000000E-03 0.  1.
        -12    1    3    3    0    0  0.18002772028E+02 -0.26375147437E+02 -0.15045382173E+02  0.35300307757E+02  0.00000000000E+00 0.  1.
</event>
<event>
 7    1  0.3223600E-013  0.5930195E+02  0.7816164E-02  0.1266605E+00
        -11   -1    0    0    0    0  0.00000000000E+00  0.00000000000E+00  0.45593999997E+02  0.45594000000E+02  0.51100000000E-03 0. -1.
         11   -1    0    0    0    0 -0.00000000000E+00 -0.00000000000E+00 -0.45593999997E+02  0.45594000000E+02  0.51100000000E-03 0.  1.
    9900012    2    1    2    0    0  0.27753179593E+02  0.77632879514E+01  0.13645979318E+02  0.59301947111E+02  0.50000005623E+02 0.  0.
         12    1    1    2    0    0 -0.27753179593E+02 -0.77632879514E+01 -0.13645979318E+02  0.31886052889E+02  0.00000000000E+00 0. -1.
         11    1    3    3    0    0  0.99663940870E+01  0.89235194840E+01  0.21835508158E+02  0.25607569737E+02  0.51100000000E-03 0. -1.
        -11    1    3    3    0    0  0.98673069767E+01  0.13082290037E+02 -0.39467116519E+01  0.16854868517E+02  0.51100000000E-03 0.  1.
         12    1    3    3    0    0  0.79194785289E+01 -0.14242521570E+02 -0.42428171880E+01  0.16839508857E+02  0.00000000000E+00 0. -1.
</event>
<event>
 7    1  0.3223600E-013  0.5930206E+02  0.7816164E-02  0.1266604E+00
        -11   -1    0    0    0    0  0.00000000000E+00  0.00000000000E+00  0.45593999997E+02  0.45594000000E+02  0.51100000000E-03 0.  1.
         11   -1    0    0    0    0 -0.00000000000E+00 -0.00000000000E+00 -0.45593999997E+02  0.45594000000E+02  0.51100000000E-03 0. -1.
    9900012    2    1    2    0    0  0.78767298737E+01  0.28268212295E+02  0.12473121849E+02  0.59302055314E+02  0.50000202959E+02 0.  0.
         12    1    1    2    0    0 -0.78767298737E+01 -0.28268212295E+02 -0.12473121849E+02  0.31885944686E+02  0.00000000000E+00 0. -1.
         11    1    3    3    0    0 -0.56101035644E+01  0.24074728235E+02 -0.24073274368E+01  0.24836687123E+02  0.51100000000E-03 0. -1.
        -11    1    3    3    0    0  0.12833411421E+02 -0.46512319378E+01 -0.34697323633E+01  0.14084369002E+02  0.51100000000E-03 0.  1.
        -12    1    3    3    0    0  0.65342201705E+00  0.88447159977E+01  0.18350181649E+02  0.20380999189E+02  0.00000000000E+00 0.  1.
</event>
<event>
 7    1  0.3223600E-013  0.5930193E+02  0.7816164E-02  0.1266605E+00
        -11   -1    0    0    0    0  0.00000000000E+00  0.00000000000E+00  0.45593999997E+02  0.45594000000E+02  0.51100000000E-03 0.  1.
         11   -1    0    0    0    0 -0.00000000000E+00 -0.00000000000E+00 -0.45593999997E+02  0.45594000000E+02  0.51100000000E-03 0. -1.
    9900012    2    1    2    0    0 -0.37815710825E+01  0.19311982832E+02  0.25089206324E+02  0.59301933533E+02  0.49999980861E+02 0.  0.
         12    1    1    2    0    0  0.37815710825E+01 -0.19311982832E+02 -0.25089206324E+02  0.31886066467E+02  0.00000000000E+00 0. -1.
         11    1    3    3    0    0 -0.19067352893E+02  0.12531627759E+01  0.10489156267E+02  0.21798090805E+02  0.51100000000E-03 0. -1.
        -11    1    3    3    0    0 -0.69260692639E+01  0.29836059880E+01  0.17476008802E+01  0.77412175553E+01  0.51100000000E-03 0.  1.
         12    1    3    3    0    0  0.22211851074E+02  0.15075214068E+02  0.12852449177E+02  0.29762625173E+02  0.00000000000E+00 0. -1.
</event>
<event>
 7    1  0.3223600E-013  0.5930194E+02  0.7816164E-02  0.1266605E+00
        -11   -1    0    0    0    0  0.00000000000E+00  0.00000000000E+00  0.45593999997E+02  0.45594000000E+02  0.51100000000E-03 0. -1.
         11   -1    0    0    0    0 -0.00000000000E+00 -0.00000000000E+00 -0.45593999997E+02  0.45594000000E+02  0.51100000000E-03 0.  1.
    9900012    2    1    2    0    0 -0.25454611406E+02  0.16881565203E+02 -0.91540367488E+01  0.59301939184E+02  0.49999991167E+02 0.  0.
         12    1    1    2    0    0  0.25454611406E+02 -0.16881565203E+02  0.91540367488E+01  0.31886060816E+02  0.00000000000E+00 0. -1.
         11    1    3    3    0    0 -0.92322059057E-01  0.17969980029E+02 -0.14838019615E+02  0.23304410139E+02  0.51100000000E-03 0. -1.
        -11    1    3    3    0    0 -0.35534391434E+01  0.10019231297E+02  0.43510378368E+01  0.11486664269E+02  0.51100000000E-03 0.  1.
         12    1    3    3    0    0 -0.21808850204E+02 -0.11107646122E+02  0.13329450295E+01  0.24510864775E+02  0.00000000000E+00 0. -1.
</event>
<event>
 7    1  0.3223600E-013  0.5930195E+02  0.7816164E-02  0.1266605E+00
        -11   -1    0    0    0    0  0.00000000000E+00  0.00000000000E+00  0.45593999997E+02  0.45594000000E+02  0.51100000000E-03 0.  1.
         11   -1    0    0    0    0 -0.00000000000E+00 -0.00000000000E+00 -0.45593999997E+02  0.45594000000E+02  0.51100000000E-03 0. -1.
    9900012    2    1    2    0    0  0.50607187560E+01  0.25545299493E+02  0.18399638117E+02  0.59301954724E+02  0.50000019507E+02 0.  0.
         12    1    1    2    0    0 -0.50607187560E+01 -0.25545299493E+02 -0.18399638117E+02  0.31886045276E+02  0.00000000000E+00 0. -1.
         11    1    3    3    0    0 -0.99562577281E+01 -0.49799291176E+01 -0.58235198565E+01  0.12563444820E+02  0.51100000000E-03 0. -1.
        -11    1    3    3    0    0 -0.25609085221E+01 -0.86134986083E-01  0.70147205269E+01  0.74680637401E+01  0.51100000000E-03 0.  1.
         12    1    3    3    0    0  0.17577885006E+02  0.30611363597E+02  0.17208437447E+02  0.39270446164E+02  0.00000000000E+00 0. -1.
</event>
<event>
 7    1  0.3223600E-013  0.5930201E+02  0.7816164E-02  0.1266605E+00
        -11   -1    0    0    0    0  0.00000000000E+00  0.00000000000E+00  0.45593999997E+02  0.45594000000E+02  0.51100000000E-03 0. -1.
         11   -1    0    0    0    0 -0.00000000000E+00 -0.00000000000E+00 -0.45593999997E+02  0.45594000000E+02  0.51100000000E-03 0.  1.
    9900012    2    1    2    0    0  0.12031324706E+01  0.31054113646E+02  0.71351794250E+01  0.59302011110E+02  0.50000122342E+02 0.  0.
         12    1    1    2    0    0 -0.12031324706E+01 -0.31054113646E+02 -0.71351794250E+01  0.31885988890E+02  0.00000000000E+00 0. -1.
         11    1    3    3    0    0  0.26665869953E+01  0.12505316468E+02 -0.37843277582E+01  0.13334720208E+02  0.51100000000E-03 0. -1.
        -11    1    3    3    0    0  0.80468797021E+01  0.29051833068E+02  0.10029797156E+02  0.31770396737E+02  0.51100000000E-03 0.  1.
         12    1    3    3    0    0 -0.95103342268E+01 -0.10503035891E+02  0.88971002697E+00  0.14196894166E+02  0.00000000000E+00 0. -1.
</event>
<event>
 7    1  0.3223600E-013  0.5930195E+02  0.7816164E-02  0.1266605E+00
        -11   -1    0    0    0    0  0.00000000000E+00  0.00000000000E+00  0.45593999997E+02  0.45594000000E+02  0.51100000000E-03 0.  1.
         11   -1    0    0    0    0 -0.00000000000E+00 -0.00000000000E+00 -0.45593999997E+02  0.45594000000E+02  0.51100000000E-03 0. -1.
    9900012    2    1    2    0    0 -0.31313068822E+01  0.57371979693E+01  0.31208965483E+02  0.59301952113E+02  0.50000014745E+02 0.  0.
         12    1    1    2    0    0  0.31313068822E+01 -0.57371979693E+01 -0.31208965483E+02  0.31886047887E+02  0.00000000000E+00 0. -1.
         11    1    3    3    0    0 -0.68023408120E+01 -0.80317525776E+01  0.95688056418E+01  0.14224729581E+02  0.51100000000E-03 0. -1.
        -11    1    3    3    0    0  0.29370061108E+01  0.67097409303E+01  0.31828603434E+02  0.32660474967E+02  0.51100000000E-03 0.  1.
         12    1    3    3    0    0  0.73402781901E+00  0.70592096166E+01 -0.10188443592E+02  0.12416747565E+02  0.00000000000E+00 0. -1.
</event>
<event>
 7    1  0.3223600E-013  0.5930191E+02  0.7816164E-02  0.1266605E+00
        -11   -1    0    0    0    0  0.00000000000E+00  0.00000000000E+00  0.45593999997E+02  0.45594000000E+02  0.51100000000E-03 0.  1.
         11   -1    0    0    0    0 -0.00000000000E+00 -0.00000000000E+00 -0.45593999997E+02  0.45594000000E+02  0.51100000000E-03 0. -1.
    9900012    2    1    2    0    0  0.14298379730E+02 -0.15000932627E+02  0.24233264344E+02  0.59301909877E+02  0.49999937717E+02 0.  0.
         12    1    1    2    0    0 -0.14298379730E+02  0.15000932627E+02 -0.24233264344E+02  0.31886090123E+02  0.00000000000E+00 0. -1.
         11    1    3    3    0    0  0.12019650530E+02  0.81565698459E+01 -0.27356605210E+01  0.14781253982E+02  0.51100000000E-03 0. -1.
        -11    1    3    3    0    0 -0.60401197623E+01 -0.71467076795E+01 -0.27503379700E+01  0.97530936943E+01  0.51100000000E-03 0.  1.
        -12    1    3    3    0    0  0.83188489617E+01 -0.16010794793E+02  0.29719262835E+02  0.34767562201E+02  0.00000000000E+00 0.  1.
</event>
<event>
 7    1  0.3223600E-013  0.5930158E+02  0.7816164E-02  0.1266606E+00
        -11   -1    0    0    0    0  0.00000000000E+00  0.00000000000E+00  0.45593999997E+02  0.45594000000E+02  0.51100000000E-03 0.  1.
         11   -1    0    0    0    0 -0.00000000000E+00 -0.00000000000E+00 -0.45593999997E+02  0.45594000000E+02  0.51100000000E-03 0. -1.
    9900012    2    1    2    0    0 -0.65333221360E+01 -0.60517037802E+01  0.30617581128E+02  0.59301581404E+02  0.49999338657E+02 0.  0.
         12    1    1    2    0    0  0.65333221360E+01  0.60517037802E+01 -0.30617581128E+02  0.31886418596E+02  0.00000000000E+00 0. -1.
         11    1    3    3    0    0  0.12155584580E+02 -0.36694525656E+01  0.20377145960E+02  0.24009398083E+02  0.51100000000E-03 0. -1.
        -11    1    3    3    0    0  0.22773271527E+01  0.51163376516E+01  0.11706535778E+02  0.12977137979E+02  0.51100000000E-03 0.  1.
        -12    1    3    3    0    0 -0.20966233868E+02 -0.74985888663E+01 -0.14661006102E+01  0.22315045342E+02  0.00000000000E+00 0.  1.
</event>
<event>
 7    1  0.3223600E-013  0.5930201E+02  0.7816164E-02  0.1266605E+00
        -11   -1    0    0    0    0  0.00000000000E+00  0.00000000000E+00  0.45593999997E+02  0.45594000000E+02  0.51100000000E-03 0.  1.
         11   -1    0    0    0    0 -0.00000000000E+00 -0.00000000000E+00 -0.45593999997E+02  0.45594000000E+02  0.51100000000E-03 0. -1.
    9900012    2    1    2    0    0 -0.22082512224E+02  0.19174071456E+02  0.12705676624E+02  0.59302006510E+02  0.50000113953E+02 0.  0.
         12    1    1    2    0    0  0.22082512224E+02 -0.19174071456E+02 -0.12705676624E+02  0.31885993490E+02  0.00000000000E+00 0. -1.
         11    1    3    3    0    0  0.28731384699E+01  0.98745740978E+01  0.18520475910E+02  0.21184196149E+02  0.51100000000E-03 0. -1.
        -11    1    3    3    0    0 -0.96757774810E+01  0.91932416837E+01  0.95785357244E+01  0.16428168169E+02  0.51100000000E-03 0.  1.
        -12    1    3    3    0    0 -0.15279873213E+02  0.10625567473E+00 -0.15393335010E+02  0.21689642192E+02  0.00000000000E+00 0.  1.
</event>
<event>
 7    1  0.3223600E-013  0.5930194E+02  0.7816164E-02  0.1266605E+00
        -11   -1    0    0    0    0  0.00000000000E+00  0.00000000000E+00  0.45593999997E+02  0.45594000000E+02  0.51100000000E-03 0.  1.
         11   -1    0    0    0    0 -0.00000000000E+00 -0.00000000000E+00 -0.45593999997E+02  0.45594000000E+02  0.51100000000E-03 0. -1.
    9900012    2    1    2    0    0 -0.26521833071E+01  0.22886709366E+02  0.22042800434E+02  0.59301943598E+02  0.49999999216E+02 0.  0.
         12    1    1    2    0    0  0.26521833071E+01 -0.22886709366E+02 -0.22042800434E+02  0.31886056402E+02  0.00000000000E+00 0. -1.
         11    1    3    3    0    0  0.41950709949E+01  0.15216136781E+02  0.19582724771E+02  0.25151790173E+02  0.51100000000E-03 0.  1.
        -11    1    3    3    0    0  0.35759882324E+01 -0.38446932667E+00  0.15322545542E+02  0.15738993317E+02  0.51100000000E-03 0. -1.
         12    1    3    3    0    0 -0.10423242534E+02  0.80550419114E+01 -0.12862469879E+02  0.18411160108E+02  0.00000000000E+00 0. -1.
</event>
<event>
 7    1  0.3223600E-013  0.5930193E+02  0.7816164E-02  0.1266605E+00
        -11   -1    0    0    0    0  0.00000000000E+00  0.00000000000E+00  0.45593999997E+02  0.45594000000E+02  0.51100000000E-03 0.  1.
         11   -1    0    0    0    0 -0.00000000000E+00 -0.00000000000E+00 -0.45593999997E+02  0.45594000000E+02  0.51100000000E-03 0. -1.
    9900012    2    1    2    0    0  0.20885053708E+02  0.15517213779E+02  0.18432356203E+02  0.59301934908E+02  0.49999983368E+02 0.  0.
         12    1    1    2    0    0 -0.20885053708E+02 -0.15517213779E+02 -0.18432356203E+02  0.31886065092E+02  0.00000000000E+00 0. -1.
         11    1    3    3    0    0 -0.15670719735E+01  0.72332689001E+01 -0.67682420851E+01  0.10029207084E+02  0.51100000000E-03 0. -1.
        -11    1    3    3    0    0 -0.74240718261E+01  0.92795758472E+01  0.36853055752E+01  0.12442220374E+02  0.51100000000E-03 0.  1.
        -12    1    3    3    0    0  0.29876197508E+02 -0.99563096875E+00  0.21515292713E+02  0.36830507451E+02  0.00000000000E+00 0.  1.
</event>
<event>
 7    1  0.3223600E-013  0.5930203E+02  0.7816164E-02  0.1266604E+00
        -11   -1    0    0    0    0  0.00000000000E+00  0.00000000000E+00  0.45593999997E+02  0.45594000000E+02  0.51100000000E-03 0.  1.
         11   -1    0    0    0    0 -0.00000000000E+00 -0.00000000000E+00 -0.45593999997E+02  0.45594000000E+02  0.51100000000E-03 0. -1.
    9900012    2    1    2    0    0 -0.17029589073E+02 -0.26377940070E+02  0.55598972563E+01  0.59302029984E+02  0.50000156763E+02 0.  0.
         12    1    1    2    0    0  0.17029589073E+02  0.26377940070E+02 -0.55598972563E+01  0.31885970016E+02  0.00000000000E+00 0. -1.
         11    1    3    3    0    0 -0.18627964586E+02 -0.69628371582E+01 -0.35339018898E+01  0.20198282816E+02  0.51100000000E-03 0. -1.
        -11    1    3    3    0    0 -0.15475457376E+02 -0.93004660817E+01  0.27106431017E+01  0.18257492616E+02  0.51100000000E-03 0.  1.
        -12    1    3    3    0    0  0.17073832889E+02 -0.10114636830E+02  0.63831560444E+01  0.20846254551E+02  0.00000000000E+00 0.  1.
</event>
<event>
 7    1  0.3223600E-013  0.5930194E+02  0.7816164E-02  0.1266605E+00
        -11   -1    0    0    0    0  0.00000000000E+00  0.00000000000E+00  0.45593999997E+02  0.45594000000E+02  0.51100000000E-03 0. -1.
         11   -1    0    0    0    0 -0.00000000000E+00 -0.00000000000E+00 -0.45593999997E+02  0.45594000000E+02  0.51100000000E-03 0.  1.
    9900012    2    1    2    0    0  0.68472765509E+00 -0.28372298004E+02  0.14534939888E+02  0.59301943117E+02  0.49999998339E+02 0.  0.
         12    1    1    2    0    0 -0.68472765509E+00  0.28372298004E+02 -0.14534939888E+02  0.31886056883E+02  0.00000000000E+00 0. -1.
         11    1    3    3    0    0  0.24697549403E+01 -0.63125305852E+01  0.12168308490E+02  0.13928943378E+02  0.51100000000E-03 0. -1.
        -11    1    3    3    0    0  0.10100400230E+02  0.25998423915E+01 -0.10785066961E+02  0.15003164162E+02  0.51100000000E-03 0.  1.
         12    1    3    3    0    0 -0.11885427515E+02 -0.24659609810E+02  0.13151698360E+02  0.30369835577E+02  0.00000000000E+00 0. -1.
</event>
<event>
 7    1  0.3223600E-013  0.5930196E+02  0.7816164E-02  0.1266605E+00
        -11   -1    0    0    0    0  0.00000000000E+00  0.00000000000E+00  0.45593999997E+02  0.45594000000E+02  0.51100000000E-03 0.  1.
         11   -1    0    0    0    0 -0.00000000000E+00 -0.00000000000E+00 -0.45593999997E+02  0.45594000000E+02  0.51100000000E-03 0. -1.
    9900012    2    1    2    0    0 -0.15734583362E+02 -0.25274589942E+02 -0.11416558024E+02  0.59301955915E+02  0.50000021679E+02 0.  0.
         12    1    1    2    0    0  0.15734583362E+02  0.25274589942E+02  0.11416558024E+02  0.31886044085E+02  0.00000000000E+00 0. -1.
         11    1    3    3    0    0 -0.58192919283E+00  0.11668274809E+01  0.60468928209E+01  0.61858743120E+01  0.51100000000E-03 0.  1.
        -11    1    3    3    0    0 -0.13091732479E+02 -0.55275297663E+01 -0.26633295909E+02  0.30187406246E+02  0.51100000000E-03 0. -1.
         12    1    3    3    0    0 -0.20609216905E+01 -0.20913887656E+02  0.91698450642E+01  0.22928675357E+02  0.00000000000E+00 0. -1.
</event>
<event>
 7    1  0.3223600E-013  0.5930193E+02  0.7816164E-02  0.1266605E+00
        -11   -1    0    0    0    0  0.00000000000E+00  0.00000000000E+00  0.45593999997E+02  0.45594000000E+02  0.51100000000E-03 0.  1.
         11   -1    0    0    0    0 -0.00000000000E+00 -0.00000000000E+00 -0.45593999997E+02  0.45594000000E+02  0.51100000000E-03 0. -1.
    9900012    2    1    2    0    0 -0.22982776216E+02 -0.82350431459E+01  0.20510906183E+02  0.59301933911E+02  0.49999981549E+02 0.  0.
         12    1    1    2    0    0  0.22982776216E+02  0.82350431459E+01 -0.20510906183E+02  0.31886066089E+02  0.00000000000E+00 0. -1.
         11    1    3    3    0    0 -0.89461534403E+01  0.33752181047E+01  0.25688063594E+02  0.27409895478E+02  0.51100000000E-03 0. -1.
        -11    1    3    3    0    0 -0.13433881620E+02 -0.62907132320E+01  0.85754236175E+01  0.17134180425E+02  0.51100000000E-03 0.  1.
         12    1    3    3    0    0 -0.60274115556E+00 -0.53195480186E+01 -0.13752581029E+02  0.14757858008E+02  0.00000000000E+00 0. -1.
</event>
<event>
 7    1  0.3223600E-013  0.5930192E+02  0.7816164E-02  0.1266605E+00
        -11   -1    0    0    0    0  0.00000000000E+00  0.00000000000E+00  0.45593999997E+02  0.45594000000E+02  0.51100000000E-03 0.  1.
         11   -1    0    0    0    0 -0.00000000000E+00 -0.00000000000E+00 -0.45593999997E+02  0.45594000000E+02  0.51100000000E-03 0. -1.
    9900012    2    1    2    0    0  0.93550287338E+01  0.97637161445E+01  0.28876896683E+02  0.59301923453E+02  0.49999962476E+02 0.  0.
         12    1    1    2    0    0 -0.93550287338E+01 -0.97637161445E+01 -0.28876896683E+02  0.31886076547E+02  0.00000000000E+00 0. -1.
         11    1    3    3    0    0  0.46534307320E+01  0.74838052232E+01  0.26946043026E+01  0.92153486535E+01  0.51100000000E-03 0. -1.
        -11    1    3    3    0    0  0.11235102489E+02 -0.17807492499E+02  0.91753827082E+01  0.22967846333E+02  0.51100000000E-03 0.  1.
        -12    1    3    3    0    0 -0.65335044873E+01  0.20087403421E+02  0.17006909672E+02  0.27118728467E+02  0.00000000000E+00 0.  1.
</event>
<event>
 7    1  0.3223600E-013  0.5930194E+02  0.7816164E-02  0.1266605E+00
        -11   -1    0    0    0    0  0.00000000000E+00  0.00000000000E+00  0.45593999997E+02  0.45594000000E+02  0.51100000000E-03 0.  1.
         11   -1    0    0    0    0 -0.00000000000E+00 -0.00000000000E+00 -0.45593999997E+02  0.45594000000E+02  0.51100000000E-03 0. -1.
    9900012    2    1    2    0    0  0.16613175817E+02 -0.25142332113E+02  0.10420488254E+02  0.59301936426E+02  0.49999986136E+02 0.  0.
         12    1    1    2    0    0 -0.16613175817E+02  0.25142332113E+02 -0.10420488254E+02  0.31886063574E+02  0.00000000000E+00 0. -1.
         11    1    3    3    0    0  0.12598313226E+02 -0.16579845868E+02  0.83753751561E+01  0.22444502543E+02  0.51100000000E-03 0. -1.
        -11    1    3    3    0    0 -0.46926012330E+01 -0.18719241985E+02 -0.71974222941E+01  0.20596927314E+02  0.51100000000E-03 0.  1.
        -12    1    3    3    0    0  0.87074638242E+01  0.10156755740E+02  0.92425353922E+01  0.16260506569E+02  0.00000000000E+00 0.  1.
</event>
<event>
 7    1  0.3223600E-013  0.5930194E+02  0.7816164E-02  0.1266605E+00
        -11   -1    0    0    0    0  0.00000000000E+00  0.00000000000E+00  0.45593999997E+02  0.45594000000E+02  0.51100000000E-03 0. -1.
         11   -1    0    0    0    0 -0.00000000000E+00 -0.00000000000E+00 -0.45593999997E+02  0.45594000000E+02  0.51100000000E-03 0.  1.
    9900012    2    1    2    0    0 -0.22784481413E+02 -0.10541103574E+02 -0.19658924451E+02  0.59301940846E+02  0.49999994197E+02 0.  0.
         12    1    1    2    0    0  0.22784481413E+02  0.10541103574E+02  0.19658924451E+02  0.31886059154E+02  0.00000000000E+00 0. -1.
         11    1    3    3    0    0  0.17047997739E+01  0.11436097180E+02 -0.95750728862E+01  0.15012417594E+02  0.51100000000E-03 0. -1.
        -11    1    3    3    0    0 -0.15587390431E+02  0.36396098484E+01 -0.36811243510E+01  0.16424499293E+02  0.51100000000E-03 0.  1.
         12    1    3    3    0    0 -0.89018907564E+01 -0.25616810602E+02 -0.64027272140E+01  0.27865023959E+02  0.00000000000E+00 0. -1.
</event>
<event>
 7    1  0.3223600E-013  0.5930194E+02  0.7816164E-02  0.1266605E+00
        -11   -1    0    0    0    0  0.00000000000E+00  0.00000000000E+00  0.45593999997E+02  0.45594000000E+02  0.51100000000E-03 0.  1.
         11   -1    0    0    0    0 -0.00000000000E+00 -0.00000000000E+00 -0.45593999997E+02  0.45594000000E+02  0.51100000000E-03 0. -1.
    9900012    2    1    2    0    0  0.28278942556E+02  0.12900049099E+01  0.14675084255E+02  0.59301940309E+02  0.49999993217E+02 0.  0.
         12    1    1    2    0    0 -0.28278942556E+02 -0.12900049099E+01 -0.14675084255E+02  0.31886059691E+02  0.00000000000E+00 0. -1.
         11    1    3    3    0    0  0.10426037114E+02 -0.54281843589E+01  0.16817862441E+02  0.20518477835E+02  0.51100000000E-03 0. -1.
        -11    1    3    3    0    0 -0.19196662117E+01  0.34134303265E+01  0.13053238389E+02  0.13628046730E+02  0.51100000000E-03 0.  1.
         12    1    3    3    0    0  0.19772571654E+02  0.33047589423E+01 -0.15196016575E+02  0.25155415743E+02  0.00000000000E+00 0. -1.
</event>
<event>
 7    1  0.3223600E-013  0.5930195E+02  0.7816164E-02  0.1266605E+00
        -11   -1    0    0    0    0  0.00000000000E+00  0.00000000000E+00  0.45593999997E+02  0.45594000000E+02  0.51100000000E-03 0. -1.
         11   -1    0    0    0    0 -0.00000000000E+00 -0.00000000000E+00 -0.45593999997E+02  0.45594000000E+02  0.51100000000E-03 0.  1.
    9900012    2    1    2    0    0  0.14156152087E+02 -0.15667388981E+01 -0.28528388695E+02  0.59301948595E+02  0.50000008329E+02 0.  0.
         12    1    1    2    0    0 -0.14156152087E+02  0.15667388981E+01  0.28528388695E+02  0.31886051405E+02  0.00000000000E+00 0. -1.
         11    1    3    3    0    0  0.10219315069E+02 -0.30158031779E+01 -0.58730023147E+01  0.12166413841E+02  0.51100000000E-03 0. -1.
        -11    1    3    3    0    0  0.10081324333E+02 -0.17421430010E+02 -0.17398588171E+02  0.26605454225E+02  0.51100000000E-03 0.  1.
        -12    1    3    3    0    0 -0.61444873153E+01  0.18870494290E+02 -0.52567982092E+01  0.20530080529E+02  0.00000000000E+00 0.  1.
</event>
<event>
 7    1  0.3223600E-013  0.5930187E+02  0.7816164E-02  0.1266605E+00
        -11   -1    0    0    0    0  0.00000000000E+00  0.00000000000E+00  0.45593999997E+02  0.45594000000E+02  0.51100000000E-03 0.  1.
         11   -1    0    0    0    0 -0.00000000000E+00 -0.00000000000E+00 -0.45593999997E+02  0.45594000000E+02  0.51100000000E-03 0. -1.
    9900012    2    1    2    0    0  0.13311067039E+02  0.24544473699E+02  0.15398361632E+02  0.59301870793E+02  0.49999866438E+02 0.  0.
         12    1    1    2    0    0 -0.13311067039E+02 -0.24544473699E+02 -0.15398361632E+02  0.31886129207E+02  0.00000000000E+00 0. -1.
         11    1    3    3    0    0 -0.39885537415E+00 -0.94714001326E+00  0.81977159486E+01  0.82618827666E+01  0.51100000000E-03 0. -1.
        -11    1    3    3    0    0  0.52232094599E+01 -0.11471294215E+02  0.17117415191E+01  0.12720163809E+02  0.51100000000E-03 0.  1.
        -12    1    3    3    0    0  0.84867129529E+01  0.36962907927E+02  0.54889041640E+01  0.38319824218E+02  0.00000000000E+00 0.  1.
</event>
<event>
 7    1  0.3223600E-013  0.5930194E+02  0.7816164E-02  0.1266605E+00
        -11   -1    0    0    0    0  0.00000000000E+00  0.00000000000E+00  0.45593999997E+02  0.45594000000E+02  0.51100000000E-03 0. -1.
         11   -1    0    0    0    0 -0.00000000000E+00 -0.00000000000E+00 -0.45593999997E+02  0.45594000000E+02  0.51100000000E-03 0.  1.
    9900012    2    1    2    0    0 -0.14258344497E+01 -0.71399491626E+01 -0.31043662849E+02  0.59301939080E+02  0.49999990977E+02 0.  0.
         12    1    1    2    0    0  0.14258344497E+01  0.71399491626E+01  0.31043662849E+02  0.31886060920E+02  0.00000000000E+00 0. -1.
         11    1    3    3    0    0  0.11317915281E+02 -0.30610759393E+01 -0.14958695811E+01  0.11819603135E+02  0.51100000000E-03 0. -1.
        -11    1    3    3    0    0  0.10533003216E+02 -0.55791362042E+01 -0.17650915396E+02  0.21298491311E+02  0.51100000000E-03 0.  1.
         12    1    3    3    0    0 -0.23276752947E+02  0.15002629809E+01 -0.11896877871E+02  0.26183844634E+02  0.00000000000E+00 0. -1.
</event>
<event>
 7    1  0.3223600E-013  0.5930229E+02  0.7816164E-02  0.1266604E+00
        -11   -1    0    0    0    0  0.00000000000E+00  0.00000000000E+00  0.45593999997E+02  0.45594000000E+02  0.51100000000E-03 0. -1.
         11   -1    0    0    0    0 -0.00000000000E+00 -0.00000000000E+00 -0.45593999997E+02  0.45594000000E+02  0.51100000000E-03 0.  1.
    9900012    2    1    2    0    0  0.20707779746E+02 -0.22716419782E+02 -0.84764609467E+01  0.59302293800E+02  0.50000637896E+02 0.  0.
         12    1    1    2    0    0 -0.20707779746E+02  0.22716419782E+02  0.84764609467E+01  0.31885706200E+02  0.00000000000E+00 0. -1.
         11    1    3    3    0    0  0.19017496421E+02  0.37898550904E+01 -0.58366197290E+01  0.20250785215E+02  0.51100000000E-03 0. -1.
        -11    1    3    3    0    0  0.11576975872E+02 -0.17041014127E+02 -0.10651301638E+02  0.23192083987E+02  0.51100000000E-03 0.  1.
         12    1    3    3    0    0 -0.98866925467E+01 -0.94652607458E+01  0.80114604203E+01  0.15859424598E+02  0.00000000000E+00 0. -1.
</event>
<event>
 7    1  0.3223600E-013  0.5930184E+02  0.7816164E-02  0.1266605E+00
        -11   -1    0    0    0    0  0.00000000000E+00  0.00000000000E+00  0.45593999997E+02  0.45594000000E+02  0.51100000000E-03 0. -1.
         11   -1    0    0    0    0 -0.00000000000E+00 -0.00000000000E+00 -0.45593999997E+02  0.45594000000E+02  0.51100000000E-03 0.  1.
    9900012    2    1    2    0    0  0.11470388389E+02  0.16810261579E+02 -0.24547350982E+02  0.59301840865E+02  0.49999811856E+02 0.  0.
         12    1    1    2    0    0 -0.11470388389E+02 -0.16810261579E+02  0.24547350982E+02  0.31886159135E+02  0.00000000000E+00 0. -1.
         11    1    3    3    0    0 -0.80814865467E+01 -0.94614899810E+00 -0.33200700287E+01  0.87879740548E+01  0.51100000000E-03 0. -1.
        -11    1    3    3    0    0 -0.94570294379E+01  0.10691870611E+02 -0.13560385619E+02  0.19688462646E+02  0.51100000000E-03 0.  1.
        -12    1    3    3    0    0  0.29008904373E+02  0.70645399659E+01 -0.76668953342E+01  0.30825404165E+02  0.00000000000E+00 0.  1.
</event>
<event>
 7    1  0.3223600E-013  0.5930196E+02  0.7816164E-02  0.1266605E+00
        -11   -1    0    0    0    0  0.00000000000E+00  0.00000000000E+00  0.45593999997E+02  0.45594000000E+02  0.51100000000E-03 0.  1.
         11   -1    0    0    0    0 -0.00000000000E+00 -0.00000000000E+00 -0.45593999997E+02  0.45594000000E+02  0.51100000000E-03 0. -1.
    9900012    2    1    2    0    0 -0.10496206847E+02 -0.30056510110E+02  0.17762635762E+01  0.59301964335E+02  0.50000037035E+02 0.  0.
         12    1    1    2    0    0  0.10496206847E+02  0.30056510110E+02 -0.17762635762E+01  0.31886035665E+02  0.00000000000E+00 0. -1.
         11    1    3    3    0    0 -0.14562464272E+02  0.21812763690E+01 -0.77650123093E+01  0.16646884054E+02  0.51100000000E-03 0. -1.
        -11    1    3    3    0    0  0.64547967809E+01  0.19594999748E+01  0.42385796221E+01  0.79667809753E+01  0.51100000000E-03 0.  1.
         12    1    3    3    0    0 -0.23885393562E+01 -0.34197286454E+02  0.53026962634E+01  0.34688299306E+02  0.00000000000E+00 0. -1.
</event>
<event>
 7    1  0.3223600E-013  0.5930200E+02  0.7816164E-02  0.1266605E+00
        -11   -1    0    0    0    0  0.00000000000E+00  0.00000000000E+00  0.45593999997E+02  0.45594000000E+02  0.51100000000E-03 0. -1.
         11   -1    0    0    0    0 -0.00000000000E+00 -0.00000000000E+00 -0.45593999997E+02  0.45594000000E+02  0.51100000000E-03 0.  1.
    9900012    2    1    2    0    0  0.11854005092E+02 -0.22014736859E+02 -0.19787653233E+02  0.59301995293E+02  0.50000093496E+02 0.  0.
         12    1    1    2    0    0 -0.11854005092E+02  0.22014736859E+02  0.19787653233E+02  0.31886004707E+02  0.00000000000E+00 0. -1.
         11    1    3    3    0    0  0.13040732368E+02 -0.18685264904E+02 -0.15925960219E+02  0.27799928676E+02  0.51100000000E-03 0. -1.
        -11    1    3    3    0    0  0.14462466669E+01 -0.16022666573E+02 -0.79019090196E+01  0.17923661455E+02  0.51100000000E-03 0.  1.
         12    1    3    3    0    0 -0.26329739422E+01  0.12693194619E+02  0.40402160048E+01  0.13578405163E+02  0.00000000000E+00 0. -1.
</event>
<event>
 7    1  0.3223600E-013  0.5930188E+02  0.7816164E-02  0.1266605E+00
        -11   -1    0    0    0    0  0.00000000000E+00  0.00000000000E+00  0.45593999997E+02  0.45594000000E+02  0.51100000000E-03 0. -1.
         11   -1    0    0    0    0 -0.00000000000E+00 -0.00000000000E+00 -0.45593999997E+02  0.45594000000E+02  0.51100000000E-03 0.  1.
    9900012    2    1    2    0    0  0.21631382579E+02 -0.11336603623E+02 -0.20500956310E+02  0.59301882274E+02  0.49999887377E+02 0.  0.
         12    1    1    2    0    0 -0.21631382579E+02  0.11336603623E+02  0.20500956310E+02  0.31886117726E+02  0.00000000000E+00 0. -1.
         11    1    3    3    0    0 -0.29133732328E+01  0.55680603253E+00 -0.42436531692E+01  0.51774867488E+01  0.51100000000E-03 0. -1.
        -11    1    3    3    0    0  0.19847867135E+02 -0.25422223203E+02 -0.21624201188E+02  0.38830829758E+02  0.51100000000E-03 0.  1.
         12    1    3    3    0    0  0.46968886769E+01  0.13528813548E+02  0.53668980465E+01  0.15293565768E+02  0.00000000000E+00 0. -1.
</event>
<event>
 7    1  0.3223600E-013  0.5930178E+02  0.7816164E-02  0.1266605E+00
        -11   -1    0    0    0    0  0.00000000000E+00  0.00000000000E+00  0.45593999997E+02  0.45594000000E+02  0.51100000000E-03 0.  1.
         11   -1    0    0    0    0 -0.00000000000E+00 -0.00000000000E+00 -0.45593999997E+02  0.45594000000E+02  0.51100000000E-03 0. -1.
    9900012    2    1    2    0    0 -0.14847497179E+01 -0.85261645112E+00  0.31840219086E+02  0.59301780595E+02  0.49999701936E+02 0.  0.
         12    1    1    2    0    0  0.14847497179E+01  0.85261645112E+00 -0.31840219086E+02  0.31886219405E+02  0.00000000000E+00 0. -1.
         11    1    3    3    0    0  0.13428424708E+02  0.21715557290E+01  0.14143310161E+02  0.19623237934E+02  0.51100000000E-03 0. -1.
        -11    1    3    3    0    0  0.75078310952E+01 -0.95335960988E+01  0.68525481812E+01  0.13936082633E+02  0.51100000000E-03 0.  1.
         12    1    3    3    0    0 -0.22421005521E+02  0.65094239187E+01  0.10844360744E+02  0.25742460028E+02  0.00000000000E+00 0. -1.
</event>
<event>
 7    1  0.3223600E-013  0.5930193E+02  0.7816164E-02  0.1266605E+00
        -11   -1    0    0    0    0  0.00000000000E+00  0.00000000000E+00  0.45593999997E+02  0.45594000000E+02  0.51100000000E-03 0.  1.
         11   -1    0    0    0    0 -0.00000000000E+00 -0.00000000000E+00 -0.45593999997E+02  0.45594000000E+02  0.51100000000E-03 0. -1.
    9900012    2    1    2    0    0  0.12987325389E+02  0.18070016935E+02  0.22836930751E+02  0.59301928763E+02  0.49999972161E+02 0.  0.
         12    1    1    2    0    0 -0.12987325389E+02 -0.18070016935E+02 -0.22836930751E+02  0.31886071237E+02  0.00000000000E+00 0. -1.
         11    1    3    3    0    0 -0.55235440713E+01 -0.65236235910E+01 -0.39325021552E+01  0.94091326554E+01  0.51100000000E-03 0. -1.
        -11    1    3    3    0    0  0.23320931354E+00  0.45555220194E+01  0.21859080347E+02  0.22329947634E+02  0.51100000000E-03 0.  1.
        -12    1    3    3    0    0  0.18277660147E+02  0.20038118507E+02  0.49103525588E+01  0.27562848474E+02  0.00000000000E+00 0.  1.
</event>
<event>
 7    1  0.3223600E-013  0.5930195E+02  0.7816164E-02  0.1266605E+00
        -11   -1    0    0    0    0  0.00000000000E+00  0.00000000000E+00  0.45593999997E+02  0.45594000000E+02  0.51100000000E-03 0.  1.
         11   -1    0    0    0    0 -0.00000000000E+00 -0.00000000000E+00 -0.45593999997E+02  0.45594000000E+02  0.51100000000E-03 0. -1.
    9900012    2    1    2    0    0  0.22009819748E+02  0.22936359134E+02  0.24922744058E+01  0.59301950270E+02  0.50000011384E+02 0.  0.
         12    1    1    2    0    0 -0.22009819748E+02 -0.22936359134E+02 -0.24922744058E+01  0.31886049730E+02  0.00000000000E+00 0. -1.
         11    1    3    3    0    0  0.17946372559E+02  0.93343850729E+01 -0.98369404776E+01  0.22493742039E+02  0.51100000000E-03 0. -1.
        -11    1    3    3    0    0  0.62076779074E+01 -0.48951698841E+01 -0.65680973844E+01  0.10278027861E+02  0.51100000000E-03 0.  1.
        -12    1    3    3    0    0 -0.21442307178E+01  0.18497143946E+02  0.18897312268E+02  0.26530180370E+02  0.00000000000E+00 0.  1.
</event>
<event>
 7    1  0.3223600E-013  0.5930197E+02  0.7816164E-02  0.1266605E+00
        -11   -1    0    0    0    0  0.00000000000E+00  0.00000000000E+00  0.45593999997E+02  0.45594000000E+02  0.51100000000E-03 0.  1.
         11   -1    0    0    0    0 -0.00000000000E+00 -0.00000000000E+00 -0.45593999997E+02  0.45594000000E+02  0.51100000000E-03 0. -1.
    9900012    2    1    2    0    0 -0.25882832584E+02 -0.12655868826E+02  0.13661145076E+02  0.59301969782E+02  0.50000046970E+02 0.  0.
         12    1    1    2    0    0  0.25882832584E+02  0.12655868826E+02 -0.13661145076E+02  0.31886030218E+02  0.00000000000E+00 0. -1.
         11    1    3    3    0    0 -0.82572671358E+00  0.54600929248E+01 -0.16979695746E+01  0.57773298582E+01  0.51100000000E-03 0. -1.
        -11    1    3    3    0    0  0.55116180688E+01 -0.23277363512E+00 -0.89890967572E+01  0.10546846831E+02  0.51100000000E-03 0.  1.
        -12    1    3    3    0    0 -0.30568723939E+02 -0.17883188115E+02  0.24348211408E+02  0.42977793093E+02  0.00000000000E+00 0.  1.
</event>
<event>
 7    1  0.3223600E-013  0.5930203E+02  0.7816164E-02  0.1266604E+00
        -11   -1    0    0    0    0  0.00000000000E+00  0.00000000000E+00  0.45593999997E+02  0.45594000000E+02  0.51100000000E-03 0.  1.
         11   -1    0    0    0    0 -0.00000000000E+00 -0.00000000000E+00 -0.45593999997E+02  0.45594000000E+02  0.51100000000E-03 0. -1.
    9900012    2    1    2    0    0 -0.31933601115E+01 -0.23420914445E+00  0.31724792685E+02  0.59302033281E+02  0.50000162776E+02 0.  0.
         12    1    1    2    0    0  0.31933601115E+01  0.23420914445E+00 -0.31724792685E+02  0.31885966719E+02  0.00000000000E+00 0. -1.
         11    1    3    3    0    0 -0.21909497134E+01  0.11692269173E+02  0.43719362294E+01  0.12673722647E+02  0.51100000000E-03 0. -1.
        -11    1    3    3    0    0 -0.24829043538E+01 -0.75431286823E+00  0.33628839525E+02  0.33728810385E+02  0.51100000000E-03 0.  1.
         12    1    3    3    0    0  0.14804939557E+01 -0.11172165450E+02 -0.62759830697E+01  0.12899500249E+02  0.00000000000E+00 0. -1.
</event>
<event>
 7    1  0.3223600E-013  0.5930195E+02  0.7816164E-02  0.1266605E+00
        -11   -1    0    0    0    0  0.00000000000E+00  0.00000000000E+00  0.45593999997E+02  0.45594000000E+02  0.51100000000E-03 0.  1.
         11   -1    0    0    0    0 -0.00000000000E+00 -0.00000000000E+00 -0.45593999997E+02  0.45594000000E+02  0.51100000000E-03 0. -1.
    9900012    2    1    2    0    0  0.29019800691E+02 -0.97504222074E+01  0.89163120880E+01  0.59301949968E+02  0.50000010834E+02 0.  0.
         12    1    1    2    0    0 -0.29019800691E+02  0.97504222074E+01 -0.89163120880E+01  0.31886050032E+02  0.00000000000E+00 0. -1.
         11    1    3    3    0    0  0.11149991558E+02 -0.11447150052E+01 -0.10700233268E+02  0.15496053576E+02  0.51100000000E-03 0. -1.
        -11    1    3    3    0    0  0.81070605500E+00  0.71273044610E+01 -0.59195383128E+01  0.93003573740E+01  0.51100000000E-03 0.  1.
        -12    1    3    3    0    0  0.17059103078E+02 -0.15733011663E+02  0.25536083668E+02  0.34505539018E+02  0.00000000000E+00 0.  1.
</event>
<event>
 7    1  0.3223600E-013  0.5930201E+02  0.7816164E-02  0.1266605E+00
        -11   -1    0    0    0    0  0.00000000000E+00  0.00000000000E+00  0.45593999997E+02  0.45594000000E+02  0.51100000000E-03 0.  1.
         11   -1    0    0    0    0 -0.00000000000E+00 -0.00000000000E+00 -0.45593999997E+02  0.45594000000E+02  0.51100000000E-03 0. -1.
    9900012    2    1    2    0    0 -0.12925501137E+02 -0.12650428013E+01  0.29121256664E+02  0.59302007737E+02  0.50000116190E+02 0.  0.
         12    1    1    2    0    0  0.12925501137E+02  0.12650428013E+01 -0.29121256664E+02  0.31885992263E+02  0.00000000000E+00 0. -1.
         11    1    3    3    0    0  0.93842923199E+01  0.15672043814E+02  0.16853606106E+02  0.24854012527E+02  0.51100000000E-03 0. -1.
        -11    1    3    3    0    0 -0.32046701240E+01  0.24005367431E+00  0.77130657848E+01  0.83557716838E+01  0.51100000000E-03 0.  1.
        -12    1    3    3    0    0 -0.19105123333E+02 -0.17177140290E+02  0.45545847733E+01  0.26092223526E+02  0.00000000000E+00 0.  1.
</event>
<event>
 7    1  0.3223600E-013  0.5930195E+02  0.7816164E-02  0.1266605E+00
        -11   -1    0    0    0    0  0.00000000000E+00  0.00000000000E+00  0.45593999997E+02  0.45594000000E+02  0.51100000000E-03 0. -1.
         11   -1    0    0    0    0 -0.00000000000E+00 -0.00000000000E+00 -0.45593999997E+02  0.45594000000E+02  0.51100000000E-03 0.  1.
    9900012    2    1    2    0    0 -0.17410814541E+02  0.52741504331E+01 -0.26187154910E+02  0.59301949633E+02  0.50000010222E+02 0.  0.
         12    1    1    2    0    0  0.17410814541E+02 -0.52741504331E+01  0.26187154910E+02  0.31886050367E+02  0.00000000000E+00 0. -1.
         11    1    3    3    0    0  0.27923134197E+01  0.46203121109E-01 -0.19631164793E+02  0.19828811874E+02  0.51100000000E-03 0. -1.
        -11    1    3    3    0    0 -0.66213909311E+01  0.63567529651E+01 -0.18947290515E+02  0.21053525697E+02  0.51100000000E-03 0.  1.
         12    1    3    3    0    0 -0.13581737029E+02 -0.11288056531E+01  0.12391300398E+02  0.18419612062E+02  0.00000000000E+00 0. -1.
</event>
<event>
 7    1  0.3223600E-013  0.5930189E+02  0.7816164E-02  0.1266605E+00
        -11   -1    0    0    0    0  0.00000000000E+00  0.00000000000E+00  0.45593999997E+02  0.45594000000E+02  0.51100000000E-03 0. -1.
         11   -1    0    0    0    0 -0.00000000000E+00 -0.00000000000E+00 -0.45593999997E+02  0.45594000000E+02  0.51100000000E-03 0.  1.
    9900012    2    1    2    0    0  0.12201122708E+02  0.29342147238E+02 -0.26258221380E+01  0.59301891084E+02  0.49999903443E+02 0.  0.
         12    1    1    2    0    0 -0.12201122708E+02 -0.29342147238E+02  0.26258221380E+01  0.31886108916E+02  0.00000000000E+00 0. -1.
         11    1    3    3    0    0  0.95806475826E-01  0.15952679715E+01 -0.68949785858E+01  0.70777672144E+01  0.51100000000E-03 0. -1.
        -11    1    3    3    0    0 -0.23420857043E+01 -0.10627226129E+02 -0.78311020603E+00  0.10910387825E+02  0.51100000000E-03 0.  1.
         12    1    3    3    0    0  0.14447401937E+02  0.38374105395E+02  0.50522666538E+01  0.41313736045E+02  0.00000000000E+00 0. -1.
</event>
<event>
 7    1  0.3223600E-013  0.5930186E+02  0.7816164E-02  0.1266605E+00
        -11   -1    0    0    0    0  0.00000000000E+00  0.00000000000E+00  0.45593999997E+02  0.45594000000E+02  0.51100000000E-03 0. -1.
         11   -1    0    0    0    0 -0.00000000000E+00 -0.00000000000E+00 -0.45593999997E+02  0.45594000000E+02  0.51100000000E-03 0.  1.
    9900012    2    1    2    0    0 -0.38304835683E+01  0.76331622060E+01 -0.30721133958E+02  0.59301861298E+02  0.49999849121E+02 0.  0.
         12    1    1    2    0    0  0.38304835683E+01 -0.76331622060E+01  0.30721133958E+02  0.31886138702E+02  0.00000000000E+00 0. -1.
         11    1    3    3    0    0  0.38245058668E+01  0.84791486594E+01 -0.59305928298E+01  0.11031533832E+02  0.51100000000E-03 0. -1.
        -11    1    3    3    0    0 -0.17288955104E+01  0.15892371357E+02 -0.25946990307E+02  0.30476267050E+02  0.51100000000E-03 0.  1.
         12    1    3    3    0    0 -0.59260939247E+01 -0.16738357810E+02  0.11564491792E+01  0.17794060416E+02  0.00000000000E+00 0. -1.
</event>
<event>
 7    1  0.3223600E-013  0.5930196E+02  0.7816164E-02  0.1266605E+00
        -11   -1    0    0    0    0  0.00000000000E+00  0.00000000000E+00  0.45593999997E+02  0.45594000000E+02  0.51100000000E-03 0. -1.
         11   -1    0    0    0    0 -0.00000000000E+00 -0.00000000000E+00 -0.45593999997E+02  0.45594000000E+02  0.51100000000E-03 0.  1.
    9900012    2    1    2    0    0  0.52029124989E+01  0.31281393801E+02  0.33352219778E+01  0.59301959132E+02  0.50000027546E+02 0.  0.
         12    1    1    2    0    0 -0.52029124989E+01 -0.31281393801E+02 -0.33352219778E+01  0.31886040868E+02  0.00000000000E+00 0. -1.
         11    1    3    3    0    0  0.63312440882E+01  0.19197690437E+01  0.12177393807E+02  0.13858538346E+02  0.51100000000E-03 0. -1.
        -11    1    3    3    0    0  0.12026162402E+02  0.44950328380E+00 -0.62844000008E+01  0.13576609258E+02  0.51100000000E-03 0.  1.
        -12    1    3    3    0    0 -0.13154493991E+02  0.28912121473E+02 -0.25577718284E+01  0.31866811528E+02  0.00000000000E+00 0.  1.
</event>
<event>
 7    1  0.3223600E-013  0.5930187E+02  0.7816164E-02  0.1266605E+00
        -11   -1    0    0    0    0  0.00000000000E+00  0.00000000000E+00  0.45593999997E+02  0.45594000000E+02  0.51100000000E-03 0. -1.
         11   -1    0    0    0    0 -0.00000000000E+00 -0.00000000000E+00 -0.45593999997E+02  0.45594000000E+02  0.51100000000E-03 0.  1.
    9900012    2    1    2    0    0 -0.22075827085E+02 -0.12494238523E+02 -0.19320382976E+02  0.59301869220E+02  0.49999863569E+02 0.  0.
         12    1    1    2    0    0  0.22075827085E+02  0.12494238523E+02  0.19320382976E+02  0.31886130780E+02  0.00000000000E+00 0. -1.
         11    1    3    3    0    0 -0.64409128438E+01 -0.20982486715E+02 -0.60951004063E+01  0.22779384457E+02  0.51100000000E-03 0. -1.
        -11    1    3    3    0    0 -0.18813121867E+02 -0.41599079456E+01 -0.21021898037E+01  0.19381888214E+02  0.51100000000E-03 0.  1.
         12    1    3    3    0    0  0.31782076259E+01  0.12648156138E+02 -0.11123092766E+02  0.17140596550E+02  0.00000000000E+00 0. -1.
</event>
<event>
 7    1  0.3223600E-013  0.5930195E+02  0.7816164E-02  0.1266605E+00
        -11   -1    0    0    0    0  0.00000000000E+00  0.00000000000E+00  0.45593999997E+02  0.45594000000E+02  0.51100000000E-03 0. -1.
         11   -1    0    0    0    0 -0.00000000000E+00 -0.00000000000E+00 -0.45593999997E+02  0.45594000000E+02  0.51100000000E-03 0.  1.
    9900012    2    1    2    0    0 -0.82082606649E+01  0.43004565667E+00 -0.30808436842E+02  0.59301948770E+02  0.50000008648E+02 0.  0.
         12    1    1    2    0    0  0.82082606649E+01 -0.43004565667E+00  0.30808436842E+02  0.31886051230E+02  0.00000000000E+00 0. -1.
         11    1    3    3    0    0  0.97889266581E+01 -0.98449336261E+01 -0.18260283875E+02  0.22938695924E+02  0.51100000000E-03 0. -1.
        -11    1    3    3    0    0 -0.43569881966E+01  0.91734666542E+01 -0.18761791482E+02  0.21334025791E+02  0.51100000000E-03 0.  1.
        -12    1    3    3    0    0 -0.13640199126E+02  0.11015126286E+01  0.62136385147E+01  0.15029227055E+02  0.00000000000E+00 0.  1.
</event>
<event>
 7    1  0.3223600E-013  0.5930194E+02  0.7816164E-02  0.1266605E+00
        -11   -1    0    0    0    0  0.00000000000E+00  0.00000000000E+00  0.45593999997E+02  0.45594000000E+02  0.51100000000E-03 0. -1.
         11   -1    0    0    0    0 -0.00000000000E+00 -0.00000000000E+00 -0.45593999997E+02  0.45594000000E+02  0.51100000000E-03 0.  1.
    9900012    2    1    2    0    0  0.11063484062E+01  0.31118706877E+02  0.68646088847E+01  0.59301940669E+02  0.49999993875E+02 0.  0.
         12    1    1    2    0    0 -0.11063484062E+01 -0.31118706877E+02 -0.68646088847E+01  0.31886059331E+02  0.00000000000E+00 0. -1.
         11    1    3    3    0    0  0.10989425812E+02  0.12660985734E+02  0.24242102593E+01  0.16939446126E+02  0.51100000000E-03 0. -1.
        -11    1    3    3    0    0  0.80032129225E+01 -0.35480846058E+01  0.10183070116E+02  0.13428895662E+02  0.51100000000E-03 0.  1.
         12    1    3    3    0    0 -0.17886290328E+02  0.22005805749E+02 -0.57426714903E+01  0.28933598881E+02  0.00000000000E+00 0. -1.
</event>
<event>
 7    1  0.3223600E-013  0.5930211E+02  0.7816164E-02  0.1266604E+00
        -11   -1    0    0    0    0  0.00000000000E+00  0.00000000000E+00  0.45593999997E+02  0.45594000000E+02  0.51100000000E-03 0. -1.
         11   -1    0    0    0    0 -0.00000000000E+00 -0.00000000000E+00 -0.45593999997E+02  0.45594000000E+02  0.51100000000E-03 0.  1.
    9900012    2    1    2    0    0  0.54191719804E+01 -0.20710090789E+01 -0.31353683733E+02  0.59302109905E+02  0.50000302519E+02 0.  0.
         12    1    1    2    0    0 -0.54191719804E+01  0.20710090789E+01  0.31353683733E+02  0.31885890095E+02  0.00000000000E+00 0. -1.
         11    1    3    3    0    0  0.78739002927E+01  0.34248096170E+01 -0.42841576495E+01  0.95959175569E+01  0.51100000000E-03 0. -1.
        -11    1    3    3    0    0  0.67460183383E+01  0.15405709951E+02 -0.19263386368E+02  0.25571912661E+02  0.51100000000E-03 0.  1.
         12    1    3    3    0    0 -0.92007466507E+01 -0.20901528647E+02 -0.78061397151E+01  0.24134279686E+02  0.00000000000E+00 0. -1.
</event>
<event>
 7    1  0.3223600E-013  0.5930194E+02  0.7816164E-02  0.1266605E+00
        -11   -1    0    0    0    0  0.00000000000E+00  0.00000000000E+00  0.45593999997E+02  0.45594000000E+02  0.51100000000E-03 0.  1.
         11   -1    0    0    0    0 -0.00000000000E+00 -0.00000000000E+00 -0.45593999997E+02  0.45594000000E+02  0.51100000000E-03 0. -1.
    9900012    2    1    2    0    0  0.31704358361E+02  0.84540281755E+00  0.32924049863E+01  0.59301937596E+02  0.49999988270E+02 0.  0.
         12    1    1    2    0    0 -0.31704358361E+02 -0.84540281755E+00 -0.32924049863E+01  0.31886062404E+02  0.00000000000E+00 0. -1.
         11    1    3    3    0    0  0.80175811128E+00  0.53326887686E+01 -0.41483181264E+01  0.68035967775E+01  0.51100000000E-03 0. -1.
        -11    1    3    3    0    0  0.27677610934E+02 -0.31584662939E+01 -0.13719623652E+02  0.31052441607E+02  0.51100000000E-03 0.  1.
         12    1    3    3    0    0  0.32249893159E+01 -0.13288196572E+01  0.21160346765E+02  0.21445899211E+02  0.00000000000E+00 0. -1.
</event>
<event>
 7    1  0.3223600E-013  0.5930197E+02  0.7816164E-02  0.1266605E+00
        -11   -1    0    0    0    0  0.00000000000E+00  0.00000000000E+00  0.45593999997E+02  0.45594000000E+02  0.51100000000E-03 0. -1.
         11   -1    0    0    0    0 -0.00000000000E+00 -0.00000000000E+00 -0.45593999997E+02  0.45594000000E+02  0.51100000000E-03 0.  1.
    9900012    2    1    2    0    0 -0.61461683463E+01  0.30282278092E+02 -0.78693978803E+01  0.59301965835E+02  0.50000039771E+02 0.  0.
         12    1    1    2    0    0  0.61461683463E+01 -0.30282278092E+02  0.78693978803E+01  0.31886034165E+02  0.00000000000E+00 0. -1.
         11    1    3    3    0    0 -0.15591756415E+02  0.44094528756E+01 -0.65172089536E+01  0.17464826239E+02  0.51100000000E-03 0. -1.
        -11    1    3    3    0    0  0.24198042070E+01 -0.70707432581E+01  0.26200469854E+01  0.79193124127E+01  0.51100000000E-03 0.  1.
        -12    1    3    3    0    0  0.70257838614E+01  0.32943568474E+02 -0.39722359121E+01  0.33917827183E+02  0.00000000000E+00 0.  1.
</event>
<event>
 7    1  0.3223600E-013  0.5930193E+02  0.7816164E-02  0.1266605E+00
        -11   -1    0    0    0    0  0.00000000000E+00  0.00000000000E+00  0.45593999997E+02  0.45594000000E+02  0.51100000000E-03 0. -1.
         11   -1    0    0    0    0 -0.00000000000E+00 -0.00000000000E+00 -0.45593999997E+02  0.45594000000E+02  0.51100000000E-03 0.  1.
    9900012    2    1    2    0    0  0.19336021619E+02 -0.24650457780E+02 -0.59325080638E+01  0.59301930114E+02  0.49999974626E+02 0.  0.
         12    1    1    2    0    0 -0.19336021619E+02  0.24650457780E+02  0.59325080638E+01  0.31886069886E+02  0.00000000000E+00 0. -1.
         11    1    3    3    0    0 -0.55985182269E+01 -0.28344092917E+01  0.63684146326E+01  0.89405809411E+01  0.51100000000E-03 0. -1.
        -11    1    3    3    0    0 -0.53671811319E+01 -0.15708765218E+02 -0.99661797005E+01  0.19362248735E+02  0.51100000000E-03 0.  1.
        -12    1    3    3    0    0  0.30301720978E+02 -0.61072832705E+01 -0.23347429960E+01  0.30999100439E+02  0.00000000000E+00 0.  1.
</event>
<event>
 7    1  0.3223600E-013  0.5930199E+02  0.7816164E-02  0.1266605E+00
        -11   -1    0    0    0    0  0.00000000000E+00  0.00000000000E+00  0.45593999997E+02  0.45594000000E+02  0.51100000000E-03 0. -1.
         11   -1    0    0    0    0 -0.00000000000E+00 -0.00000000000E+00 -0.45593999997E+02  0.45594000000E+02  0.51100000000E-03 0.  1.
    9900012    2    1    2    0    0 -0.15579526343E+02 -0.14627384774E+02 -0.23665076532E+02  0.59301986237E+02  0.50000076980E+02 0.  0.
         12    1    1    2    0    0  0.15579526343E+02  0.14627384774E+02  0.23665076532E+02  0.31886013763E+02  0.00000000000E+00 0. -1.
         11    1    3    3    0    0 -0.17051119260E+02 -0.71580136711E+01  0.21368617725E+01  0.18615692472E+02  0.51100000000E-03 0. -1.
        -11    1    3    3    0    0  0.94756257691E+01  0.26210822082E+00  0.28914872131E+01  0.99104431284E+01  0.51100000000E-03 0.  1.
        -12    1    3    3    0    0 -0.80040328526E+01 -0.77314793238E+01 -0.28693425518E+02  0.30775850637E+02  0.00000000000E+00 0.  1.
</event>
<event>
 7    1  0.3223600E-013  0.5930197E+02  0.7816164E-02  0.1266605E+00
        -11   -1    0    0    0    0  0.00000000000E+00  0.00000000000E+00  0.45593999997E+02  0.45594000000E+02  0.51100000000E-03 0.  1.
         11   -1    0    0    0    0 -0.00000000000E+00 -0.00000000000E+00 -0.45593999997E+02  0.45594000000E+02  0.51100000000E-03 0. -1.
    9900012    2    1    2    0    0  0.24511505086E+02 -0.73763560512E+00  0.20380413106E+02  0.59301965028E+02  0.50000038299E+02 0.  0.
         12    1    1    2    0    0 -0.24511505086E+02  0.73763560512E+00 -0.20380413106E+02  0.31886034972E+02  0.00000000000E+00 0. -1.
         11    1    3    3    0    0  0.57560331371E+01  0.22886897474E+01 -0.13292182128E+02  0.14664655612E+02  0.51100000000E-03 0. -1.
        -11    1    3    3    0    0  0.65252821203E+01 -0.64332071137E+01  0.56700365845E+00  0.91807926633E+01  0.51100000000E-03 0.  1.
         12    1    3    3    0    0  0.12230189829E+02  0.34068817612E+01  0.33105591576E+02  0.35456516752E+02  0.00000000000E+00 0. -1.
</event>
<event>
 7    1  0.3223600E-013  0.5930190E+02  0.7816164E-02  0.1266605E+00
        -11   -1    0    0    0    0  0.00000000000E+00  0.00000000000E+00  0.45593999997E+02  0.45594000000E+02  0.51100000000E-03 0.  1.
         11   -1    0    0    0    0 -0.00000000000E+00 -0.00000000000E+00 -0.45593999997E+02  0.45594000000E+02  0.51100000000E-03 0. -1.
    9900012    2    1    2    0    0  0.29259875942E+02 -0.13574731809E+01  0.12599217067E+02  0.59301900454E+02  0.49999920531E+02 0.  0.
         12    1    1    2    0    0 -0.29259875942E+02  0.13574731809E+01 -0.12599217067E+02  0.31886099546E+02  0.00000000000E+00 0. -1.
         11    1    3    3    0    0  0.26204920122E+02 -0.12166532637E+00 -0.79280888025E+00  0.26217192589E+02  0.51100000000E-03 0. -1.
        -11    1    3    3    0    0  0.13387975115E+02  0.24984529242E+01  0.16757403277E+02  0.21593765525E+02  0.51100000000E-03 0.  1.
        -12    1    3    3    0    0 -0.10333019295E+02 -0.37342607787E+01 -0.33653773296E+01  0.11490942341E+02  0.00000000000E+00 0.  1.
</event>
<event>
 7    1  0.3223600E-013  0.5930195E+02  0.7816164E-02  0.1266605E+00
        -11   -1    0    0    0    0  0.00000000000E+00  0.00000000000E+00  0.45593999997E+02  0.45594000000E+02  0.51100000000E-03 0.  1.
         11   -1    0    0    0    0 -0.00000000000E+00 -0.00000000000E+00 -0.45593999997E+02  0.45594000000E+02  0.51100000000E-03 0. -1.
    9900012    2    1    2    0    0  0.27726843641E+02 -0.12497172521E+02  0.95792966199E+01  0.59301951279E+02  0.50000013224E+02 0.  0.
         12    1    1    2    0    0 -0.27726843641E+02  0.12497172521E+02 -0.95792966199E+01  0.31886048721E+02  0.00000000000E+00 0. -1.
         11    1    3    3    0    0  0.15292702973E+02 -0.80081080753E+01  0.42968291671E+01  0.17789302975E+02  0.51100000000E-03 0. -1.
        -11    1    3    3    0    0  0.52907628488E+01  0.15095612791E+02  0.11566162328E+02  0.19739448025E+02  0.51100000000E-03 0.  1.
         12    1    3    3    0    0  0.71433778191E+01 -0.19584677237E+02 -0.62836948753E+01  0.21773200280E+02  0.00000000000E+00 0. -1.
</event>
<event>
 7    1  0.3223600E-013  0.5930196E+02  0.7816164E-02  0.1266605E+00
        -11   -1    0    0    0    0  0.00000000000E+00  0.00000000000E+00  0.45593999997E+02  0.45594000000E+02  0.51100000000E-03 0.  1.
         11   -1    0    0    0    0 -0.00000000000E+00 -0.00000000000E+00 -0.45593999997E+02  0.45594000000E+02  0.51100000000E-03 0. -1.
    9900012    2    1    2    0    0 -0.23654497278E+02  0.20199088517E+02 -0.70129313649E+01  0.59301958779E+02  0.50000026903E+02 0.  0.
         12    1    1    2    0    0  0.23654497278E+02 -0.20199088517E+02  0.70129313649E+01  0.31886041221E+02  0.00000000000E+00 0. -1.
         11    1    3    3    0    0 -0.20282749411E+02  0.19532359332E+02  0.13928684628E+02  0.31415143490E+02  0.51100000000E-03 0. -1.
        -11    1    3    3    0    0 -0.13178089256E+01  0.82828378165E+01 -0.41999160085E+01  0.93798356808E+01  0.51100000000E-03 0.  1.
         12    1    3    3    0    0 -0.20539389415E+01 -0.76161086314E+01 -0.16741699985E+02  0.18506979609E+02  0.00000000000E+00 0. -1.
</event>
<event>
 7    1  0.3223600E-013  0.5930174E+02  0.7816164E-02  0.1266605E+00
        -11   -1    0    0    0    0  0.00000000000E+00  0.00000000000E+00  0.45593999997E+02  0.45594000000E+02  0.51100000000E-03 0.  1.
         11   -1    0    0    0    0 -0.00000000000E+00 -0.00000000000E+00 -0.45593999997E+02  0.45594000000E+02  0.51100000000E-03 0. -1.
    9900012    2    1    2    0    0 -0.93935024123E+01 -0.26400963550E+02  0.15214618638E+02  0.59301743019E+02  0.49999633407E+02 0.  0.
         12    1    1    2    0    0  0.93935024123E+01  0.26400963550E+02 -0.15214618638E+02  0.31886256981E+02  0.00000000000E+00 0. -1.
         11    1    3    3    0    0  0.55429484541E+01  0.51182588363E+01  0.28440535710E+01  0.80628463991E+01  0.51100000000E-03 0.  1.
        -11    1    3    3    0    0 -0.47974028900E+01  0.23708711842E+01  0.14843156636E+02  0.15778320691E+02  0.51100000000E-03 0. -1.
         12    1    3    3    0    0 -0.10139047976E+02 -0.33890093571E+02 -0.24725915689E+01  0.35460575928E+02  0.00000000000E+00 0. -1.
</event>
<event>
 7    1  0.3223600E-013  0.5930195E+02  0.7816164E-02  0.1266605E+00
        -11   -1    0    0    0    0  0.00000000000E+00  0.00000000000E+00  0.45593999997E+02  0.45594000000E+02  0.51100000000E-03 0.  1.
         11   -1    0    0    0    0 -0.00000000000E+00 -0.00000000000E+00 -0.45593999997E+02  0.45594000000E+02  0.51100000000E-03 0. -1.
    9900012    2    1    2    0    0 -0.22766503934E+02  0.12908359631E+02  0.18214843136E+02  0.59301953519E+02  0.50000017309E+02 0.  0.
         12    1    1    2    0    0  0.22766503934E+02 -0.12908359631E+02 -0.18214843136E+02  0.31886046481E+02  0.00000000000E+00 0. -1.
         11    1    3    3    0    0  0.56941181006E+01  0.33721168085E+01  0.56402345577E+01  0.86951940082E+01  0.51100000000E-03 0. -1.
        -11    1    3    3    0    0 -0.14944386586E+01 -0.64454876308E+01  0.17652571828E+02  0.18851815566E+02  0.51100000000E-03 0.  1.
         12    1    3    3    0    0 -0.26966183376E+02  0.15981730454E+02 -0.50779632503E+01  0.31754943945E+02  0.00000000000E+00 0. -1.
</event>
<event>
 7    1  0.3223600E-013  0.5930202E+02  0.7816164E-02  0.1266604E+00
        -11   -1    0    0    0    0  0.00000000000E+00  0.00000000000E+00  0.45593999997E+02  0.45594000000E+02  0.51100000000E-03 0.  1.
         11   -1    0    0    0    0 -0.00000000000E+00 -0.00000000000E+00 -0.45593999997E+02  0.45594000000E+02  0.51100000000E-03 0. -1.
    9900012    2    1    2    0    0  0.30976980639E+02 -0.71486472638E+01  0.24574943293E+01  0.59302019294E+02  0.50000137267E+02 0.  0.
         12    1    1    2    0    0 -0.30976980639E+02  0.71486472638E+01 -0.24574943293E+01  0.31885980706E+02  0.00000000000E+00 0. -1.
         11    1    3    3    0    0  0.14165333210E+02 -0.23907056705E+02 -0.95627888327E+00  0.27805008448E+02  0.51100000000E-03 0. -1.
        -11    1    3    3    0    0 -0.23576352311E+01  0.31828906155E+01  0.66954905364E+01  0.77793849588E+01  0.51100000000E-03 0.  1.
         12    1    3    3    0    0  0.19169282660E+02  0.13575518826E+02 -0.32817173238E+01  0.23717625887E+02  0.00000000000E+00 0. -1.
</event>
<event>
 7    1  0.3223600E-013  0.5930198E+02  0.7816164E-02  0.1266605E+00
        -11   -1    0    0    0    0  0.00000000000E+00  0.00000000000E+00  0.45593999997E+02  0.45594000000E+02  0.51100000000E-03 0.  1.
         11   -1    0    0    0    0 -0.00000000000E+00 -0.00000000000E+00 -0.45593999997E+02  0.45594000000E+02  0.51100000000E-03 0. -1.
    9900012    2    1    2    0    0 -0.16345970008E+02 -0.20999157932E+02  0.17565965060E+02  0.59301976450E+02  0.50000059130E+02 0.  0.
         12    1    1    2    0    0  0.16345970008E+02  0.20999157932E+02 -0.17565965060E+02  0.31886023550E+02  0.00000000000E+00 0. -1.
         11    1    3    3    0    0  0.76373526544E+01 -0.17962155948E+02 -0.25009636756E+01  0.19677983165E+02  0.51100000000E-03 0. -1.
        -11    1    3    3    0    0 -0.11684250318E+01 -0.93912119097E+01  0.10351479630E+02  0.14025448620E+02  0.51100000000E-03 0.  1.
        -12    1    3    3    0    0 -0.22814897630E+02  0.63542099256E+01  0.97154491054E+01  0.25598544665E+02  0.00000000000E+00 0.  1.
</event>
<event>
 7    1  0.3223600E-013  0.5930195E+02  0.7816164E-02  0.1266605E+00
        -11   -1    0    0    0    0  0.00000000000E+00  0.00000000000E+00  0.45593999997E+02  0.45594000000E+02  0.51100000000E-03 0.  1.
         11   -1    0    0    0    0 -0.00000000000E+00 -0.00000000000E+00 -0.45593999997E+02  0.45594000000E+02  0.51100000000E-03 0. -1.
    9900012    2    1    2    0    0  0.21836027185E+02  0.12334945389E+02  0.19691557749E+02  0.59301946504E+02  0.50000004516E+02 0.  0.
         12    1    1    2    0    0 -0.21836027185E+02 -0.12334945389E+02 -0.19691557749E+02  0.31886053496E+02  0.00000000000E+00 0. -1.
         11    1    3    3    0    0 -0.55761223138E+01 -0.39708875259E+01  0.53183399273E+00  0.68661441479E+01  0.51100000000E-03 0. -1.
        -11    1    3    3    0    0  0.15516337481E+01  0.16040655378E+02 -0.51739752040E+01  0.16925726333E+02  0.51100000000E-03 0.  1.
        -12    1    3    3    0    0  0.25860515751E+02  0.26517753685E+00  0.24333698961E+02  0.35510076023E+02  0.00000000000E+00 0.  1.
</event>
<event>
 7    1  0.3223600E-013  0.5930195E+02  0.7816164E-02  0.1266605E+00
        -11   -1    0    0    0    0  0.00000000000E+00  0.00000000000E+00  0.45593999997E+02  0.45594000000E+02  0.51100000000E-03 0.  1.
         11   -1    0    0    0    0 -0.00000000000E+00 -0.00000000000E+00 -0.45593999997E+02  0.45594000000E+02  0.51100000000E-03 0. -1.
    9900012    2    1    2    0    0  0.87994511195E+01 -0.15581508683E+02  0.26391406924E+02  0.59301951134E+02  0.50000012961E+02 0.  0.
         12    1    1    2    0    0 -0.87994511195E+01  0.15581508683E+02 -0.26391406924E+02  0.31886048866E+02  0.00000000000E+00 0. -1.
         11    1    3    3    0    0 -0.22805621064E+01 -0.21955879194E+02  0.14584425636E+02  0.26456890711E+02  0.51100000000E-03 0. -1.
        -11    1    3    3    0    0 -0.24847030785E-01 -0.86719348670E+01 -0.28033598353E+01  0.91138300588E+01  0.51100000000E-03 0.  1.
        -12    1    3    3    0    0  0.11104860257E+02  0.15046305378E+02  0.14610341123E+02  0.23731230364E+02  0.00000000000E+00 0.  1.
</event>
<event>
 7    1  0.3223600E-013  0.5930194E+02  0.7816164E-02  0.1266605E+00
        -11   -1    0    0    0    0  0.00000000000E+00  0.00000000000E+00  0.45593999997E+02  0.45594000000E+02  0.51100000000E-03 0.  1.
         11   -1    0    0    0    0 -0.00000000000E+00 -0.00000000000E+00 -0.45593999997E+02  0.45594000000E+02  0.51100000000E-03 0. -1.
    9900012    2    1    2    0    0 -0.23473887491E+02 -0.18632775436E+01 -0.21499431958E+02  0.59301940794E+02  0.49999994103E+02 0.  0.
         12    1    1    2    0    0  0.23473887491E+02  0.18632775436E+01  0.21499431958E+02  0.31886059206E+02  0.00000000000E+00 0. -1.
         11    1    3    3    0    0 -0.18309325370E+01  0.11592164696E+00  0.45553460521E+01  0.49108990723E+01  0.51100000000E-03 0. -1.
        -11    1    3    3    0    0 -0.27347576322E+02 -0.10779754977E+02 -0.36092961575E+01  0.29616212909E+02  0.51100000000E-03 0.  1.
         12    1    3    3    0    0  0.57046213679E+01  0.88005557867E+01 -0.22445481853E+02  0.24774828813E+02  0.00000000000E+00 0. -1.
</event>
<event>
 7    1  0.3223600E-013  0.5930197E+02  0.7816164E-02  0.1266605E+00
        -11   -1    0    0    0    0  0.00000000000E+00  0.00000000000E+00  0.45593999997E+02  0.45594000000E+02  0.51100000000E-03 0.  1.
         11   -1    0    0    0    0 -0.00000000000E+00 -0.00000000000E+00 -0.45593999997E+02  0.45594000000E+02  0.51100000000E-03 0. -1.
    9900012    2    1    2    0    0 -0.16805651145E+02  0.96102143933E+01  0.25336392042E+02  0.59301970256E+02  0.50000047835E+02 0.  0.
         12    1    1    2    0    0  0.16805651145E+02 -0.96102143933E+01 -0.25336392042E+02  0.31886029744E+02  0.00000000000E+00 0. -1.
         11    1    3    3    0    0 -0.10917396028E+02  0.20653779837E+02  0.61207468756E+01  0.24150190479E+02  0.51100000000E-03 0. -1.
        -11    1    3    3    0    0 -0.35221856481E+01  0.31558336334E+01  0.20177693470E+02  0.20724487731E+02  0.51100000000E-03 0.  1.
        -12    1    3    3    0    0 -0.23660694689E+01 -0.14199399077E+02 -0.96204830348E+00  0.14427292047E+02  0.00000000000E+00 0.  1.
</event>
<event>
 7    1  0.3223600E-013  0.5930193E+02  0.7816164E-02  0.1266605E+00
        -11   -1    0    0    0    0  0.00000000000E+00  0.00000000000E+00  0.45593999997E+02  0.45594000000E+02  0.51100000000E-03 0.  1.
         11   -1    0    0    0    0 -0.00000000000E+00 -0.00000000000E+00 -0.45593999997E+02  0.45594000000E+02  0.51100000000E-03 0. -1.
    9900012    2    1    2    0    0  0.31572945254E+02 -0.59350752787E-01  0.44572271865E+01  0.59301933000E+02  0.49999979888E+02 0.  0.
         12    1    1    2    0    0 -0.31572945254E+02  0.59350752787E-01 -0.44572271865E+01  0.31886067000E+02  0.00000000000E+00 0. -1.
         11    1    3    3    0    0 -0.26265923794E+01  0.95431985055E+01  0.32462954262E+01  0.10416816188E+02  0.51100000000E-03 0. -1.
        -11    1    3    3    0    0  0.22191884440E+02  0.53891603776E+01  0.13068925315E+02  0.26311966740E+02  0.51100000000E-03 0.  1.
         12    1    3    3    0    0  0.12007653193E+02 -0.14991709636E+02 -0.11857993555E+02  0.22573150072E+02  0.00000000000E+00 0. -1.
</event>
<event>
 7    1  0.3223600E-013  0.5930202E+02  0.7816164E-02  0.1266604E+00
        -11   -1    0    0    0    0  0.00000000000E+00  0.00000000000E+00  0.45593999997E+02  0.45594000000E+02  0.51100000000E-03 0.  1.
         11   -1    0    0    0    0 -0.00000000000E+00 -0.00000000000E+00 -0.45593999997E+02  0.45594000000E+02  0.51100000000E-03 0. -1.
    9900012    2    1    2    0    0  0.19465068860E+02 -0.24104041047E+02  0.75380267884E+01  0.59302022700E+02  0.50000143479E+02 0.  0.
         12    1    1    2    0    0 -0.19465068860E+02  0.24104041047E+02 -0.75380267884E+01  0.31885977300E+02  0.00000000000E+00 0. -1.
         11    1    3    3    0    0  0.22114217001E+01  0.22914247229E+01 -0.89496451974E+01  0.94993243242E+01  0.51100000000E-03 0. -1.
        -11    1    3    3    0    0 -0.69872570198E+01 -0.12848378221E+01 -0.51165327814E+01  0.87550829153E+01  0.51100000000E-03 0.  1.
        -12    1    3    3    0    0  0.24240904180E+02 -0.25110627947E+02  0.21604204767E+02  0.41047615461E+02  0.00000000000E+00 0.  1.
</event>
<event>
 7    1  0.3223600E-013  0.5930194E+02  0.7816164E-02  0.1266605E+00
        -11   -1    0    0    0    0  0.00000000000E+00  0.00000000000E+00  0.45593999997E+02  0.45594000000E+02  0.51100000000E-03 0.  1.
         11   -1    0    0    0    0 -0.00000000000E+00 -0.00000000000E+00 -0.45593999997E+02  0.45594000000E+02  0.51100000000E-03 0. -1.
    9900012    2    1    2    0    0  0.18046687344E+02  0.22331755822E+02  0.13868324443E+02  0.59301942466E+02  0.49999997153E+02 0.  0.
         12    1    1    2    0    0 -0.18046687344E+02 -0.22331755822E+02 -0.13868324443E+02  0.31886057534E+02  0.00000000000E+00 0. -1.
         11    1    3    3    0    0  0.15240400246E+02  0.19833069122E+02  0.13571505934E+01  0.25049197361E+02  0.51100000000E-03 0. -1.
        -11    1    3    3    0    0  0.12120947832E+02  0.10615435149E+02  0.14575286861E+02  0.21726569612E+02  0.51100000000E-03 0.  1.
         12    1    3    3    0    0 -0.93146607341E+01 -0.81167484489E+01 -0.20641130115E+01  0.12526175494E+02  0.00000000000E+00 0. -1.
</event>
<event>
 7    1  0.3223600E-013  0.5930194E+02  0.7816164E-02  0.1266605E+00
        -11   -1    0    0    0    0  0.00000000000E+00  0.00000000000E+00  0.45593999997E+02  0.45594000000E+02  0.51100000000E-03 0.  1.
         11   -1    0    0    0    0 -0.00000000000E+00 -0.00000000000E+00 -0.45593999997E+02  0.45594000000E+02  0.51100000000E-03 0. -1.
    9900012    2    1    2    0    0  0.24109017785E+02 -0.73836099693E+01  0.19518157139E+02  0.59301938894E+02  0.49999990638E+02 0.  0.
         12    1    1    2    0    0 -0.24109017785E+02  0.73836099693E+01 -0.19518157139E+02  0.31886061106E+02  0.00000000000E+00 0. -1.
         11    1    3    3    0    0  0.11052327537E+02  0.28083587215E+01  0.11863550198E+02  0.16455535429E+02  0.51100000000E-03 0. -1.
        -11    1    3    3    0    0 -0.60348079709E+01  0.93585751773E+01  0.10585030044E+02  0.15363746219E+02  0.51100000000E-03 0.  1.
         12    1    3    3    0    0  0.19091498218E+02 -0.19550543868E+02 -0.29304231020E+01  0.27482657246E+02  0.00000000000E+00 0. -1.
</event>
<event>
 7    1  0.3223600E-013  0.5930193E+02  0.7816164E-02  0.1266605E+00
        -11   -1    0    0    0    0  0.00000000000E+00  0.00000000000E+00  0.45593999997E+02  0.45594000000E+02  0.51100000000E-03 0. -1.
         11   -1    0    0    0    0 -0.00000000000E+00 -0.00000000000E+00 -0.45593999997E+02  0.45594000000E+02  0.51100000000E-03 0.  1.
    9900012    2    1    2    0    0 -0.17597120449E+02 -0.50101287038E+01  0.26114388208E+02  0.59301932365E+02  0.49999978730E+02 0.  0.
         12    1    1    2    0    0  0.17597120449E+02  0.50101287038E+01 -0.26114388208E+02  0.31886067635E+02  0.00000000000E+00 0. -1.
         11    1    3    3    0    0 -0.12349207226E+02  0.21929134374E+01  0.32346064117E+01  0.12952778364E+02  0.51100000000E-03 0. -1.
        -11    1    3    3    0    0 -0.12899130048E+02  0.12297134395E+02  0.16910568391E+02  0.24567751096E+02  0.51100000000E-03 0.  1.
         12    1    3    3    0    0  0.76512168247E+01 -0.19500176536E+02  0.59692134047E+01  0.21781402905E+02  0.00000000000E+00 0. -1.
</event>
<event>
 7    1  0.3223600E-013  0.5930194E+02  0.7816164E-02  0.1266605E+00
        -11   -1    0    0    0    0  0.00000000000E+00  0.00000000000E+00  0.45593999997E+02  0.45594000000E+02  0.51100000000E-03 0. -1.
         11   -1    0    0    0    0 -0.00000000000E+00 -0.00000000000E+00 -0.45593999997E+02  0.45594000000E+02  0.51100000000E-03 0.  1.
    9900012    2    1    2    0    0 -0.56480912266E+01  0.84033158801E+01 -0.30235812104E+02  0.59301937435E+02  0.49999987977E+02 0.  0.
         12    1    1    2    0    0  0.56480912266E+01 -0.84033158801E+01  0.30235812104E+02  0.31886062565E+02  0.00000000000E+00 0. -1.
         11    1    3    3    0    0  0.15898958464E+02  0.12584936405E+02 -0.26294319843E+02  0.33204649687E+02  0.51100000000E-03 0. -1.
        -11    1    3    3    0    0 -0.15502627899E+02  0.21534248488E+01 -0.65413708580E+01  0.16963438429E+02  0.51100000000E-03 0.  1.
         12    1    3    3    0    0 -0.60444217911E+01 -0.63350453739E+01  0.25998785970E+01  0.91338493198E+01  0.00000000000E+00 0. -1.
</event>
<event>
 7    1  0.3223600E-013  0.5930190E+02  0.7816164E-02  0.1266605E+00
        -11   -1    0    0    0    0  0.00000000000E+00  0.00000000000E+00  0.45593999997E+02  0.45594000000E+02  0.51100000000E-03 0.  1.
         11   -1    0    0    0    0 -0.00000000000E+00 -0.00000000000E+00 -0.45593999997E+02  0.45594000000E+02  0.51100000000E-03 0. -1.
    9900012    2    1    2    0    0 -0.25435736813E+02  0.14232590076E+02 -0.12929811614E+02  0.59301900272E+02  0.49999920200E+02 0.  0.
         12    1    1    2    0    0  0.25435736813E+02 -0.14232590076E+02  0.12929811614E+02  0.31886099728E+02  0.00000000000E+00 0. -1.
         11    1    3    3    0    0 -0.45224291751E+01 -0.64900121022E+01  0.13205338201E+02  0.15393296593E+02  0.51100000000E-03 0. -1.
        -11    1    3    3    0    0  0.34207043080E+01  0.27262146349E+01 -0.64887674290E+01  0.78254435789E+01  0.51100000000E-03 0.  1.
        -12    1    3    3    0    0 -0.24334011946E+02  0.17996387543E+02 -0.19646382385E+02  0.36083160100E+02  0.00000000000E+00 0.  1.
</event>
<event>
 7    1  0.3279459E-013  0.5930198E+02  0.7816164E-02  0.1266605E+00
        -11   -1    0    0    0    0  0.00000000000E+00  0.00000000000E+00  0.45593999997E+02  0.45594000000E+02  0.51100000000E-03 0. -1.
         11   -1    0    0    0    0 -0.00000000000E+00 -0.00000000000E+00 -0.45593999997E+02  0.45594000000E+02  0.51100000000E-03 0.  1.
    9900012    2    1    2    0    0  0.20182979620E+02  0.16000178814E+02 -0.18797870958E+02  0.59301978909E+02  0.50000063616E+02 0.  0.
         12    1    1    2    0    0 -0.20182979620E+02 -0.16000178814E+02  0.18797870958E+02  0.31886021091E+02  0.00000000000E+00 0. -1.
         11    1    3    3    0    0  0.12338587732E+02 -0.80318730245E+01  0.72442349027E+01  0.16408250092E+02  0.51100000000E-03 0. -1.
        -11    1    3    3    0    0 -0.23156394072E+01 -0.27751141923E+01  0.70888011756E+00  0.36831991430E+01  0.51100000000E-03 0.  1.
        -12    1    3    3    0    0  0.10160031296E+02  0.26807166031E+02 -0.26750985978E+02  0.39210529674E+02  0.00000000000E+00 0.  1.
</event>
<event>
 7    1  0.3223600E-013  0.5930192E+02  0.7816164E-02  0.1266605E+00
        -11   -1    0    0    0    0  0.00000000000E+00  0.00000000000E+00  0.45593999997E+02  0.45594000000E+02  0.51100000000E-03 0. -1.
         11   -1    0    0    0    0 -0.00000000000E+00 -0.00000000000E+00 -0.45593999997E+02  0.45594000000E+02  0.51100000000E-03 0.  1.
    9900012    2    1    2    0    0  0.54809511812E+01 -0.33342619954E+01 -0.31234016846E+02  0.59301922517E+02  0.49999960770E+02 0.  0.
         12    1    1    2    0    0 -0.54809511812E+01  0.33342619954E+01  0.31234016846E+02  0.31886077483E+02  0.00000000000E+00 0. -1.
         11    1    3    3    0    0  0.11163277119E+02  0.60798645377E+01 -0.15302870679E+02  0.19893751785E+02  0.51100000000E-03 0. -1.
        -11    1    3    3    0    0  0.89562309859E+01  0.61153610355E+01 -0.14379373424E+02  0.18010499560E+02  0.51100000000E-03 0.  1.
         12    1    3    3    0    0 -0.14638556923E+02 -0.15529487569E+02 -0.15517727425E+01  0.21397671172E+02  0.00000000000E+00 0. -1.
</event>
<event>
 7    1  0.3223600E-013  0.5930195E+02  0.7816164E-02  0.1266605E+00
        -11   -1    0    0    0    0  0.00000000000E+00  0.00000000000E+00  0.45593999997E+02  0.45594000000E+02  0.51100000000E-03 0. -1.
         11   -1    0    0    0    0 -0.00000000000E+00 -0.00000000000E+00 -0.45593999997E+02  0.45594000000E+02  0.51100000000E-03 0.  1.
    9900012    2    1    2    0    0 -0.23590934680E+02 -0.13519597527E+02 -0.16655583460E+02  0.59301950123E+02  0.50000011117E+02 0.  0.
         12    1    1    2    0    0  0.23590934680E+02  0.13519597527E+02  0.16655583460E+02  0.31886049877E+02  0.00000000000E+00 0. -1.
         11    1    3    3    0    0 -0.65163479783E+01  0.15597762539E+01 -0.16216063786E+02  0.17545837623E+02  0.51100000000E-03 0. -1.
        -11    1    3    3    0    0 -0.17586784948E+02 -0.46511926865E+01 -0.15179674476E+02  0.23692849463E+02  0.51100000000E-03 0.  1.
         12    1    3    3    0    0  0.51219824700E+00 -0.10428181094E+02  0.14740154802E+02  0.18063263037E+02  0.00000000000E+00 0. -1.
</event>
<event>
 7    1  0.3223600E-013  0.5930194E+02  0.7816164E-02  0.1266605E+00
        -11   -1    0    0    0    0  0.00000000000E+00  0.00000000000E+00  0.45593999997E+02  0.45594000000E+02  0.51100000000E-03 0.  1.
         11   -1    0    0    0    0 -0.00000000000E+00 -0.00000000000E+00 -0.45593999997E+02  0.45594000000E+02  0.51100000000E-03 0. -1.
    9900012    2    1    2    0    0  0.17321766082E+02 -0.23702094206E+02  0.12445403093E+02  0.59301938654E+02  0.49999990200E+02 0.  0.
         12    1    1    2    0    0 -0.17321766082E+02  0.23702094206E+02 -0.12445403093E+02  0.31886061346E+02  0.00000000000E+00 0. -1.
         11    1    3    3    0    0 -0.29447672886E+01 -0.18971997378E+02 -0.76804021824E+01  0.20678416691E+02  0.51100000000E-03 0. -1.
        -11    1    3    3    0    0  0.69630176631E+01 -0.11075723544E+02 -0.70938582466E+00  0.13101850843E+02  0.51100000000E-03 0.  1.
         12    1    3    3    0    0  0.13303515708E+02  0.63456267154E+01  0.20835191100E+02  0.25521671121E+02  0.00000000000E+00 0. -1.
</event>
<event>
 7    1  0.3223600E-013  0.5930195E+02  0.7816164E-02  0.1266605E+00
        -11   -1    0    0    0    0  0.00000000000E+00  0.00000000000E+00  0.45593999997E+02  0.45594000000E+02  0.51100000000E-03 0.  1.
         11   -1    0    0    0    0 -0.00000000000E+00 -0.00000000000E+00 -0.45593999997E+02  0.45594000000E+02  0.51100000000E-03 0. -1.
    9900012    2    1    2    0    0 -0.21637467502E+01 -0.70078443356E+01  0.31031087730E+02  0.59301951516E+02  0.50000013656E+02 0.  0.
         12    1    1    2    0    0  0.21637467502E+01  0.70078443356E+01 -0.31031087730E+02  0.31886048484E+02  0.00000000000E+00 0. -1.
         11    1    3    3    0    0  0.19848442812E+01 -0.61203364515E+01 -0.87736953473E+00  0.64936817494E+01  0.51100000000E-03 0. -1.
        -11    1    3    3    0    0 -0.11325312657E+02  0.17528204473E+02  0.95013527324E+01  0.22929813842E+02  0.51100000000E-03 0.  1.
         12    1    3    3    0    0  0.71767216255E+01 -0.18415712357E+02  0.22407104532E+02  0.29878455924E+02  0.00000000000E+00 0. -1.
</event>
<event>
 7    1  0.3223600E-013  0.5930194E+02  0.7816164E-02  0.1266605E+00
        -11   -1    0    0    0    0  0.00000000000E+00  0.00000000000E+00  0.45593999997E+02  0.45594000000E+02  0.51100000000E-03 0.  1.
         11   -1    0    0    0    0 -0.00000000000E+00 -0.00000000000E+00 -0.45593999997E+02  0.45594000000E+02  0.51100000000E-03 0. -1.
    9900012    2    1    2    0    0 -0.12289479656E+02  0.38453310033E+01  0.29170236705E+02  0.59301943641E+02  0.49999999294E+02 0.  0.
         12    1    1    2    0    0  0.12289479656E+02 -0.38453310033E+01 -0.29170236705E+02  0.31886056359E+02  0.00000000000E+00 0. -1.
         11    1    3    3    0    0  0.83166909428E+01  0.11498780849E+02  0.11021336420E+02  0.17968282221E+02  0.51100000000E-03 0. -1.
        -11    1    3    3    0    0 -0.22299963071E+02  0.53623734888E+01  0.16163213920E+02  0.28058739938E+02  0.51100000000E-03 0.  1.
        -12    1    3    3    0    0  0.16937924726E+01 -0.13015823334E+02  0.19856863653E+01  0.13274921482E+02  0.00000000000E+00 0.  1.
</event>
<event>
 7    1  0.3223600E-013  0.5930197E+02  0.7816164E-02  0.1266605E+00
        -11   -1    0    0    0    0  0.00000000000E+00  0.00000000000E+00  0.45593999997E+02  0.45594000000E+02  0.51100000000E-03 0. -1.
         11   -1    0    0    0    0 -0.00000000000E+00 -0.00000000000E+00 -0.45593999997E+02  0.45594000000E+02  0.51100000000E-03 0.  1.
    9900012    2    1    2    0    0  0.17825157942E+02  0.17590631411E+01 -0.26379692591E+02  0.59301972653E+02  0.50000052205E+02 0.  0.
         12    1    1    2    0    0 -0.17825157942E+02 -0.17590631411E+01  0.26379692591E+02  0.31886027347E+02  0.00000000000E+00 0. -1.
         11    1    3    3    0    0  0.74359494487E+00 -0.10689977405E+01 -0.52902858237E+01  0.54481936428E+01  0.51100000000E-03 0.  1.
        -11    1    3    3    0    0  0.15407255703E+02 -0.19385614705E+02 -0.25907153933E+01  0.24897738699E+02  0.51100000000E-03 0. -1.
         12    1    3    3    0    0  0.16743072940E+01  0.22213675586E+02 -0.18498691374E+02  0.28956040311E+02  0.00000000000E+00 0. -1.
</event>
<event>
 7    1  0.3223600E-013  0.5930192E+02  0.7816164E-02  0.1266605E+00
        -11   -1    0    0    0    0  0.00000000000E+00  0.00000000000E+00  0.45593999997E+02  0.45594000000E+02  0.51100000000E-03 0.  1.
         11   -1    0    0    0    0 -0.00000000000E+00 -0.00000000000E+00 -0.45593999997E+02  0.45594000000E+02  0.51100000000E-03 0. -1.
    9900012    2    1    2    0    0  0.44558095708E-01  0.21281546299E+02  0.23744807723E+02  0.59301920089E+02  0.49999956341E+02 0.  0.
         12    1    1    2    0    0 -0.44558095708E-01 -0.21281546299E+02 -0.23744807723E+02  0.31886079911E+02  0.00000000000E+00 0. -1.
         11    1    3    3    0    0  0.28632425753E+01  0.46936526715E+01 -0.31709538203E+01  0.63469269601E+01  0.51100000000E-03 0. -1.
        -11    1    3    3    0    0 -0.19654942126E+02  0.18899978008E+02  0.10186901696E+02  0.29108398875E+02  0.51100000000E-03 0.  1.
        -12    1    3    3    0    0  0.16836257646E+02 -0.23120843803E+01  0.16728859848E+02  0.23846594254E+02  0.00000000000E+00 0.  1.
</event>
<event>
 7    1  0.3223600E-013  0.5930199E+02  0.7816164E-02  0.1266605E+00
        -11   -1    0    0    0    0  0.00000000000E+00  0.00000000000E+00  0.45593999997E+02  0.45594000000E+02  0.51100000000E-03 0.  1.
         11   -1    0    0    0    0 -0.00000000000E+00 -0.00000000000E+00 -0.45593999997E+02  0.45594000000E+02  0.51100000000E-03 0. -1.
    9900012    2    1    2    0    0  0.30018386207E+02 -0.10444236640E+02  0.25557735651E+01  0.59301991031E+02  0.50000085723E+02 0.  0.
         12    1    1    2    0    0 -0.30018386207E+02  0.10444236640E+02 -0.25557735651E+01  0.31886008969E+02  0.00000000000E+00 0. -1.
         11    1    3    3    0    0  0.15733321891E+02 -0.47431253444E+01 -0.12853498589E+02  0.20862576111E+02  0.51100000000E-03 0. -1.
        -11    1    3    3    0    0  0.10468290759E+02  0.54134285698E+01 -0.65867702906E+01  0.13500957870E+02  0.51100000000E-03 0.  1.
         12    1    3    3    0    0  0.38167735575E+01 -0.11114539866E+02  0.21996042444E+02  0.24938457050E+02  0.00000000000E+00 0. -1.
</event>
<event>
 7    1  0.3223600E-013  0.5930195E+02  0.7816164E-02  0.1266605E+00
        -11   -1    0    0    0    0  0.00000000000E+00  0.00000000000E+00  0.45593999997E+02  0.45594000000E+02  0.51100000000E-03 0.  1.
         11   -1    0    0    0    0 -0.00000000000E+00 -0.00000000000E+00 -0.45593999997E+02  0.45594000000E+02  0.51100000000E-03 0. -1.
    9900012    2    1    2    0    0  0.27048038685E+02 -0.95746666690E+01 -0.13908624805E+02  0.59301945329E+02  0.50000002373E+02 0.  0.
         12    1    1    2    0    0 -0.27048038685E+02  0.95746666690E+01  0.13908624805E+02  0.31886054671E+02  0.00000000000E+00 0. -1.
         11    1    3    3    0    0  0.23586544331E+02 -0.16201560966E+02 -0.52449545120E+01  0.29091668899E+02  0.51100000000E-03 0. -1.
        -11    1    3    3    0    0  0.14544074963E+02 -0.99127931721E+00 -0.73001841367E+00  0.14596084350E+02  0.51100000000E-03 0.  1.
         12    1    3    3    0    0 -0.11082580609E+02  0.76181736146E+01 -0.79336518795E+01  0.15614192080E+02  0.00000000000E+00 0. -1.
</event>
<event>
 7    1  0.3921667E-013  0.5930194E+02  0.7816164E-02  0.1266605E+00
        -11   -1    0    0    0    0  0.00000000000E+00  0.00000000000E+00  0.45593999997E+02  0.45594000000E+02  0.51100000000E-03 0. -1.
         11   -1    0    0    0    0 -0.00000000000E+00 -0.00000000000E+00 -0.45593999997E+02  0.45594000000E+02  0.51100000000E-03 0.  1.
    9900012    2    1    2    0    0  0.14504186178E+02  0.21474480473E+02 -0.18579449999E+02  0.59301942067E+02  0.49999996423E+02 0.  0.
         12    1    1    2    0    0 -0.14504186178E+02 -0.21474480473E+02  0.18579449999E+02  0.31886057933E+02  0.00000000000E+00 0. -1.
         11    1    3    3    0    0 -0.87027382155E+01  0.12090887903E+01  0.35768473234E+01  0.94864843428E+01  0.51100000000E-03 0. -1.
        -11    1    3    3    0    0 -0.28174631951E+01  0.18080602073E+02 -0.68135603274E+01  0.19526158731E+02  0.51100000000E-03 0.  1.
        -12    1    3    3    0    0  0.26024387588E+02  0.21847896094E+01 -0.15342736995E+02  0.30289298993E+02  0.00000000000E+00 0.  1.
</event>
<event>
 7    1  0.3223600E-013  0.5930191E+02  0.7816164E-02  0.1266605E+00
        -11   -1    0    0    0    0  0.00000000000E+00  0.00000000000E+00  0.45593999997E+02  0.45594000000E+02  0.51100000000E-03 0. -1.
         11   -1    0    0    0    0 -0.00000000000E+00 -0.00000000000E+00 -0.45593999997E+02  0.45594000000E+02  0.51100000000E-03 0.  1.
    9900012    2    1    2    0    0  0.78648122894E+01 -0.30437543955E+02 -0.53313777545E+01  0.59301906744E+02  0.49999932004E+02 0.  0.
         12    1    1    2    0    0 -0.78648122894E+01  0.30437543955E+02  0.53313777545E+01  0.31886093256E+02  0.00000000000E+00 0. -1.
         11    1    3    3    0    0 -0.15083341683E+02  0.17838532076E+01  0.11754300472E+01  0.15233875562E+02  0.51100000000E-03 0. -1.
        -11    1    3    3    0    0  0.61088569517E+01 -0.29644485576E+01 -0.77302004042E+01  0.10288930316E+02  0.51100000000E-03 0.  1.
        -12    1    3    3    0    0  0.16839297021E+02 -0.29256948605E+02  0.12233926025E+01  0.33779100866E+02  0.00000000000E+00 0.  1.
</event>
<event>
 7    1  0.3223600E-013  0.5930193E+02  0.7816164E-02  0.1266605E+00
        -11   -1    0    0    0    0  0.00000000000E+00  0.00000000000E+00  0.45593999997E+02  0.45594000000E+02  0.51100000000E-03 0.  1.
         11   -1    0    0    0    0 -0.00000000000E+00 -0.00000000000E+00 -0.45593999997E+02  0.45594000000E+02  0.51100000000E-03 0. -1.
    9900012    2    1    2    0    0 -0.31384644212E+02 -0.56227238971E+01  0.33213623668E+00  0.59301933594E+02  0.49999980972E+02 0.  0.
         12    1    1    2    0    0  0.31384644212E+02  0.56227238971E+01 -0.33213623668E+00  0.31886066406E+02  0.00000000000E+00 0. -1.
         11    1    3    3    0    0 -0.25801689511E+01 -0.12860513996E+01  0.16291585507E+02  0.16544695785E+02  0.51100000000E-03 0. -1.
        -11    1    3    3    0    0 -0.16991521824E+02 -0.13271351705E+02 -0.81727497715E+00  0.21575646656E+02  0.51100000000E-03 0.  1.
         12    1    3    3    0    0 -0.11812953437E+02  0.89346792080E+01 -0.15142174293E+02  0.21181591153E+02  0.00000000000E+00 0. -1.
</event>
<event>
 7    1  0.3223600E-013  0.5930192E+02  0.7816164E-02  0.1266605E+00
        -11   -1    0    0    0    0  0.00000000000E+00  0.00000000000E+00  0.45593999997E+02  0.45594000000E+02  0.51100000000E-03 0. -1.
         11   -1    0    0    0    0 -0.00000000000E+00 -0.00000000000E+00 -0.45593999997E+02  0.45594000000E+02  0.51100000000E-03 0.  1.
    9900012    2    1    2    0    0  0.18542032372E+02 -0.15301036083E+02 -0.20947390477E+02  0.59301924081E+02  0.49999963622E+02 0.  0.
         12    1    1    2    0    0 -0.18542032372E+02  0.15301036083E+02  0.20947390477E+02  0.31886075919E+02  0.00000000000E+00 0. -1.
         11    1    3    3    0    0 -0.85228379857E+01 -0.12372470860E+02  0.65736099397E+01  0.16399059437E+02  0.51100000000E-03 0. -1.
        -11    1    3    3    0    0  0.13354345193E+01 -0.37775635655E+01 -0.12435474957E+02  0.13065007061E+02  0.51100000000E-03 0.  1.
         12    1    3    3    0    0  0.25729435838E+02  0.84899834230E+00 -0.15085525460E+02  0.29837857583E+02  0.00000000000E+00 0. -1.
</event>
<event>
 7    1  0.3223600E-013  0.5930211E+02  0.7816164E-02  0.1266604E+00
        -11   -1    0    0    0    0  0.00000000000E+00  0.00000000000E+00  0.45593999997E+02  0.45594000000E+02  0.51100000000E-03 0. -1.
         11   -1    0    0    0    0 -0.00000000000E+00 -0.00000000000E+00 -0.45593999997E+02  0.45594000000E+02  0.51100000000E-03 0.  1.
    9900012    2    1    2    0    0  0.23728573054E+02 -0.21216691883E+02 -0.18752726798E+01  0.59302112193E+02  0.50000306692E+02 0.  0.
         12    1    1    2    0    0 -0.23728573054E+02  0.21216691883E+02  0.18752726798E+01  0.31885887807E+02  0.00000000000E+00 0. -1.
         11    1    3    3    0    0  0.13161608316E+02 -0.12932345329E+02  0.13401843360E+02  0.22805326020E+02  0.51100000000E-03 0. -1.
        -11    1    3    3    0    0  0.19059495441E+02 -0.12867002951E+02 -0.77796126440E+01  0.24276459885E+02  0.51100000000E-03 0.  1.
        -12    1    3    3    0    0 -0.84925307028E+01  0.45826563976E+01 -0.74975033963E+01  0.12220326288E+02  0.00000000000E+00 0.  1.
</event>
<event>
 7    1  0.3223600E-013  0.5930195E+02  0.7816164E-02  0.1266605E+00
        -11   -1    0    0    0    0  0.00000000000E+00  0.00000000000E+00  0.45593999997E+02  0.45594000000E+02  0.51100000000E-03 0.  1.
         11   -1    0    0    0    0 -0.00000000000E+00 -0.00000000000E+00 -0.45593999997E+02  0.45594000000E+02  0.51100000000E-03 0. -1.
    9900012    2    1    2    0    0 -0.96777358106E+01 -0.28594399677E+02  0.10267511742E+02  0.59301951943E+02  0.50000014436E+02 0.  0.
         12    1    1    2    0    0  0.96777358106E+01  0.28594399677E+02 -0.10267511742E+02  0.31886048057E+02  0.00000000000E+00 0. -1.
         11    1    3    3    0    0 -0.19330945953E+02 -0.12917702124E+02 -0.44093580838E+01  0.23664212190E+02  0.51100000000E-03 0. -1.
        -11    1    3    3    0    0 -0.25849716747E+01 -0.14706197942E+02  0.17536767868E+02  0.23032424188E+02  0.51100000000E-03 0.  1.
         12    1    3    3    0    0  0.12238181817E+02 -0.97049961038E+00 -0.28598980413E+01  0.12605315565E+02  0.00000000000E+00 0. -1.
</event>
<event>
 7    1  0.3223600E-013  0.5930196E+02  0.7816164E-02  0.1266605E+00
        -11   -1    0    0    0    0  0.00000000000E+00  0.00000000000E+00  0.45593999997E+02  0.45594000000E+02  0.51100000000E-03 0.  1.
         11   -1    0    0    0    0 -0.00000000000E+00 -0.00000000000E+00 -0.45593999997E+02  0.45594000000E+02  0.51100000000E-03 0. -1.
    9900012    2    1    2    0    0 -0.23499424391E+02  0.17206413474E+02 -0.12978297331E+02  0.59301955828E+02  0.50000021520E+02 0.  0.
         12    1    1    2    0    0  0.23499424391E+02 -0.17206413474E+02  0.12978297331E+02  0.31886044172E+02  0.00000000000E+00 0. -1.
         11    1    3    3    0    0 -0.33397281711E+01  0.21250681441E+01 -0.81598337425E+01  0.90693211344E+01  0.51100000000E-03 0. -1.
        -11    1    3    3    0    0  0.76937722642E+01  0.20037763537E+02 -0.45465405297E+01  0.21940308345E+02  0.51100000000E-03 0.  1.
         12    1    3    3    0    0 -0.27853468484E+02 -0.49564182075E+01 -0.27192305925E+00  0.28292326348E+02  0.00000000000E+00 0. -1.
</event>
<event>
 7    1  0.3223600E-013  0.5930194E+02  0.7816164E-02  0.1266605E+00
        -11   -1    0    0    0    0  0.00000000000E+00  0.00000000000E+00  0.45593999997E+02  0.45594000000E+02  0.51100000000E-03 0. -1.
         11   -1    0    0    0    0 -0.00000000000E+00 -0.00000000000E+00 -0.45593999997E+02  0.45594000000E+02  0.51100000000E-03 0.  1.
    9900012    2    1    2    0    0 -0.21980589996E+02  0.15849684082E+02 -0.16803634376E+02  0.59301937993E+02  0.49999988994E+02 0.  0.
         12    1    1    2    0    0  0.21980589996E+02 -0.15849684082E+02  0.16803634376E+02  0.31886062007E+02  0.00000000000E+00 0. -1.
         11    1    3    3    0    0  0.38274959043E+01  0.51111909517E+01 -0.44632046172E+01  0.77906478266E+01  0.51100000000E-03 0. -1.
        -11    1    3    3    0    0  0.86837543781E+01 -0.70504815981E+01 -0.22076399215E+01  0.11401340059E+02  0.51100000000E-03 0.  1.
        -12    1    3    3    0    0 -0.34491840279E+02  0.17788974728E+02 -0.10132789837E+02  0.40109950107E+02  0.00000000000E+00 0.  1.
</event>
<event>
 7    1  0.3223600E-013  0.5930195E+02  0.7816164E-02  0.1266605E+00
        -11   -1    0    0    0    0  0.00000000000E+00  0.00000000000E+00  0.45593999997E+02  0.45594000000E+02  0.51100000000E-03 0. -1.
         11   -1    0    0    0    0 -0.00000000000E+00 -0.00000000000E+00 -0.45593999997E+02  0.45594000000E+02  0.51100000000E-03 0.  1.
    9900012    2    1    2    0    0  0.30234611480E+01 -0.30911228420E+02  0.72162685340E+01  0.59301954600E+02  0.50000019281E+02 0.  0.
         12    1    1    2    0    0 -0.30234611480E+01  0.30911228420E+02 -0.72162685340E+01  0.31886045400E+02  0.00000000000E+00 0. -1.
         11    1    3    3    0    0  0.13371738042E+02 -0.35695074353E+02  0.41147362308E+01  0.38338919727E+02  0.51100000000E-03 0. -1.
        -11    1    3    3    0    0  0.43568454949E+01 -0.77695494184E+00  0.28034113873E+01  0.52387858627E+01  0.51100000000E-03 0.  1.
        -12    1    3    3    0    0 -0.14705122389E+02  0.55608008748E+01  0.29812091590E+00  0.15724249010E+02  0.00000000000E+00 0.  1.
</event>
<event>
 7    1  0.3223600E-013  0.5930193E+02  0.7816164E-02  0.1266605E+00
        -11   -1    0    0    0    0  0.00000000000E+00  0.00000000000E+00  0.45593999997E+02  0.45594000000E+02  0.51100000000E-03 0.  1.
         11   -1    0    0    0    0 -0.00000000000E+00 -0.00000000000E+00 -0.45593999997E+02  0.45594000000E+02  0.51100000000E-03 0. -1.
    9900012    2    1    2    0    0 -0.25716797285E+02 -0.18671049813E+02 -0.25999945523E+01  0.59301925682E+02  0.49999966542E+02 0.  0.
         12    1    1    2    0    0  0.25716797285E+02  0.18671049813E+02  0.25999945523E+01  0.31886074318E+02  0.00000000000E+00 0. -1.
         11    1    3    3    0    0 -0.65647787943E+01  0.51150615464E+01 -0.11526827063E+02  0.14217169818E+02  0.51100000000E-03 0. -1.
        -11    1    3    3    0    0  0.41276151076E+01 -0.15080562338E+02  0.12444209643E+02  0.19982965766E+02  0.51100000000E-03 0.  1.
         12    1    3    3    0    0 -0.23279633598E+02 -0.87055490219E+01 -0.35173771328E+01  0.25101790098E+02  0.00000000000E+00 0. -1.
</event>
<event>
 7    1  0.3223600E-013  0.5930195E+02  0.7816164E-02  0.1266605E+00
        -11   -1    0    0    0    0  0.00000000000E+00  0.00000000000E+00  0.45593999997E+02  0.45594000000E+02  0.51100000000E-03 0. -1.
         11   -1    0    0    0    0 -0.00000000000E+00 -0.00000000000E+00 -0.45593999997E+02  0.45594000000E+02  0.51100000000E-03 0.  1.
    9900012    2    1    2    0    0  0.13371720700E+02 -0.12967037091E+02 -0.25879976634E+02  0.59301950449E+02  0.50000011710E+02 0.  0.
         12    1    1    2    0    0 -0.13371720700E+02  0.12967037091E+02  0.25879976634E+02  0.31886049551E+02  0.00000000000E+00 0. -1.
         11    1    3    3    0    0 -0.70288823027E+01 -0.61448803316E+01 -0.19652129199E+02  0.21757089030E+02  0.51100000000E-03 0. -1.
        -11    1    3    3    0    0  0.27673412456E+01 -0.97812581449E+01 -0.14609466933E+02  0.17797969344E+02  0.51100000000E-03 0.  1.
         12    1    3    3    0    0  0.17633261757E+02  0.29591013852E+01  0.83816194979E+01  0.19746892075E+02  0.00000000000E+00 0. -1.
</event>
<event>
 7    1  0.3223600E-013  0.5930197E+02  0.7816164E-02  0.1266605E+00
        -11   -1    0    0    0    0  0.00000000000E+00  0.00000000000E+00  0.45593999997E+02  0.45594000000E+02  0.51100000000E-03 0.  1.
         11   -1    0    0    0    0 -0.00000000000E+00 -0.00000000000E+00 -0.45593999997E+02  0.45594000000E+02  0.51100000000E-03 0. -1.
    9900012    2    1    2    0    0 -0.24921837305E+02 -0.92678241214E+01  0.17599105843E+02  0.59301967554E+02  0.50000042907E+02 0.  0.
         12    1    1    2    0    0  0.24921837305E+02  0.92678241214E+01 -0.17599105843E+02  0.31886032446E+02  0.00000000000E+00 0. -1.
         11    1    3    3    0    0 -0.83200635975E+01  0.10139939245E+02  0.13002853498E+01  0.13180765092E+02  0.51100000000E-03 0. -1.
        -11    1    3    3    0    0 -0.24644272521E+02 -0.15178374953E+02  0.21124536472E+02  0.35832517016E+02  0.51100000000E-03 0.  1.
         12    1    3    3    0    0  0.80424988128E+01 -0.42293884135E+01 -0.48257159781E+01  0.10288685446E+02  0.00000000000E+00 0. -1.
</event>
<event>
 7    1  0.3223600E-013  0.5930197E+02  0.7816164E-02  0.1266605E+00
        -11   -1    0    0    0    0  0.00000000000E+00  0.00000000000E+00  0.45593999997E+02  0.45594000000E+02  0.51100000000E-03 0. -1.
         11   -1    0    0    0    0 -0.00000000000E+00 -0.00000000000E+00 -0.45593999997E+02  0.45594000000E+02  0.51100000000E-03 0.  1.
    9900012    2    1    2    0    0 -0.12045088682E+02 -0.18556354395E+02 -0.22962930317E+02  0.59301974557E+02  0.50000055679E+02 0.  0.
         12    1    1    2    0    0  0.12045088682E+02  0.18556354395E+02  0.22962930317E+02  0.31886025443E+02  0.00000000000E+00 0. -1.
         11    1    3    3    0    0 -0.13455895316E+02 -0.13066368790E+02 -0.17084528611E+02  0.25370696290E+02  0.51100000000E-03 0. -1.
        -11    1    3    3    0    0 -0.15209029865E+02 -0.44120800750E+01 -0.68370637329E+01  0.17248955933E+02  0.51100000000E-03 0.  1.
        -12    1    3    3    0    0  0.16619836499E+02 -0.10779055295E+01  0.95866202716E+00  0.16682322334E+02  0.00000000000E+00 0.  1.
</event>
<event>
 7    1  0.3223600E-013  0.5930195E+02  0.7816164E-02  0.1266605E+00
        -11   -1    0    0    0    0  0.00000000000E+00  0.00000000000E+00  0.45593999997E+02  0.45594000000E+02  0.51100000000E-03 0.  1.
         11   -1    0    0    0    0 -0.00000000000E+00 -0.00000000000E+00 -0.45593999997E+02  0.45594000000E+02  0.51100000000E-03 0. -1.
    9900012    2    1    2    0    0  0.16020506751E+01  0.29114721017E+02  0.12902959187E+02  0.59301954431E+02  0.50000018972E+02 0.  0.
         12    1    1    2    0    0 -0.16020506751E+01 -0.29114721017E+02 -0.12902959187E+02  0.31886045569E+02  0.00000000000E+00 0. -1.
         11    1    3    3    0    0  0.49340928212E+01  0.52663399457E+01 -0.74413961985E+01  0.10366001449E+02  0.51100000000E-03 0. -1.
        -11    1    3    3    0    0  0.58330663994E+01 -0.76495270436E+01  0.11435391111E+02  0.14943496837E+02  0.51100000000E-03 0.  1.
         12    1    3    3    0    0 -0.91651085455E+01  0.31497908115E+02  0.89089642748E+01  0.33992456144E+02  0.00000000000E+00 0. -1.
</event>
<event>
 7    1  0.3223600E-013  0.5930200E+02  0.7816164E-02  0.1266605E+00
        -11   -1    0    0    0    0  0.00000000000E+00  0.00000000000E+00  0.45593999997E+02  0.45594000000E+02  0.51100000000E-03 0. -1.
         11   -1    0    0    0    0 -0.00000000000E+00 -0.00000000000E+00 -0.45593999997E+02  0.45594000000E+02  0.51100000000E-03 0.  1.
    9900012    2    1    2    0    0  0.47239559589E+01  0.12212342803E+02 -0.29073358020E+02  0.59301996437E+02  0.50000095582E+02 0.  0.
         12    1    1    2    0    0 -0.47239559589E+01 -0.12212342803E+02  0.29073358020E+02  0.31886003563E+02  0.00000000000E+00 0. -1.
         11    1    3    3    0    0 -0.52846247894E+01  0.17873347852E+01 -0.44672656106E+01  0.71469075198E+01  0.51100000000E-03 0. -1.
        -11    1    3    3    0    0  0.64976903176E+01 -0.42923667379E+01 -0.33642261684E+02  0.34531813783E+02  0.51100000000E-03 0.  1.
         12    1    3    3    0    0  0.35108904306E+01  0.14717374756E+02  0.90361692744E+01  0.17623275135E+02  0.00000000000E+00 0. -1.
</event>
<event>
 7    1  0.3223600E-013  0.5930216E+02  0.7816164E-02  0.1266604E+00
        -11   -1    0    0    0    0  0.00000000000E+00  0.00000000000E+00  0.45593999997E+02  0.45594000000E+02  0.51100000000E-03 0.  1.
         11   -1    0    0    0    0 -0.00000000000E+00 -0.00000000000E+00 -0.45593999997E+02  0.45594000000E+02  0.51100000000E-03 0. -1.
    9900012    2    1    2    0    0  0.14833206481E+02 -0.70719152296E+00  0.28216710428E+02  0.59302158601E+02  0.50000391328E+02 0.  0.
         12    1    1    2    0    0 -0.14833206481E+02  0.70719152296E+00 -0.28216710428E+02  0.31885841399E+02  0.00000000000E+00 0. -1.
         11    1    3    3    0    0 -0.13315100215E+02 -0.93073416663E-01  0.51418208618E+01  0.14273712847E+02  0.51100000000E-03 0. -1.
        -11    1    3    3    0    0 -0.44079881942E+00  0.22784882932E+01 -0.45881953169E+01  0.51417262693E+01  0.51100000000E-03 0.  1.
        -12    1    3    3    0    0  0.28589105516E+02 -0.28926063995E+01  0.27663084883E+02  0.39886719484E+02  0.00000000000E+00 0.  1.
</event>
<event>
 7    1  0.3223600E-013  0.5930196E+02  0.7816164E-02  0.1266605E+00
        -11   -1    0    0    0    0  0.00000000000E+00  0.00000000000E+00  0.45593999997E+02  0.45594000000E+02  0.51100000000E-03 0.  1.
         11   -1    0    0    0    0 -0.00000000000E+00 -0.00000000000E+00 -0.45593999997E+02  0.45594000000E+02  0.51100000000E-03 0. -1.
    9900012    2    1    2    0    0  0.31362658723E+02  0.57531722419E+01 -0.65600706302E-01  0.59301958281E+02  0.50000025995E+02 0.  0.
         12    1    1    2    0    0 -0.31362658723E+02 -0.57531722419E+01  0.65600706302E-01  0.31886041719E+02  0.00000000000E+00 0. -1.
         11    1    3    3    0    0  0.86872444139E+01 -0.54359548389E+01 -0.10318207906E+02  0.14542463174E+02  0.51100000000E-03 0. -1.
        -11    1    3    3    0    0  0.25541218724E+02  0.56933576750E+01 -0.64437895400E+01  0.26949779209E+02  0.51100000000E-03 0.  1.
         12    1    3    3    0    0 -0.28658044145E+01  0.54957694058E+01  0.16696396739E+02  0.17809715898E+02  0.00000000000E+00 0. -1.
</event>
<event>
 7    1  0.3223600E-013  0.5930195E+02  0.7816164E-02  0.1266605E+00
        -11   -1    0    0    0    0  0.00000000000E+00  0.00000000000E+00  0.45593999997E+02  0.45594000000E+02  0.51100000000E-03 0. -1.
         11   -1    0    0    0    0 -0.00000000000E+00 -0.00000000000E+00 -0.45593999997E+02  0.45594000000E+02  0.51100000000E-03 0.  1.
    9900012    2    1    2    0    0  0.15524799800E+01  0.13009682360E+02 -0.29069887624E+02  0.59301946690E+02  0.50000004855E+02 0.  0.
         12    1    1    2    0    0 -0.15524799800E+01 -0.13009682360E+02  0.29069887624E+02  0.31886053310E+02  0.00000000000E+00 0. -1.
         11    1    3    3    0    0  0.96186434121E+01 -0.28580693839E+01 -0.21853538698E+02  0.24047120734E+02  0.51100000000E-03 0.  1.
        -11    1    3    3    0    0 -0.42387447751E+01  0.22066713078E+02 -0.12993877497E+02  0.25956649168E+02  0.51100000000E-03 0. -1.
         12    1    3    3    0    0 -0.38274186570E+01 -0.61989613342E+01  0.57775285711E+01  0.92981767885E+01  0.00000000000E+00 0. -1.
</event>
<event>
 7    1  0.3223600E-013  0.5930191E+02  0.7816164E-02  0.1266605E+00
        -11   -1    0    0    0    0  0.00000000000E+00  0.00000000000E+00  0.45593999997E+02  0.45594000000E+02  0.51100000000E-03 0.  1.
         11   -1    0    0    0    0 -0.00000000000E+00 -0.00000000000E+00 -0.45593999997E+02  0.45594000000E+02  0.51100000000E-03 0. -1.
    9900012    2    1    2    0    0  0.25678665162E+01  0.21594700499E+02  0.23319469666E+02  0.59301910657E+02  0.49999939139E+02 0.  0.
         12    1    1    2    0    0 -0.25678665162E+01 -0.21594700499E+02 -0.23319469666E+02  0.31886089343E+02  0.00000000000E+00 0. -1.
         11    1    3    3    0    0 -0.33153612876E+00 -0.47225219385E+01  0.47257408236E+01  0.66891521329E+01  0.51100000000E-03 0. -1.
        -11    1    3    3    0    0  0.42357882125E+01  0.27822790950E+01  0.27086632021E+02  0.27556643722E+02  0.51100000000E-03 0.  1.
        -12    1    3    3    0    0 -0.13363855676E+01  0.23534943343E+02 -0.84929031787E+01  0.25056114801E+02  0.00000000000E+00 0.  1.
</event>
<event>
 7    1  0.3223600E-013  0.5930202E+02  0.7816164E-02  0.1266605E+00
        -11   -1    0    0    0    0  0.00000000000E+00  0.00000000000E+00  0.45593999997E+02  0.45594000000E+02  0.51100000000E-03 0. -1.
         11   -1    0    0    0    0 -0.00000000000E+00 -0.00000000000E+00 -0.45593999997E+02  0.45594000000E+02  0.51100000000E-03 0.  1.
    9900012    2    1    2    0    0 -0.17415949297E+02 -0.48675858100E+01 -0.26262275078E+02  0.59302019165E+02  0.50000137032E+02 0.  0.
         12    1    1    2    0    0  0.17415949297E+02  0.48675858100E+01  0.26262275078E+02  0.31885980835E+02  0.00000000000E+00 0. -1.
         11    1    3    3    0    0 -0.69203119615E+00 -0.11880410770E+02 -0.79616179823E+01  0.14318185234E+02  0.51100000000E-03 0. -1.
        -11    1    3    3    0    0 -0.23952398525E+02 -0.10323389838E+01 -0.29131255082E+00  0.23976404696E+02  0.51100000000E-03 0.  1.
         12    1    3    3    0    0  0.72284804241E+01  0.80451639436E+01 -0.18009344545E+02  0.21007429235E+02  0.00000000000E+00 0. -1.
</event>
<event>
 7    1  0.3223600E-013  0.5930193E+02  0.7816164E-02  0.1266605E+00
        -11   -1    0    0    0    0  0.00000000000E+00  0.00000000000E+00  0.45593999997E+02  0.45594000000E+02  0.51100000000E-03 0.  1.
         11   -1    0    0    0    0 -0.00000000000E+00 -0.00000000000E+00 -0.45593999997E+02  0.45594000000E+02  0.51100000000E-03 0. -1.
    9900012    2    1    2    0    0  0.26606282129E+01  0.11731117167E+02  0.29530043830E+02  0.59301928729E+02  0.49999972099E+02 0.  0.
         12    1    1    2    0    0 -0.26606282129E+01 -0.11731117167E+02 -0.29530043830E+02  0.31886071271E+02  0.00000000000E+00 0. -1.
         11    1    3    3    0    0  0.91536841739E+01 -0.38136679367E+00  0.60430782438E+01  0.10975161480E+02  0.51100000000E-03 0. -1.
        -11    1    3    3    0    0 -0.17275354377E+02  0.37034398233E+01  0.28692359779E+02  0.33695768953E+02  0.51100000000E-03 0.  1.
         12    1    3    3    0    0  0.10782298416E+02  0.84090441378E+01 -0.52053941924E+01  0.14630998296E+02  0.00000000000E+00 0. -1.
</event>
<event>
 7    1  0.3223600E-013  0.5930194E+02  0.7816164E-02  0.1266605E+00
        -11   -1    0    0    0    0  0.00000000000E+00  0.00000000000E+00  0.45593999997E+02  0.45594000000E+02  0.51100000000E-03 0.  1.
         11   -1    0    0    0    0 -0.00000000000E+00 -0.00000000000E+00 -0.45593999997E+02  0.45594000000E+02  0.51100000000E-03 0. -1.
    9900012    2    1    2    0    0 -0.12376349778E+02 -0.63099240269E+01  0.28700730176E+02  0.59301935839E+02  0.49999985066E+02 0.  0.
         12    1    1    2    0    0  0.12376349778E+02  0.63099240269E+01 -0.28700730176E+02  0.31886064161E+02  0.00000000000E+00 0. -1.
         11    1    3    3    0    0 -0.42572127323E+01  0.23777011705E+01 -0.11649877353E+02  0.12629210811E+02  0.51100000000E-03 0. -1.
        -11    1    3    3    0    0 -0.13350372960E+02 -0.11738185307E+01  0.17396971135E+02  0.21960530800E+02  0.51100000000E-03 0.  1.
         12    1    3    3    0    0  0.52312359143E+01 -0.75138066667E+01  0.22953636394E+02  0.24712194228E+02  0.00000000000E+00 0. -1.
</event>
<event>
 7    1  0.3223600E-013  0.5930194E+02  0.7816164E-02  0.1266605E+00
        -11   -1    0    0    0    0  0.00000000000E+00  0.00000000000E+00  0.45593999997E+02  0.45594000000E+02  0.51100000000E-03 0.  1.
         11   -1    0    0    0    0 -0.00000000000E+00 -0.00000000000E+00 -0.45593999997E+02  0.45594000000E+02  0.51100000000E-03 0. -1.
    9900012    2    1    2    0    0 -0.22919717618E+02 -0.12527452820E+02 -0.18288526370E+02  0.59301941501E+02  0.49999995391E+02 0.  0.
         12    1    1    2    0    0  0.22919717618E+02  0.12527452820E+02  0.18288526370E+02  0.31886058499E+02  0.00000000000E+00 0. -1.
         11    1    3    3    0    0 -0.18763511314E+01  0.54035576493E+01 -0.19525841007E+02  0.20346439397E+02  0.51100000000E-03 0. -1.
        -11    1    3    3    0    0 -0.39631165448E+01  0.63350554061E+01  0.50762643586E+01  0.90336969091E+01  0.51100000000E-03 0.  1.
         12    1    3    3    0    0 -0.17080249942E+02 -0.24266065875E+02 -0.38389497213E+01  0.29921805194E+02  0.00000000000E+00 0. -1.
</event>
<event>
 7    1  0.3223600E-013  0.5930197E+02  0.7816164E-02  0.1266605E+00
        -11   -1    0    0    0    0  0.00000000000E+00  0.00000000000E+00  0.45593999997E+02  0.45594000000E+02  0.51100000000E-03 0.  1.
         11   -1    0    0    0    0 -0.00000000000E+00 -0.00000000000E+00 -0.45593999997E+02  0.45594000000E+02  0.51100000000E-03 0. -1.
    9900012    2    1    2    0    0  0.18168953276E+02  0.10224476979E+02  0.24126087478E+02  0.59301970306E+02  0.50000047925E+02 0.  0.
         12    1    1    2    0    0 -0.18168953276E+02 -0.10224476979E+02 -0.24126087478E+02  0.31886029694E+02  0.00000000000E+00 0. -1.
         11    1    3    3    0    0 -0.52233269823E+01 -0.28332716172E+01  0.64074354178E+00  0.59767152658E+01  0.51100000000E-03 0. -1.
        -11    1    3    3    0    0 -0.10513822100E+02  0.59958963129E+01  0.11446731421E+02  0.16658898170E+02  0.51100000000E-03 0.  1.
        -12    1    3    3    0    0  0.33906102359E+02  0.70618522836E+01  0.12038612515E+02  0.36666356870E+02  0.00000000000E+00 0.  1.
</event>
<event>
 7    1  0.3223600E-013  0.5930193E+02  0.7816164E-02  0.1266605E+00
        -11   -1    0    0    0    0  0.00000000000E+00  0.00000000000E+00  0.45593999997E+02  0.45594000000E+02  0.51100000000E-03 0.  1.
         11   -1    0    0    0    0 -0.00000000000E+00 -0.00000000000E+00 -0.45593999997E+02  0.45594000000E+02  0.51100000000E-03 0. -1.
    9900012    2    1    2    0    0 -0.11568192951E+01  0.18548277933E+02  0.25910316086E+02  0.59301932120E+02  0.49999978284E+02 0.  0.
         12    1    1    2    0    0  0.11568192951E+01 -0.18548277933E+02 -0.25910316086E+02  0.31886067880E+02  0.00000000000E+00 0. -1.
         11    1    3    3    0    0 -0.80521338892E+01 -0.52490253675E+01 -0.36338069633E+01  0.10275878589E+02  0.51100000000E-03 0. -1.
        -11    1    3    3    0    0  0.53578812003E+01 -0.57282267426E+01  0.12900429207E+02  0.15097700042E+02  0.51100000000E-03 0.  1.
        -12    1    3    3    0    0  0.15374333938E+01  0.29525530043E+02  0.16643693842E+02  0.33928353489E+02  0.00000000000E+00 0.  1.
</event>
<event>
 7    1  0.3223600E-013  0.5930195E+02  0.7816164E-02  0.1266605E+00
        -11   -1    0    0    0    0  0.00000000000E+00  0.00000000000E+00  0.45593999997E+02  0.45594000000E+02  0.51100000000E-03 0.  1.
         11   -1    0    0    0    0 -0.00000000000E+00 -0.00000000000E+00 -0.45593999997E+02  0.45594000000E+02  0.51100000000E-03 0. -1.
    9900012    2    1    2    0    0 -0.22567127215E+02  0.14976134156E+02  0.16827378294E+02  0.59301945285E+02  0.50000002294E+02 0.  0.
         12    1    1    2    0    0  0.22567127215E+02 -0.14976134156E+02 -0.16827378294E+02  0.31886054715E+02  0.00000000000E+00 0. -1.
         11    1    3    3    0    0 -0.68998514974E+01  0.15531571318E+02 -0.69464455104E+01  0.18360031693E+02  0.51100000000E-03 0. -1.
        -11    1    3    3    0    0 -0.84668632764E+01  0.13497308952E+02  0.56518641252E+01  0.16905877411E+02  0.51100000000E-03 0.  1.
        -12    1    3    3    0    0 -0.72004124411E+01 -0.14052746114E+02  0.18121959679E+02  0.24036036181E+02  0.00000000000E+00 0.  1.
</event>
<event>
 7    1  0.3223600E-013  0.5930203E+02  0.7816164E-02  0.1266604E+00
        -11   -1    0    0    0    0  0.00000000000E+00  0.00000000000E+00  0.45593999997E+02  0.45594000000E+02  0.51100000000E-03 0.  1.
         11   -1    0    0    0    0 -0.00000000000E+00 -0.00000000000E+00 -0.45593999997E+02  0.45594000000E+02  0.51100000000E-03 0. -1.
    9900012    2    1    2    0    0 -0.13369068830E+02  0.28656192765E+02 -0.40994423895E+01  0.59302034230E+02  0.50000164507E+02 0.  0.
         12    1    1    2    0    0  0.13369068830E+02 -0.28656192765E+02  0.40994423895E+01  0.31885965770E+02  0.00000000000E+00 0. -1.
         11    1    3    3    0    0  0.10757804176E+02  0.73672325814E+01 -0.81310071318E+01  0.15366188331E+02  0.51100000000E-03 0. -1.
        -11    1    3    3    0    0 -0.74300667404E+01  0.16933615149E+02 -0.10597770536E+02  0.21313515768E+02  0.51100000000E-03 0.  1.
        -12    1    3    3    0    0 -0.16696806265E+02  0.43553450348E+01  0.14629335279E+02  0.22622330130E+02  0.00000000000E+00 0.  1.
</event>
<event>
 7    1  0.3223600E-013  0.5930193E+02  0.7816164E-02  0.1266605E+00
        -11   -1    0    0    0    0  0.00000000000E+00  0.00000000000E+00  0.45593999997E+02  0.45594000000E+02  0.51100000000E-03 0.  1.
         11   -1    0    0    0    0 -0.00000000000E+00 -0.00000000000E+00 -0.45593999997E+02  0.45594000000E+02  0.51100000000E-03 0. -1.
    9900012    2    1    2    0    0 -0.26650607858E+02  0.14364200932E+02 -0.10006825387E+02  0.59301925893E+02  0.49999966927E+02 0.  0.
         12    1    1    2    0    0  0.26650607858E+02 -0.14364200932E+02  0.10006825387E+02  0.31886074107E+02  0.00000000000E+00 0. -1.
         11    1    3    3    0    0 -0.16941777161E+02 -0.82640649715E+01 -0.88676156251E+01  0.20831543158E+02  0.51100000000E-03 0. -1.
        -11    1    3    3    0    0 -0.44328696137E+01 -0.64250344657E+01  0.35442470693E+01  0.85728110003E+01  0.51100000000E-03 0.  1.
         12    1    3    3    0    0 -0.52759610834E+01  0.29053300370E+02 -0.46834568313E+01  0.29897571734E+02  0.00000000000E+00 0. -1.
</event>
<event>
 7    1  0.3223600E-013  0.5930189E+02  0.7816164E-02  0.1266605E+00
        -11   -1    0    0    0    0  0.00000000000E+00  0.00000000000E+00  0.45593999997E+02  0.45594000000E+02  0.51100000000E-03 0.  1.
         11   -1    0    0    0    0 -0.00000000000E+00 -0.00000000000E+00 -0.45593999997E+02  0.45594000000E+02  0.51100000000E-03 0. -1.
    9900012    2    1    2    0    0  0.29523434737E+02 -0.10656918997E+02 -0.56143445920E+01  0.59301890385E+02  0.49999902168E+02 0.  0.
         12    1    1    2    0    0 -0.29523434737E+02  0.10656918997E+02  0.56143445920E+01  0.31886109615E+02  0.00000000000E+00 0. -1.
         11    1    3    3    0    0  0.18618743926E+01  0.32318730331E+01 -0.30930316427E+01  0.48454540097E+01  0.51100000000E-03 0. -1.
        -11    1    3    3    0    0  0.38853097466E+02 -0.68740396940E+01 -0.78218393538E+01  0.40224330641E+02  0.51100000000E-03 0.  1.
         12    1    3    3    0    0 -0.11191537121E+02 -0.70147523358E+01  0.53005264045E+01  0.14232105734E+02  0.00000000000E+00 0. -1.
</event>
<event>
 7    1  0.3223600E-013  0.5930203E+02  0.7816164E-02  0.1266604E+00
        -11   -1    0    0    0    0  0.00000000000E+00  0.00000000000E+00  0.45593999997E+02  0.45594000000E+02  0.51100000000E-03 0. -1.
         11   -1    0    0    0    0 -0.00000000000E+00 -0.00000000000E+00 -0.45593999997E+02  0.45594000000E+02  0.51100000000E-03 0.  1.
    9900012    2    1    2    0    0  0.18122816128E+02  0.16702395333E+02 -0.20231375659E+02  0.59302030745E+02  0.50000158151E+02 0.  0.
         12    1    1    2    0    0 -0.18122816128E+02 -0.16702395333E+02  0.20231375659E+02  0.31885969255E+02  0.00000000000E+00 0. -1.
         11    1    3    3    0    0  0.79240672132E+01  0.19992847932E+02 -0.56120661433E+01  0.22226112937E+02  0.51100000000E-03 0.  1.
        -11    1    3    3    0    0  0.20747436680E+02  0.18716096165E+01 -0.39371883696E+01  0.21200483576E+02  0.51100000000E-03 0. -1.
        -12    1    3    3    0    0 -0.10548687764E+02 -0.51620622151E+01 -0.10682121147E+02  0.15875434232E+02  0.00000000000E+00 0.  1.
</event>
<event>
 7    1  0.3223600E-013  0.5930196E+02  0.7816164E-02  0.1266605E+00
        -11   -1    0    0    0    0  0.00000000000E+00  0.00000000000E+00  0.45593999997E+02  0.45594000000E+02  0.51100000000E-03 0. -1.
         11   -1    0    0    0    0 -0.00000000000E+00 -0.00000000000E+00 -0.45593999997E+02  0.45594000000E+02  0.51100000000E-03 0.  1.
    9900012    2    1    2    0    0 -0.10196090661E+02 -0.24279967938E+02 -0.17978948282E+02  0.59301957769E+02  0.50000025060E+02 0.  0.
         12    1    1    2    0    0  0.10196090661E+02  0.24279967938E+02  0.17978948282E+02  0.31886042231E+02  0.00000000000E+00 0. -1.
         11    1    3    3    0    0  0.11884237374E+01 -0.11172928657E+02  0.22770598724E+01  0.11464365996E+02  0.51100000000E-03 0. -1.
        -11    1    3    3    0    0  0.87494580431E+01 -0.13455431677E+02 -0.22432915003E+02  0.27583279962E+02  0.51100000000E-03 0.  1.
        -12    1    3    3    0    0 -0.20133972441E+02  0.34839239656E+00  0.21769068477E+01  0.20254311811E+02  0.00000000000E+00 0.  1.
</event>
<event>
 7    1  0.3223600E-013  0.5930196E+02  0.7816164E-02  0.1266605E+00
        -11   -1    0    0    0    0  0.00000000000E+00  0.00000000000E+00  0.45593999997E+02  0.45594000000E+02  0.51100000000E-03 0. -1.
         11   -1    0    0    0    0 -0.00000000000E+00 -0.00000000000E+00 -0.45593999997E+02  0.45594000000E+02  0.51100000000E-03 0.  1.
    9900012    2    1    2    0    0 -0.12706235042E+02  0.28658019988E+02 -0.58300310317E+01  0.59301956338E+02  0.50000022450E+02 0.  0.
         12    1    1    2    0    0  0.12706235042E+02 -0.28658019988E+02  0.58300310317E+01  0.31886043662E+02  0.00000000000E+00 0. -1.
         11    1    3    3    0    0 -0.97275975126E+01 -0.39154244564E+01 -0.51221940447E+01  0.11670200261E+02  0.51100000000E-03 0. -1.
        -11    1    3    3    0    0 -0.73241865259E+01  0.19745139126E+02 -0.16553116984E+02  0.26786562107E+02  0.51100000000E-03 0.  1.
         12    1    3    3    0    0  0.43455489962E+01  0.12828305319E+02  0.15845279997E+02  0.20845193969E+02  0.00000000000E+00 0. -1.
</event>
<event>
 7    1  0.3223600E-013  0.5930191E+02  0.7816164E-02  0.1266605E+00
        -11   -1    0    0    0    0  0.00000000000E+00  0.00000000000E+00  0.45593999997E+02  0.45594000000E+02  0.51100000000E-03 0.  1.
         11   -1    0    0    0    0 -0.00000000000E+00 -0.00000000000E+00 -0.45593999997E+02  0.45594000000E+02  0.51100000000E-03 0. -1.
    9900012    2    1    2    0    0  0.27925818429E+02 -0.11793527797E+01  0.15345371173E+02  0.59301911742E+02  0.49999941119E+02 0.  0.
         12    1    1    2    0    0 -0.27925818429E+02  0.11793527797E+01 -0.15345371173E+02  0.31886088258E+02  0.00000000000E+00 0. -1.
         11    1    3    3    0    0  0.54052061263E+01 -0.10619081798E+02  0.50815599313E+01  0.12953895287E+02  0.51100000000E-03 0. -1.
        -11    1    3    3    0    0  0.12556176107E+02 -0.59863843676E+01 -0.11373427217E+02  0.17968004985E+02  0.51100000000E-03 0.  1.
         12    1    3    3    0    0  0.99644361958E+01  0.15426113386E+02  0.21637238459E+02  0.28380011470E+02  0.00000000000E+00 0. -1.
</event>
<event>
 7    1  0.3223600E-013  0.5930200E+02  0.7816164E-02  0.1266605E+00
        -11   -1    0    0    0    0  0.00000000000E+00  0.00000000000E+00  0.45593999997E+02  0.45594000000E+02  0.51100000000E-03 0. -1.
         11   -1    0    0    0    0 -0.00000000000E+00 -0.00000000000E+00 -0.45593999997E+02  0.45594000000E+02  0.51100000000E-03 0.  1.
    9900012    2    1    2    0    0  0.19704496725E+02  0.22577809782E+02 -0.10894595455E+02  0.59302001570E+02  0.50000104943E+02 0.  0.
         12    1    1    2    0    0 -0.19704496725E+02 -0.22577809782E+02  0.10894595455E+02  0.31885998430E+02  0.00000000000E+00 0. -1.
         11    1    3    3    0    0  0.13889681127E+01  0.86411759856E+01  0.17098830151E+01  0.89175588037E+01  0.51100000000E-03 0. -1.
        -11    1    3    3    0    0  0.27969276351E+02  0.19691006146E+02 -0.17146699798E+02  0.38262585601E+02  0.51100000000E-03 0.  1.
        -12    1    3    3    0    0 -0.96537477391E+01 -0.57543723494E+01  0.45422213279E+01  0.12121857165E+02  0.00000000000E+00 0.  1.
</event>
<event>
 7    1  0.3223600E-013  0.5930194E+02  0.7816164E-02  0.1266605E+00
        -11   -1    0    0    0    0  0.00000000000E+00  0.00000000000E+00  0.45593999997E+02  0.45594000000E+02  0.51100000000E-03 0.  1.
         11   -1    0    0    0    0 -0.00000000000E+00 -0.00000000000E+00 -0.45593999997E+02  0.45594000000E+02  0.51100000000E-03 0. -1.
    9900012    2    1    2    0    0 -0.25002193082E+02 -0.19741661216E+02 -0.13703287400E+01  0.59301942744E+02  0.49999997659E+02 0.  0.
         12    1    1    2    0    0  0.25002193082E+02  0.19741661216E+02  0.13703287400E+01  0.31886057256E+02  0.00000000000E+00 0. -1.
         11    1    3    3    0    0 -0.23920615456E+02  0.43924376995E+01  0.19856145773E+01  0.24401475739E+02  0.51100000000E-03 0.  1.
        -11    1    3    3    0    0 -0.29414958820E+01  0.43234050075E+01 -0.36563190625E+01  0.63806659708E+01  0.51100000000E-03 0. -1.
        -12    1    3    3    0    0  0.18599182557E+01 -0.28457503923E+02  0.30037574528E+00  0.28519801034E+02  0.00000000000E+00 0.  1.
</event>
<event>
 7    1  0.3223600E-013  0.5930190E+02  0.7816164E-02  0.1266605E+00
        -11   -1    0    0    0    0  0.00000000000E+00  0.00000000000E+00  0.45593999997E+02  0.45594000000E+02  0.51100000000E-03 0.  1.
         11   -1    0    0    0    0 -0.00000000000E+00 -0.00000000000E+00 -0.45593999997E+02  0.45594000000E+02  0.51100000000E-03 0. -1.
    9900012    2    1    2    0    0  0.17054822738E+02 -0.17974489893E+02  0.20069230033E+02  0.59301901781E+02  0.49999922952E+02 0.  0.
         12    1    1    2    0    0 -0.17054822738E+02  0.17974489893E+02 -0.20069230033E+02  0.31886098219E+02  0.00000000000E+00 0. -1.
         11    1    3    3    0    0 -0.60887981229E+00  0.78712286522E+01 -0.96368251615E+01  0.12457743559E+02  0.51100000000E-03 0. -1.
        -11    1    3    3    0    0  0.82703132100E+01 -0.74277701597E+01  0.58691270619E+00  0.11131680777E+02  0.51100000000E-03 0.  1.
         12    1    3    3    0    0  0.93933893403E+01 -0.18417948385E+02  0.29119142488E+02  0.35712477445E+02  0.00000000000E+00 0. -1.
</event>
<event>
 7    1  0.3223600E-013  0.5930207E+02  0.7816164E-02  0.1266604E+00
        -11   -1    0    0    0    0  0.00000000000E+00  0.00000000000E+00  0.45593999997E+02  0.45594000000E+02  0.51100000000E-03 0. -1.
         11   -1    0    0    0    0 -0.00000000000E+00 -0.00000000000E+00 -0.45593999997E+02  0.45594000000E+02  0.51100000000E-03 0.  1.
    9900012    2    1    2    0    0 -0.90844803189E+01 -0.27249484436E+02 -0.13843779951E+02  0.59302071630E+02  0.50000232715E+02 0.  0.
         12    1    1    2    0    0  0.90844803189E+01  0.27249484436E+02  0.13843779951E+02  0.31885928370E+02  0.00000000000E+00 0. -1.
         11    1    3    3    0    0  0.26838638042E+01 -0.22237808427E+02  0.12059281595E+01  0.22431618568E+02  0.51100000000E-03 0. -1.
        -11    1    3    3    0    0 -0.13336458357E+02 -0.16863344815E+02 -0.76996825372E+01  0.22836782420E+02  0.51100000000E-03 0.  1.
        -12    1    3    3    0    0  0.15681142340E+01  0.11851668807E+02 -0.73500255735E+01  0.14033670642E+02  0.00000000000E+00 0.  1.
</event>
<event>
 7    1  0.3223600E-013  0.5930195E+02  0.7816164E-02  0.1266605E+00
        -11   -1    0    0    0    0  0.00000000000E+00  0.00000000000E+00  0.45593999997E+02  0.45594000000E+02  0.51100000000E-03 0. -1.
         11   -1    0    0    0    0 -0.00000000000E+00 -0.00000000000E+00 -0.45593999997E+02  0.45594000000E+02  0.51100000000E-03 0.  1.
    9900012    2    1    2    0    0 -0.25342626795E+02 -0.77068784404E+01 -0.17750363942E+02  0.59301950884E+02  0.50000012504E+02 0.  0.
         12    1    1    2    0    0  0.25342626795E+02  0.77068784404E+01  0.17750363942E+02  0.31886049116E+02  0.00000000000E+00 0. -1.
         11    1    3    3    0    0 -0.16818336974E+01 -0.72104046507E+01  0.18734134299E+01  0.76372886519E+01  0.51100000000E-03 0. -1.
        -11    1    3    3    0    0 -0.10687532021E+02 -0.66224352702E+01 -0.30936733376E+02  0.33394033327E+02  0.51100000000E-03 0.  1.
         12    1    3    3    0    0 -0.12973261077E+02  0.61259614804E+01  0.11312956004E+02  0.18270628905E+02  0.00000000000E+00 0. -1.
</event>
<event>
 7    1  0.3223600E-013  0.5930196E+02  0.7816164E-02  0.1266605E+00
        -11   -1    0    0    0    0  0.00000000000E+00  0.00000000000E+00  0.45593999997E+02  0.45594000000E+02  0.51100000000E-03 0.  1.
         11   -1    0    0    0    0 -0.00000000000E+00 -0.00000000000E+00 -0.45593999997E+02  0.45594000000E+02  0.51100000000E-03 0. -1.
    9900012    2    1    2    0    0  0.14450795504E+01  0.76709672537E+01  0.30915815629E+02  0.59301958391E+02  0.50000026195E+02 0.  0.
         12    1    1    2    0    0 -0.14450795504E+01 -0.76709672537E+01 -0.30915815629E+02  0.31886041609E+02  0.00000000000E+00 0. -1.
         11    1    3    3    0    0  0.28983621502E+01 -0.25875103327E+01  0.10251579252E+02  0.10963146916E+02  0.51100000000E-03 0. -1.
        -11    1    3    3    0    0  0.11479935766E+02  0.11181442591E+02  0.28852064584E+02  0.33003866661E+02  0.51100000000E-03 0.  1.
         12    1    3    3    0    0 -0.12933218366E+02 -0.92296500423E+00 -0.81878282070E+01  0.15334944814E+02  0.00000000000E+00 0. -1.
</event>
<event>
 7    1  0.3223600E-013  0.5930189E+02  0.7816164E-02  0.1266605E+00
        -11   -1    0    0    0    0  0.00000000000E+00  0.00000000000E+00  0.45593999997E+02  0.45594000000E+02  0.51100000000E-03 0.  1.
         11   -1    0    0    0    0 -0.00000000000E+00 -0.00000000000E+00 -0.45593999997E+02  0.45594000000E+02  0.51100000000E-03 0. -1.
    9900012    2    1    2    0    0  0.12924371179E+02  0.28199981280E+02  0.73787158681E+01  0.59301893896E+02  0.49999908573E+02 0.  0.
         12    1    1    2    0    0 -0.12924371179E+02 -0.28199981280E+02 -0.73787158681E+01  0.31886106104E+02  0.00000000000E+00 0. -1.
         11    1    3    3    0    0  0.94003476177E+01  0.10971695902E+02  0.10558819369E+01  0.14486529371E+02  0.51100000000E-03 0. -1.
        -11    1    3    3    0    0  0.54217235055E+01  0.27452206159E+02 -0.60746862093E+01  0.28634254340E+02  0.51100000000E-03 0.  1.
         12    1    3    3    0    0 -0.18976999445E+01 -0.10223920781E+02  0.12397520141E+02  0.16181110186E+02  0.00000000000E+00 0. -1.
</event>
<event>
 7    1  0.3223600E-013  0.5930196E+02  0.7816164E-02  0.1266605E+00
        -11   -1    0    0    0    0  0.00000000000E+00  0.00000000000E+00  0.45593999997E+02  0.45594000000E+02  0.51100000000E-03 0. -1.
         11   -1    0    0    0    0 -0.00000000000E+00 -0.00000000000E+00 -0.45593999997E+02  0.45594000000E+02  0.51100000000E-03 0.  1.
    9900012    2    1    2    0    0 -0.29223423177E+00  0.31566518609E+02 -0.44932293584E+01  0.59301959042E+02  0.50000027382E+02 0.  0.
         12    1    1    2    0    0  0.29223423177E+00 -0.31566518609E+02  0.44932293584E+01  0.31886040958E+02  0.00000000000E+00 0. -1.
         11    1    3    3    0    0  0.12471187016E+02 -0.17011413618E+01  0.48329373348E+01  0.13482643326E+02  0.51100000000E-03 0. -1.
        -11    1    3    3    0    0  0.20210754708E+01  0.86574725160E+01 -0.14146255412E+02  0.16707875953E+02  0.51100000000E-03 0.  1.
        -12    1    3    3    0    0 -0.14784496719E+02  0.24610187454E+02  0.48200887189E+01  0.29111439762E+02  0.00000000000E+00 0.  1.
</event>
<event>
 7    1  0.3223600E-013  0.5930191E+02  0.7816164E-02  0.1266605E+00
        -11   -1    0    0    0    0  0.00000000000E+00  0.00000000000E+00  0.45593999997E+02  0.45594000000E+02  0.51100000000E-03 0. -1.
         11   -1    0    0    0    0 -0.00000000000E+00 -0.00000000000E+00 -0.45593999997E+02  0.45594000000E+02  0.51100000000E-03 0.  1.
    9900012    2    1    2    0    0 -0.12911518893E+00 -0.46665324627E+01 -0.31542501332E+02  0.59301912340E+02  0.49999942210E+02 0.  0.
         12    1    1    2    0    0  0.12911518893E+00  0.46665324627E+01  0.31542501332E+02  0.31886087660E+02  0.00000000000E+00 0. -1.
         11    1    3    3    0    0  0.86364081821E+01 -0.39489193591E+01  0.77405177843E+00  0.95278888958E+01  0.51100000000E-03 0.  1.
        -11    1    3    3    0    0  0.92805723683E+01  0.93859318352E+01 -0.24182001688E+02  0.27549844751E+02  0.51100000000E-03 0. -1.
         12    1    3    3    0    0 -0.18046095739E+02 -0.10103544939E+02 -0.81345514224E+01  0.22224178694E+02  0.00000000000E+00 0. -1.
</event>
<event>
 7    1  0.3223600E-013  0.5930199E+02  0.7816164E-02  0.1266605E+00
        -11   -1    0    0    0    0  0.00000000000E+00  0.00000000000E+00  0.45593999997E+02  0.45594000000E+02  0.51100000000E-03 0.  1.
         11   -1    0    0    0    0 -0.00000000000E+00 -0.00000000000E+00 -0.45593999997E+02  0.45594000000E+02  0.51100000000E-03 0. -1.
    9900012    2    1    2    0    0 -0.25948661454E+02  0.18525109939E+02  0.45299241276E+00  0.59301985328E+02  0.50000075322E+02 0.  0.
         12    1    1    2    0    0  0.25948661454E+02 -0.18525109939E+02 -0.45299241276E+00  0.31886014672E+02  0.00000000000E+00 0. -1.
         11    1    3    3    0    0 -0.32978143574E+01  0.71692649447E+01  0.10200371830E+02  0.12896570285E+02  0.51100000000E-03 0. -1.
        -11    1    3    3    0    0 -0.31649196314E+02  0.33503206081E+01 -0.16034015596E+01  0.31866395659E+02  0.51100000000E-03 0.  1.
         12    1    3    3    0    0  0.89983492170E+01  0.80055243859E+01 -0.81439778571E+01  0.14539019384E+02  0.00000000000E+00 0. -1.
</event>
<event>
 7    1  0.3223600E-013  0.5930197E+02  0.7816164E-02  0.1266605E+00
        -11   -1    0    0    0    0  0.00000000000E+00  0.00000000000E+00  0.45593999997E+02  0.45594000000E+02  0.51100000000E-03 0.  1.
         11   -1    0    0    0    0 -0.00000000000E+00 -0.00000000000E+00 -0.45593999997E+02  0.45594000000E+02  0.51100000000E-03 0. -1.
    9900012    2    1    2    0    0 -0.25655299803E+02 -0.82224685370E+01  0.17056249504E+02  0.59301967886E+02  0.50000043512E+02 0.  0.
         12    1    1    2    0    0  0.25655299803E+02  0.82224685370E+01 -0.17056249504E+02  0.31886032114E+02  0.00000000000E+00 0. -1.
         11    1    3    3    0    0 -0.12593507716E+02 -0.39508306925E+01 -0.11508982443E+01  0.13248776049E+02  0.51100000000E-03 0. -1.
        -11    1    3    3    0    0 -0.11354287847E+02 -0.65296820767E+01  0.30629416650E+02  0.33312426587E+02  0.51100000000E-03 0.  1.
         12    1    3    3    0    0 -0.17075042395E+01  0.22580442322E+01 -0.12422268902E+02  0.12740765250E+02  0.00000000000E+00 0. -1.
</event>
<event>
 7    1  0.3223600E-013  0.5930194E+02  0.7816164E-02  0.1266605E+00
        -11   -1    0    0    0    0  0.00000000000E+00  0.00000000000E+00  0.45593999997E+02  0.45594000000E+02  0.51100000000E-03 0.  1.
         11   -1    0    0    0    0 -0.00000000000E+00 -0.00000000000E+00 -0.45593999997E+02  0.45594000000E+02  0.51100000000E-03 0. -1.
    9900012    2    1    2    0    0 -0.31828742843E+02 -0.51062520975E+00 -0.18414748961E+01  0.59301942877E+02  0.49999997901E+02 0.  0.
         12    1    1    2    0    0  0.31828742843E+02  0.51062520975E+00  0.18414748961E+01  0.31886057123E+02  0.00000000000E+00 0. -1.
         11    1    3    3    0    0 -0.17617176901E+02  0.17815874654E+02  0.49740950795E+01  0.25544313140E+02  0.51100000000E-03 0. -1.
        -11    1    3    3    0    0 -0.12518502249E+02  0.17328676334E+01 -0.45527051335E+00  0.12646066594E+02  0.51100000000E-03 0.  1.
        -12    1    3    3    0    0 -0.16930636926E+01 -0.20059367498E+02 -0.63602994622E+01  0.21111563143E+02  0.00000000000E+00 0.  1.
</event>
<event>
 7    1  0.3223600E-013  0.5930195E+02  0.7816164E-02  0.1266605E+00
        -11   -1    0    0    0    0  0.00000000000E+00  0.00000000000E+00  0.45593999997E+02  0.45594000000E+02  0.51100000000E-03 0.  1.
         11   -1    0    0    0    0 -0.00000000000E+00 -0.00000000000E+00 -0.45593999997E+02  0.45594000000E+02  0.51100000000E-03 0. -1.
    9900012    2    1    2    0    0  0.11269117200E+02  0.26200579360E+02  0.14256808055E+02  0.59301953880E+02  0.50000017968E+02 0.  0.
         12    1    1    2    0    0 -0.11269117200E+02 -0.26200579360E+02 -0.14256808055E+02  0.31886046120E+02  0.00000000000E+00 0. -1.
         11    1    3    3    0    0  0.12576090945E+02 -0.42414311935E+01 -0.23326418167E+01  0.13475497028E+02  0.51100000000E-03 0. -1.
        -11    1    3    3    0    0  0.53095337364E+01  0.22638418224E+02  0.23828064108E+02  0.33293629535E+02  0.51100000000E-03 0.  1.
         12    1    3    3    0    0 -0.66165074818E+01  0.78035923291E+01 -0.72386142370E+01  0.12532827317E+02  0.00000000000E+00 0. -1.
</event>
<event>
 7    1  0.3223600E-013  0.5930194E+02  0.7816164E-02  0.1266605E+00
        -11   -1    0    0    0    0  0.00000000000E+00  0.00000000000E+00  0.45593999997E+02  0.45594000000E+02  0.51100000000E-03 0.  1.
         11   -1    0    0    0    0 -0.00000000000E+00 -0.00000000000E+00 -0.45593999997E+02  0.45594000000E+02  0.51100000000E-03 0. -1.
    9900012    2    1    2    0    0  0.93052010846E+00 -0.23968532534E+02  0.21008668596E+02  0.59301943867E+02  0.49999999708E+02 0.  0.
         12    1    1    2    0    0 -0.93052010846E+00  0.23968532534E+02 -0.21008668596E+02  0.31886056133E+02  0.00000000000E+00 0. -1.
         11    1    3    3    0    0  0.59699970207E+01 -0.11095397029E+02 -0.15718115043E+00  0.12600531966E+02  0.51100000000E-03 0. -1.
        -11    1    3    3    0    0  0.10757227776E+02  0.28116435198E+01 -0.51327491193E+01  0.12246158683E+02  0.51100000000E-03 0.  1.
        -12    1    3    3    0    0 -0.15796704688E+02 -0.15684779026E+02  0.26298598866E+02  0.34455253219E+02  0.00000000000E+00 0.  1.
</event>
<event>
 7    1  0.3223600E-013  0.5930212E+02  0.7816164E-02  0.1266604E+00
        -11   -1    0    0    0    0  0.00000000000E+00  0.00000000000E+00  0.45593999997E+02  0.45594000000E+02  0.51100000000E-03 0.  1.
         11   -1    0    0    0    0 -0.00000000000E+00 -0.00000000000E+00 -0.45593999997E+02  0.45594000000E+02  0.51100000000E-03 0. -1.
    9900012    2    1    2    0    0  0.11093482542E+02  0.86686530974E+01  0.28609406369E+02  0.59302124847E+02  0.50000329771E+02 0.  0.
         12    1    1    2    0    0 -0.11093482542E+02 -0.86686530974E+01 -0.28609406369E+02  0.31885875153E+02  0.00000000000E+00 0. -1.
         11    1    3    3    0    0 -0.17200834161E+01  0.60157409033E+01 -0.47831302516E+01  0.78756689137E+01  0.51100000000E-03 0. -1.
        -11    1    3    3    0    0 -0.12106184617E+02  0.41488356566E+01  0.53197664968E+01  0.13859020858E+02  0.51100000000E-03 0.  1.
        -12    1    3    3    0    0  0.24919750575E+02 -0.14959234625E+01  0.28072770124E+02  0.37567435076E+02  0.00000000000E+00 0.  1.
</event>
<event>
 7    1  0.3223600E-013  0.5930195E+02  0.7816164E-02  0.1266605E+00
        -11   -1    0    0    0    0  0.00000000000E+00  0.00000000000E+00  0.45593999997E+02  0.45594000000E+02  0.51100000000E-03 0.  1.
         11   -1    0    0    0    0 -0.00000000000E+00 -0.00000000000E+00 -0.45593999997E+02  0.45594000000E+02  0.51100000000E-03 0. -1.
    9900012    2    1    2    0    0  0.18085876500E+01 -0.20963052671E+02  0.23958292026E+02  0.59301947824E+02  0.50000006923E+02 0.  0.
         12    1    1    2    0    0 -0.18085876500E+01  0.20963052671E+02 -0.23958292026E+02  0.31886052176E+02  0.00000000000E+00 0. -1.
         11    1    3    3    0    0 -0.19705023032E+02 -0.65721548251E+01  0.15330028964E+02  0.25816485819E+02  0.51100000000E-03 0. -1.
        -11    1    3    3    0    0 -0.86002556359E+00 -0.18239127114E+01  0.75356471473E+01  0.78007871230E+01  0.51100000000E-03 0.  1.
        -12    1    3    3    0    0  0.22373636246E+02 -0.12566985135E+02  0.10926159147E+01  0.25684674882E+02  0.00000000000E+00 0.  1.
</event>
<event>
 7    1  0.3223600E-013  0.5930200E+02  0.7816164E-02  0.1266605E+00
        -11   -1    0    0    0    0  0.00000000000E+00  0.00000000000E+00  0.45593999997E+02  0.45594000000E+02  0.51100000000E-03 0. -1.
         11   -1    0    0    0    0 -0.00000000000E+00 -0.00000000000E+00 -0.45593999997E+02  0.45594000000E+02  0.51100000000E-03 0.  1.
    9900012    2    1    2    0    0  0.19747666230E+02  0.22070823533E+02 -0.11816310761E+02  0.59302003497E+02  0.50000108458E+02 0.  0.
         12    1    1    2    0    0 -0.19747666230E+02 -0.22070823533E+02  0.11816310761E+02  0.31885996503E+02  0.00000000000E+00 0. -1.
         11    1    3    3    0    0 -0.38000537248E+01  0.46721044506E+01 -0.28716955362E+01  0.66720014855E+01  0.51100000000E-03 0. -1.
        -11    1    3    3    0    0  0.61762415341E+01 -0.61924843965E+01 -0.19594153378E+02  0.21457485159E+02  0.51100000000E-03 0.  1.
        -12    1    3    3    0    0  0.17371478421E+02  0.23591203479E+02  0.10649538153E+02  0.31172516853E+02  0.00000000000E+00 0.  1.
</event>
<event>
 7    1  0.3223600E-013  0.5930190E+02  0.7816164E-02  0.1266605E+00
        -11   -1    0    0    0    0  0.00000000000E+00  0.00000000000E+00  0.45593999997E+02  0.45594000000E+02  0.51100000000E-03 0. -1.
         11   -1    0    0    0    0 -0.00000000000E+00 -0.00000000000E+00 -0.45593999997E+02  0.45594000000E+02  0.51100000000E-03 0.  1.
    9900012    2    1    2    0    0 -0.30538835865E+02 -0.59065809066E+01 -0.70153353169E+01  0.59301903914E+02  0.49999926842E+02 0.  0.
         12    1    1    2    0    0  0.30538835865E+02  0.59065809066E+01  0.70153353169E+01  0.31886096086E+02  0.00000000000E+00 0. -1.
         11    1    3    3    0    0 -0.72510268490E+01  0.11562522277E+02  0.82015328350E+01  0.15922765239E+02  0.51100000000E-03 0. -1.
        -11    1    3    3    0    0 -0.10143706002E+02  0.64657003592E+01 -0.98564589280E+01  0.15551521965E+02  0.51100000000E-03 0.  1.
         12    1    3    3    0    0 -0.13144103014E+02 -0.23934803542E+02 -0.53604092239E+01  0.27827616709E+02  0.00000000000E+00 0. -1.
</event>
<event>
 7    1  0.3223600E-013  0.5930195E+02  0.7816164E-02  0.1266605E+00
        -11   -1    0    0    0    0  0.00000000000E+00  0.00000000000E+00  0.45593999997E+02  0.45594000000E+02  0.51100000000E-03 0.  1.
         11   -1    0    0    0    0 -0.00000000000E+00 -0.00000000000E+00 -0.45593999997E+02  0.45594000000E+02  0.51100000000E-03 0. -1.
    9900012    2    1    2    0    0  0.99823458139E+01 -0.26312497413E+02  0.14990846853E+02  0.59301949172E+02  0.50000009382E+02 0.  0.
         12    1    1    2    0    0 -0.99823458139E+01  0.26312497413E+02 -0.14990846853E+02  0.31886050828E+02  0.00000000000E+00 0. -1.
         11    1    3    3    0    0  0.15543496137E+02 -0.12903906474E+02  0.20444864284E+02  0.28742017158E+02  0.51100000000E-03 0.  1.
        -11    1    3    3    0    0  0.52823163847E+01 -0.16516648530E+02  0.13388786706E+01  0.17392387456E+02  0.51100000000E-03 0. -1.
         12    1    3    3    0    0 -0.10843466708E+02  0.31080575914E+01 -0.67928961021E+01  0.13167544558E+02  0.00000000000E+00 0. -1.
</event>
<event>
 7    1  0.3223600E-013  0.5930194E+02  0.7816164E-02  0.1266605E+00
        -11   -1    0    0    0    0  0.00000000000E+00  0.00000000000E+00  0.45593999997E+02  0.45594000000E+02  0.51100000000E-03 0. -1.
         11   -1    0    0    0    0 -0.00000000000E+00 -0.00000000000E+00 -0.45593999997E+02  0.45594000000E+02  0.51100000000E-03 0.  1.
    9900012    2    1    2    0    0  0.25848337033E+02  0.15645078992E+02  0.10188996035E+02  0.59301942479E+02  0.49999997175E+02 0.  0.
         12    1    1    2    0    0 -0.25848337033E+02 -0.15645078992E+02 -0.10188996035E+02  0.31886057521E+02  0.00000000000E+00 0. -1.
         11    1    3    3    0    0  0.24677902261E+02  0.15720641990E+02  0.17143663660E+02  0.33912278728E+02  0.51100000000E-03 0.  1.
        -11    1    3    3    0    0  0.18433916421E+01  0.27907170897E+01  0.87729348224E+01  0.93888540451E+01  0.51100000000E-03 0. -1.
         12    1    3    3    0    0 -0.67295686969E+00 -0.28662800874E+01 -0.15727602447E+02  0.16000809705E+02  0.00000000000E+00 0. -1.
</event>
<event>
 7    1  0.3223600E-013  0.5930194E+02  0.7816164E-02  0.1266605E+00
        -11   -1    0    0    0    0  0.00000000000E+00  0.00000000000E+00  0.45593999997E+02  0.45594000000E+02  0.51100000000E-03 0.  1.
         11   -1    0    0    0    0 -0.00000000000E+00 -0.00000000000E+00 -0.45593999997E+02  0.45594000000E+02  0.51100000000E-03 0. -1.
    9900012    2    1    2    0    0 -0.12139811081E+00 -0.19220204461E+02  0.25441885647E+02  0.59301944391E+02  0.50000000663E+02 0.  0.
         12    1    1    2    0    0  0.12139811081E+00  0.19220204461E+02 -0.25441885647E+02  0.31886055609E+02  0.00000000000E+00 0. -1.
         11    1    3    3    0    0  0.35219061628E+01  0.30003475801E+01  0.27982294293E+01  0.54070321639E+01  0.51100000000E-03 0.  1.
        -11    1    3    3    0    0  0.19227786065E+02 -0.87231747737E+01  0.41100088069E+01  0.21510316310E+02  0.51100000000E-03 0. -1.
        -12    1    3    3    0    0 -0.22871090339E+02 -0.13497377267E+02  0.18533647411E+02  0.32384595917E+02  0.00000000000E+00 0.  1.
</event>
<event>
 7    1  0.3223600E-013  0.5930194E+02  0.7816164E-02  0.1266605E+00
        -11   -1    0    0    0    0  0.00000000000E+00  0.00000000000E+00  0.45593999997E+02  0.45594000000E+02  0.51100000000E-03 0. -1.
         11   -1    0    0    0    0 -0.00000000000E+00 -0.00000000000E+00 -0.45593999997E+02  0.45594000000E+02  0.51100000000E-03 0.  1.
    9900012    2    1    2    0    0 -0.24641726355E+02 -0.19409682881E+02  0.57245182780E+01  0.59301943849E+02  0.49999999675E+02 0.  0.
         12    1    1    2    0    0  0.24641726355E+02  0.19409682881E+02 -0.57245182780E+01  0.31886056151E+02  0.00000000000E+00 0. -1.
         11    1    3    3    0    0 -0.23094946934E+02  0.61415742525E+01  0.14962458441E+01  0.23944399347E+02  0.51100000000E-03 0. -1.
        -11    1    3    3    0    0 -0.12958783399E+01  0.45606633249E+01  0.20515020712E+01  0.51660053857E+01  0.51100000000E-03 0.  1.
        -12    1    3    3    0    0 -0.25090108141E+00 -0.30111920458E+02  0.21767703626E+01  0.30191539117E+02  0.00000000000E+00 0.  1.
</event>
<event>
 7    1  0.3223600E-013  0.5930196E+02  0.7816164E-02  0.1266605E+00
        -11   -1    0    0    0    0  0.00000000000E+00  0.00000000000E+00  0.45593999997E+02  0.45594000000E+02  0.51100000000E-03 0.  1.
         11   -1    0    0    0    0 -0.00000000000E+00 -0.00000000000E+00 -0.45593999997E+02  0.45594000000E+02  0.51100000000E-03 0. -1.
    9900012    2    1    2    0    0  0.50165631923E+01  0.29347568607E+02 -0.11413753179E+02  0.59301961503E+02  0.50000031871E+02 0.  0.
         12    1    1    2    0    0 -0.50165631923E+01 -0.29347568607E+02  0.11413753179E+02  0.31886038497E+02  0.00000000000E+00 0. -1.
         11    1    3    3    0    0 -0.14896951323E+02  0.17823286445E+02  0.61623419159E+00  0.23237221075E+02  0.51100000000E-03 0. -1.
        -11    1    3    3    0    0  0.28483470900E+01  0.15749452064E+02 -0.85414494930E+01  0.18141518160E+02  0.51100000000E-03 0.  1.
        -12    1    3    3    0    0  0.17065167426E+02 -0.42251699015E+01 -0.34885378774E+01  0.17923222268E+02  0.00000000000E+00 0.  1.
</event>
<event>
 7    1  0.3223600E-013  0.5930194E+02  0.7816164E-02  0.1266605E+00
        -11   -1    0    0    0    0  0.00000000000E+00  0.00000000000E+00  0.45593999997E+02  0.45594000000E+02  0.51100000000E-03 0. -1.
         11   -1    0    0    0    0 -0.00000000000E+00 -0.00000000000E+00 -0.45593999997E+02  0.45594000000E+02  0.51100000000E-03 0.  1.
    9900012    2    1    2    0    0 -0.59538932251E+01 -0.11182265669E+02 -0.29261391399E+02  0.59301938207E+02  0.49999989385E+02 0.  0.
         12    1    1    2    0    0  0.59538932251E+01  0.11182265669E+02  0.29261391399E+02  0.31886061793E+02  0.00000000000E+00 0. -1.
         11    1    3    3    0    0  0.17510263589E+01 -0.13264178631E+02 -0.17409375396E+01  0.13492049208E+02  0.51100000000E-03 0. -1.
        -11    1    3    3    0    0 -0.11176717413E+02 -0.11828741251E+02 -0.18128277965E+01  0.16374506912E+02  0.51100000000E-03 0.  1.
         12    1    3    3    0    0  0.34717978295E+01  0.13910654213E+02 -0.25707626063E+02  0.29435382087E+02  0.00000000000E+00 0. -1.
</event>
<event>
 7    1  0.3223600E-013  0.5930194E+02  0.7816164E-02  0.1266605E+00
        -11   -1    0    0    0    0  0.00000000000E+00  0.00000000000E+00  0.45593999997E+02  0.45594000000E+02  0.51100000000E-03 0.  1.
         11   -1    0    0    0    0 -0.00000000000E+00 -0.00000000000E+00 -0.45593999997E+02  0.45594000000E+02  0.51100000000E-03 0. -1.
    9900012    2    1    2    0    0  0.29891325283E+02  0.11098704138E+02  0.21937138476E+00  0.59301942161E+02  0.49999996595E+02 0.  0.
         12    1    1    2    0    0 -0.29891325283E+02 -0.11098704138E+02 -0.21937138476E+00  0.31886057839E+02  0.00000000000E+00 0. -1.
         11    1    3    3    0    0  0.36972729425E+01  0.14673022531E+02 -0.10733135341E+02  0.18551754956E+02  0.51100000000E-03 0. -1.
        -11    1    3    3    0    0  0.18295008643E+02  0.10151075454E+02 -0.94340279540E+00  0.20943774330E+02  0.51100000000E-03 0.  1.
        -12    1    3    3    0    0  0.78990436983E+01 -0.13725393848E+02  0.11895909522E+02  0.19806412875E+02  0.00000000000E+00 0.  1.
</event>
<event>
 7    1  0.3223600E-013  0.5930194E+02  0.7816164E-02  0.1266605E+00
        -11   -1    0    0    0    0  0.00000000000E+00  0.00000000000E+00  0.45593999997E+02  0.45594000000E+02  0.51100000000E-03 0.  1.
         11   -1    0    0    0    0 -0.00000000000E+00 -0.00000000000E+00 -0.45593999997E+02  0.45594000000E+02  0.51100000000E-03 0. -1.
    9900012    2    1    2    0    0  0.82064477420E+01  0.12479587175E+02  0.28171531527E+02  0.59301936129E+02  0.49999985595E+02 0.  0.
         12    1    1    2    0    0 -0.82064477420E+01 -0.12479587175E+02 -0.28171531527E+02  0.31886063871E+02  0.00000000000E+00 0. -1.
         11    1    3    3    0    0 -0.60656807176E+01 -0.91797057579E+01  0.29075883582E+01  0.11380402044E+02  0.51100000000E-03 0. -1.
        -11    1    3    3    0    0  0.53409020861E+00  0.22365056759E+01  0.23987033145E+02  0.24096990878E+02  0.51100000000E-03 0.  1.
         12    1    3    3    0    0  0.13738038251E+02  0.19422787257E+02  0.12769100234E+01  0.23824543207E+02  0.00000000000E+00 0. -1.
</event>
<event>
 7    1  0.3223600E-013  0.5930194E+02  0.7816164E-02  0.1266605E+00
        -11   -1    0    0    0    0  0.00000000000E+00  0.00000000000E+00  0.45593999997E+02  0.45594000000E+02  0.51100000000E-03 0. -1.
         11   -1    0    0    0    0 -0.00000000000E+00 -0.00000000000E+00 -0.45593999997E+02  0.45594000000E+02  0.51100000000E-03 0.  1.
    9900012    2    1    2    0    0  0.31742649421E+02 -0.25238646646E+01 -0.16598150181E+01  0.59301942373E+02  0.49999996982E+02 0.  0.
         12    1    1    2    0    0 -0.31742649421E+02  0.25238646646E+01  0.16598150181E+01  0.31886057627E+02  0.00000000000E+00 0. -1.
         11    1    3    3    0    0  0.13315861419E+02  0.85223809738E+01 -0.36640528574E+01  0.16228629837E+02  0.51100000000E-03 0.  1.
        -11    1    3    3    0    0 -0.35749765380E+01  0.57951246125E+01 -0.10627886867E+02  0.12622040486E+02  0.51100000000E-03 0. -1.
        -12    1    3    3    0    0  0.22001764540E+02 -0.16841370251E+02  0.12632124706E+02  0.30451272049E+02  0.00000000000E+00 0.  1.
</event>
<event>
 7    1  0.3223600E-013  0.5930194E+02  0.7816164E-02  0.1266605E+00
        -11   -1    0    0    0    0  0.00000000000E+00  0.00000000000E+00  0.45593999997E+02  0.45594000000E+02  0.51100000000E-03 0.  1.
         11   -1    0    0    0    0 -0.00000000000E+00 -0.00000000000E+00 -0.45593999997E+02  0.45594000000E+02  0.51100000000E-03 0. -1.
    9900012    2    1    2    0    0 -0.13084977250E+02  0.28897542724E+02  0.32305042297E+01  0.59301940935E+02  0.49999994359E+02 0.  0.
         12    1    1    2    0    0  0.13084977250E+02 -0.28897542724E+02 -0.32305042297E+01  0.31886059065E+02  0.00000000000E+00 0. -1.
         11    1    3    3    0    0 -0.61117308811E+01 -0.14520643307E+01 -0.35810316772E+01  0.72308736206E+01  0.51100000000E-03 0. -1.
        -11    1    3    3    0    0  0.81152016952E+01  0.16751164228E+02  0.20413385877E+02  0.27625428952E+02  0.51100000000E-03 0.  1.
         12    1    3    3    0    0 -0.15088448065E+02  0.13598442827E+02 -0.13601849970E+02  0.24445638362E+02  0.00000000000E+00 0. -1.
</event>
<event>
 7    1  0.3223600E-013  0.5930199E+02  0.7816164E-02  0.1266605E+00
        -11   -1    0    0    0    0  0.00000000000E+00  0.00000000000E+00  0.45593999997E+02  0.45594000000E+02  0.51100000000E-03 0.  1.
         11   -1    0    0    0    0 -0.00000000000E+00 -0.00000000000E+00 -0.45593999997E+02  0.45594000000E+02  0.51100000000E-03 0. -1.
    9900012    2    1    2    0    0 -0.10626477551E+02 -0.24500705082E+02 -0.17421574949E+02  0.59301986634E+02  0.50000077704E+02 0.  0.
         12    1    1    2    0    0  0.10626477551E+02  0.24500705082E+02  0.17421574949E+02  0.31886013366E+02  0.00000000000E+00 0. -1.
         11    1    3    3    0    0 -0.82560979618E+01  0.66962591573E+00 -0.50941999129E+01  0.97243213355E+01  0.51100000000E-03 0. -1.
        -11    1    3    3    0    0 -0.21337080330E+02 -0.13323240376E+02 -0.29464854116E+01  0.25327090391E+02  0.51100000000E-03 0.  1.
        -12    1    3    3    0    0  0.18966700741E+02 -0.11847090622E+02 -0.93808896244E+01  0.24250574908E+02  0.00000000000E+00 0.  1.
</event>
<event>
 7    1  0.3223600E-013  0.5930196E+02  0.7816164E-02  0.1266605E+00
        -11   -1    0    0    0    0  0.00000000000E+00  0.00000000000E+00  0.45593999997E+02  0.45594000000E+02  0.51100000000E-03 0. -1.
         11   -1    0    0    0    0 -0.00000000000E+00 -0.00000000000E+00 -0.45593999997E+02  0.45594000000E+02  0.51100000000E-03 0.  1.
    9900012    2    1    2    0    0  0.17328014185E+02 -0.11408046875E+02 -0.24213955589E+02  0.59301964587E+02  0.50000037495E+02 0.  0.
         12    1    1    2    0    0 -0.17328014185E+02  0.11408046875E+02  0.24213955589E+02  0.31886035413E+02  0.00000000000E+00 0. -1.
         11    1    3    3    0    0 -0.25107757368E+01 -0.70747197463E+01  0.16152300675E+01  0.76788425379E+01  0.51100000000E-03 0. -1.
        -11    1    3    3    0    0 -0.83751685594E+01  0.65725948945E+01 -0.17094832768E+02  0.20138911581E+02  0.51100000000E-03 0.  1.
         12    1    3    3    0    0  0.28213958482E+02 -0.10905922024E+02 -0.87343528881E+01  0.31484210467E+02  0.00000000000E+00 0. -1.
</event>
<event>
 7    1  0.3223600E-013  0.5930196E+02  0.7816164E-02  0.1266605E+00
        -11   -1    0    0    0    0  0.00000000000E+00  0.00000000000E+00  0.45593999997E+02  0.45594000000E+02  0.51100000000E-03 0. -1.
         11   -1    0    0    0    0 -0.00000000000E+00 -0.00000000000E+00 -0.45593999997E+02  0.45594000000E+02  0.51100000000E-03 0.  1.
    9900012    2    1    2    0    0 -0.48699324702E+01  0.52026111856E+01 -0.31079511080E+02  0.59301962078E+02  0.50000032919E+02 0.  0.
         12    1    1    2    0    0  0.48699324702E+01 -0.52026111856E+01  0.31079511080E+02  0.31886037922E+02  0.00000000000E+00 0. -1.
         11    1    3    3    0    0 -0.11807655914E+02 -0.14944526763E+02 -0.14931655528E+02  0.24201527956E+02  0.51100000000E-03 0. -1.
        -11    1    3    3    0    0 -0.17106702999E+01 -0.16026269994E+01 -0.10852499212E+02  0.11102771977E+02  0.51100000000E-03 0.  1.
         12    1    3    3    0    0  0.86483937439E+01  0.21749764948E+02 -0.52953563404E+01  0.23997662145E+02  0.00000000000E+00 0. -1.
</event>
<event>
 7    1  0.3223600E-013  0.5930189E+02  0.7816164E-02  0.1266605E+00
        -11   -1    0    0    0    0  0.00000000000E+00  0.00000000000E+00  0.45593999997E+02  0.45594000000E+02  0.51100000000E-03 0. -1.
         11   -1    0    0    0    0 -0.00000000000E+00 -0.00000000000E+00 -0.45593999997E+02  0.45594000000E+02  0.51100000000E-03 0.  1.
    9900012    2    1    2    0    0 -0.80933608954E+01 -0.29486528829E+02 -0.90424562095E+01  0.59301891939E+02  0.49999905002E+02 0.  0.
         12    1    1    2    0    0  0.80933608954E+01  0.29486528829E+02  0.90424562095E+01  0.31886108061E+02  0.00000000000E+00 0. -1.
         11    1    3    3    0    0 -0.34143521505E+00 -0.31725949488E+02 -0.84182453374E+01  0.32825589161E+02  0.51100000000E-03 0. -1.
        -11    1    3    3    0    0 -0.33788921091E+01  0.57775899850E+01 -0.12025631106E+02  0.13762749060E+02  0.51100000000E-03 0.  1.
        -12    1    3    3    0    0 -0.43730335713E+01 -0.35381693259E+01  0.11401420234E+02  0.12713553718E+02  0.00000000000E+00 0.  1.
</event>
<event>
 7    1  0.3223600E-013  0.5930194E+02  0.7816164E-02  0.1266605E+00
        -11   -1    0    0    0    0  0.00000000000E+00  0.00000000000E+00  0.45593999997E+02  0.45594000000E+02  0.51100000000E-03 0. -1.
         11   -1    0    0    0    0 -0.00000000000E+00 -0.00000000000E+00 -0.45593999997E+02  0.45594000000E+02  0.51100000000E-03 0.  1.
    9900012    2    1    2    0    0 -0.19737132267E+02  0.13232340525E+02 -0.21261974948E+02  0.59301940278E+02  0.49999993161E+02 0.  0.
         12    1    1    2    0    0  0.19737132267E+02 -0.13232340525E+02  0.21261974948E+02  0.31886059722E+02  0.00000000000E+00 0. -1.
         11    1    3    3    0    0 -0.73741123197E+01  0.18648650896E+02  0.53038337357E+00  0.20060683427E+02  0.51100000000E-03 0. -1.
        -11    1    3    3    0    0 -0.23493017288E+01  0.12170895617E+02 -0.83286002819E+01  0.14933703548E+02  0.51100000000E-03 0.  1.
         12    1    3    3    0    0 -0.10013718218E+02 -0.17587205988E+02 -0.13463758040E+02  0.24307553303E+02  0.00000000000E+00 0. -1.
</event>
<event>
 7    1  0.3223600E-013  0.5930194E+02  0.7816164E-02  0.1266605E+00
        -11   -1    0    0    0    0  0.00000000000E+00  0.00000000000E+00  0.45593999997E+02  0.45594000000E+02  0.51100000000E-03 0. -1.
         11   -1    0    0    0    0 -0.00000000000E+00 -0.00000000000E+00 -0.45593999997E+02  0.45594000000E+02  0.51100000000E-03 0.  1.
    9900012    2    1    2    0    0 -0.16579399578E+02 -0.20811855804E+02 -0.17570179460E+02  0.59301936608E+02  0.49999986468E+02 0.  0.
         12    1    1    2    0    0  0.16579399578E+02  0.20811855804E+02  0.17570179460E+02  0.31886063392E+02  0.00000000000E+00 0. -1.
         11    1    3    3    0    0 -0.84108074213E+01 -0.55781042587E+01 -0.12684023539E+02  0.16209299245E+02  0.51100000000E-03 0.  1.
        -11    1    3    3    0    0  0.13370325185E+02 -0.15390691048E+02 -0.67426446067E+01  0.21473290923E+02  0.51100000000E-03 0. -1.
         12    1    3    3    0    0 -0.21538917342E+02  0.15693950223E+00  0.18564886860E+01  0.21619346441E+02  0.00000000000E+00 0. -1.
</event>
<event>
 7    1  0.3223600E-013  0.5930192E+02  0.7816164E-02  0.1266605E+00
        -11   -1    0    0    0    0  0.00000000000E+00  0.00000000000E+00  0.45593999997E+02  0.45594000000E+02  0.51100000000E-03 0.  1.
         11   -1    0    0    0    0 -0.00000000000E+00 -0.00000000000E+00 -0.45593999997E+02  0.45594000000E+02  0.51100000000E-03 0. -1.
    9900012    2    1    2    0    0  0.28060815527E+02 -0.14534038296E+02  0.42514258697E+01  0.59301917469E+02  0.49999951564E+02 0.  0.
         12    1    1    2    0    0 -0.28060815527E+02  0.14534038296E+02 -0.42514258697E+01  0.31886082531E+02  0.00000000000E+00 0. -1.
         11    1    3    3    0    0  0.14977939493E+02 -0.95383395891E+01 -0.13091363360E+02  0.22061332427E+02  0.51100000000E-03 0. -1.
        -11    1    3    3    0    0  0.21801736511E+02 -0.31488352663E+01  0.60290170781E+01  0.22838124389E+02  0.51100000000E-03 0.  1.
         12    1    3    3    0    0 -0.87188604768E+01 -0.18468634408E+01  0.11313772151E+02  0.14402460654E+02  0.00000000000E+00 0. -1.
</event>
<event>
 7    1  0.3223600E-013  0.5930195E+02  0.7816164E-02  0.1266605E+00
        -11   -1    0    0    0    0  0.00000000000E+00  0.00000000000E+00  0.45593999997E+02  0.45594000000E+02  0.51100000000E-03 0. -1.
         11   -1    0    0    0    0 -0.00000000000E+00 -0.00000000000E+00 -0.45593999997E+02  0.45594000000E+02  0.51100000000E-03 0.  1.
    9900012    2    1    2    0    0  0.24151614790E+02 -0.89130051178E+01 -0.18814307812E+02  0.59301947632E+02  0.50000006574E+02 0.  0.
         12    1    1    2    0    0 -0.24151614790E+02  0.89130051178E+01  0.18814307812E+02  0.31886052368E+02  0.00000000000E+00 0. -1.
         11    1    3    3    0    0  0.19547253630E+02 -0.18896226981E+02  0.32028840131E+01  0.27375554513E+02  0.51100000000E-03 0. -1.
        -11    1    3    3    0    0  0.82482924870E+01  0.36788242854E+00 -0.73356906818E+00  0.82890162427E+01  0.51100000000E-03 0.  1.
         12    1    3    3    0    0 -0.36439313276E+01  0.96153394351E+01 -0.21283622756E+02  0.23637376877E+02  0.00000000000E+00 0. -1.
</event>
<event>
 7    1  0.3223600E-013  0.5930166E+02  0.7816164E-02  0.1266606E+00
        -11   -1    0    0    0    0  0.00000000000E+00  0.00000000000E+00  0.45593999997E+02  0.45594000000E+02  0.51100000000E-03 0.  1.
         11   -1    0    0    0    0 -0.00000000000E+00 -0.00000000000E+00 -0.45593999997E+02  0.45594000000E+02  0.51100000000E-03 0. -1.
    9900012    2    1    2    0    0 -0.10044333307E+02  0.92485731998E+00  0.30248878290E+02  0.59301660755E+02  0.49999483376E+02 0.  0.
         12    1    1    2    0    0  0.10044333307E+02 -0.92485731998E+00 -0.30248878290E+02  0.31886339245E+02  0.00000000000E+00 0. -1.
         11    1    3    3    0    0 -0.18568673294E+02 -0.92174658975E+01  0.38708992635E+01  0.21088887283E+02  0.51100000000E-03 0. -1.
        -11    1    3    3    0    0  0.49089830204E+01 -0.37085129325E+01 -0.19662108635E+01  0.64588828667E+01  0.51100000000E-03 0.  1.
        -12    1    3    3    0    0  0.36153569662E+01  0.13850836150E+02  0.28344189890E+02  0.31753890605E+02  0.00000000000E+00 0.  1.
</event>
<event>
 7    1  0.3223600E-013  0.5930192E+02  0.7816164E-02  0.1266605E+00
        -11   -1    0    0    0    0  0.00000000000E+00  0.00000000000E+00  0.45593999997E+02  0.45594000000E+02  0.51100000000E-03 0.  1.
         11   -1    0    0    0    0 -0.00000000000E+00 -0.00000000000E+00 -0.45593999997E+02  0.45594000000E+02  0.51100000000E-03 0. -1.
    9900012    2    1    2    0    0 -0.29646383032E+02 -0.11273379456E+02  0.32748877416E+01  0.59301921518E+02  0.49999958947E+02 0.  0.
         12    1    1    2    0    0  0.29646383032E+02  0.11273379456E+02 -0.32748877416E+01  0.31886078482E+02  0.00000000000E+00 0. -1.
         11    1    3    3    0    0  0.13741697249E+00 -0.24200629250E+01 -0.65168493577E+01  0.69530506828E+01  0.51100000000E-03 0. -1.
        -11    1    3    3    0    0 -0.28000024309E+02  0.10866406554E+02  0.12169385792E+02  0.32406389856E+02  0.51100000000E-03 0.  1.
         12    1    3    3    0    0 -0.17837756959E+01 -0.19719723085E+02 -0.23776486932E+01  0.19942480979E+02  0.00000000000E+00 0. -1.
</event>
<event>
 7    1  0.3223600E-013  0.5930193E+02  0.7816164E-02  0.1266605E+00
        -11   -1    0    0    0    0  0.00000000000E+00  0.00000000000E+00  0.45593999997E+02  0.45594000000E+02  0.51100000000E-03 0. -1.
         11   -1    0    0    0    0 -0.00000000000E+00 -0.00000000000E+00 -0.45593999997E+02  0.45594000000E+02  0.51100000000E-03 0.  1.
    9900012    2    1    2    0    0  0.80185934462E+01 -0.30124522024E+02  0.67035009363E+01  0.59301927917E+02  0.49999970619E+02 0.  0.
         12    1    1    2    0    0 -0.80185934462E+01  0.30124522024E+02 -0.67035009363E+01  0.31886072083E+02  0.00000000000E+00 0. -1.
         11    1    3    3    0    0 -0.14674435030E+02 -0.11835483116E+02  0.63581785679E+01  0.19895832202E+02  0.51100000000E-03 0. -1.
        -11    1    3    3    0    0 -0.29018427649E+01  0.36698690382E+01 -0.29353927313E+01  0.55231477382E+01  0.51100000000E-03 0.  1.
        -12    1    3    3    0    0  0.25594871241E+02 -0.21958907947E+02  0.32807150996E+01  0.33882947977E+02  0.00000000000E+00 0.  1.
</event>
<event>
 7    1  0.3223600E-013  0.5930190E+02  0.7816164E-02  0.1266605E+00
        -11   -1    0    0    0    0  0.00000000000E+00  0.00000000000E+00  0.45593999997E+02  0.45594000000E+02  0.51100000000E-03 0.  1.
         11   -1    0    0    0    0 -0.00000000000E+00 -0.00000000000E+00 -0.45593999997E+02  0.45594000000E+02  0.51100000000E-03 0. -1.
    9900012    2    1    2    0    0  0.22176429835E+02 -0.92589259341E+01  0.20957133682E+02  0.59301902687E+02  0.49999924605E+02 0.  0.
         12    1    1    2    0    0 -0.22176429835E+02  0.92589259341E+01 -0.20957133682E+02  0.31886097313E+02  0.00000000000E+00 0. -1.
         11    1    3    3    0    0 -0.63878186732E+00 -0.10157170434E+02 -0.25949273165E+01  0.10502847306E+02  0.51100000000E-03 0. -1.
        -11    1    3    3    0    0 -0.73338224896E+01  0.25072622488E+01  0.15844883119E+02  0.17638923935E+02  0.51100000000E-03 0.  1.
        -12    1    3    3    0    0  0.30149034192E+02 -0.16090177487E+01  0.77071778800E+01  0.31160131445E+02  0.00000000000E+00 0.  1.
</event>
<event>
 7    1  0.3223600E-013  0.5930193E+02  0.7816164E-02  0.1266605E+00
        -11   -1    0    0    0    0  0.00000000000E+00  0.00000000000E+00  0.45593999997E+02  0.45594000000E+02  0.51100000000E-03 0.  1.
         11   -1    0    0    0    0 -0.00000000000E+00 -0.00000000000E+00 -0.45593999997E+02  0.45594000000E+02  0.51100000000E-03 0. -1.
    9900012    2    1    2    0    0  0.13894593228E+01  0.24874357281E+02  0.19901179480E+02  0.59301934203E+02  0.49999982082E+02 0.  0.
         12    1    1    2    0    0 -0.13894593228E+01 -0.24874357281E+02 -0.19901179480E+02  0.31886065797E+02  0.00000000000E+00 0. -1.
         11    1    3    3    0    0  0.15093804910E+02  0.10483797553E+02 -0.86004200336E+01  0.20290396320E+02  0.51100000000E-03 0. -1.
        -11    1    3    3    0    0 -0.76281429018E+00  0.10339665114E+02  0.21225077218E+02  0.23621906432E+02  0.51100000000E-03 0.  1.
        -12    1    3    3    0    0 -0.12941531297E+02  0.40508946139E+01  0.72765222957E+01  0.15389631451E+02  0.00000000000E+00 0.  1.
</event>
<event>
 7    1  0.3223600E-013  0.5930193E+02  0.7816164E-02  0.1266605E+00
        -11   -1    0    0    0    0  0.00000000000E+00  0.00000000000E+00  0.45593999997E+02  0.45594000000E+02  0.51100000000E-03 0.  1.
         11   -1    0    0    0    0 -0.00000000000E+00 -0.00000000000E+00 -0.45593999997E+02  0.45594000000E+02  0.51100000000E-03 0. -1.
    9900012    2    1    2    0    0 -0.14388296072E+02 -0.96816723622E+01  0.26757490978E+02  0.59301934595E+02  0.49999982797E+02 0.  0.
         12    1    1    2    0    0  0.14388296072E+02  0.96816723622E+01 -0.26757490978E+02  0.31886065405E+02  0.00000000000E+00 0. -1.
         11    1    3    3    0    0 -0.10250927064E+02 -0.71170576791E+01 -0.89685941683E+01  0.15367813679E+02  0.51100000000E-03 0. -1.
        -11    1    3    3    0    0  0.17190584670E+00  0.24511065576E+01 -0.34323919568E+01  0.42212308375E+01  0.51100000000E-03 0.  1.
        -12    1    3    3    0    0 -0.43092748550E+01 -0.50157212407E+01  0.39158477103E+02  0.39712890078E+02  0.00000000000E+00 0.  1.
</event>
<event>
 7    1  0.3223600E-013  0.5930195E+02  0.7816164E-02  0.1266605E+00
        -11   -1    0    0    0    0  0.00000000000E+00  0.00000000000E+00  0.45593999997E+02  0.45594000000E+02  0.51100000000E-03 0. -1.
         11   -1    0    0    0    0 -0.00000000000E+00 -0.00000000000E+00 -0.45593999997E+02  0.45594000000E+02  0.51100000000E-03 0.  1.
    9900012    2    1    2    0    0  0.57577149884E+01  0.23022448970E+02 -0.21296373724E+02  0.59301953330E+02  0.50000016965E+02 0.  0.
         12    1    1    2    0    0 -0.57577149884E+01 -0.23022448970E+02  0.21296373724E+02  0.31886046670E+02  0.00000000000E+00 0. -1.
         11    1    3    3    0    0  0.12689153578E+02  0.13456713284E+02 -0.91636945943E+01  0.20641488556E+02  0.51100000000E-03 0. -1.
        -11    1    3    3    0    0  0.88667285335E+01 -0.82382946997E+01 -0.79829010512E+01  0.14498795947E+02  0.51100000000E-03 0.  1.
         12    1    3    3    0    0 -0.15798167123E+02  0.17804030385E+02 -0.41497780790E+01  0.24161668827E+02  0.00000000000E+00 0. -1.
</event>
<event>
 7    1  0.3223600E-013  0.5930205E+02  0.7816164E-02  0.1266604E+00
        -11   -1    0    0    0    0  0.00000000000E+00  0.00000000000E+00  0.45593999997E+02  0.45594000000E+02  0.51100000000E-03 0. -1.
         11   -1    0    0    0    0 -0.00000000000E+00 -0.00000000000E+00 -0.45593999997E+02  0.45594000000E+02  0.51100000000E-03 0.  1.
    9900012    2    1    2    0    0 -0.22741538469E+02 -0.13542092859E+02 -0.17780551954E+02  0.59302048881E+02  0.50000191227E+02 0.  0.
         12    1    1    2    0    0  0.22741538469E+02  0.13542092859E+02  0.17780551954E+02  0.31885951119E+02  0.00000000000E+00 0. -1.
         11    1    3    3    0    0 -0.11270928677E+02 -0.57979156510E+01 -0.15583349813E+02  0.20087071733E+02  0.51100000000E-03 0.  1.
        -11    1    3    3    0    0  0.59184392983E+01  0.81757529851E+01 -0.10169194851E+02  0.14327713872E+02  0.51100000000E-03 0. -1.
         12    1    3    3    0    0 -0.17389049090E+02 -0.15919930193E+02  0.79719927106E+01  0.24887263277E+02  0.00000000000E+00 0. -1.
</event>
<event>
 7    1  0.3223600E-013  0.5930183E+02  0.7816164E-02  0.1266605E+00
        -11   -1    0    0    0    0  0.00000000000E+00  0.00000000000E+00  0.45593999997E+02  0.45594000000E+02  0.51100000000E-03 0.  1.
         11   -1    0    0    0    0 -0.00000000000E+00 -0.00000000000E+00 -0.45593999997E+02  0.45594000000E+02  0.51100000000E-03 0. -1.
    9900012    2    1    2    0    0 -0.19016050919E+01 -0.31477576412E+02 -0.47195523160E+01  0.59301825993E+02  0.49999784733E+02 0.  0.
         12    1    1    2    0    0  0.19016050919E+01  0.31477576412E+02  0.47195523160E+01  0.31886174007E+02  0.00000000000E+00 0. -1.
         11    1    3    3    0    0 -0.27809318440E+01 -0.14352676602E+02 -0.13286935847E+02  0.19755393492E+02  0.51100000000E-03 0. -1.
        -11    1    3    3    0    0 -0.55680014592E+01  0.88240215466E+01 -0.23001004940E+01  0.10684402606E+02  0.51100000000E-03 0.  1.
        -12    1    3    3    0    0  0.64473282113E+01 -0.25948921357E+02  0.10867484025E+02  0.28862029896E+02  0.00000000000E+00 0.  1.
</event>
<event>
 7    1  0.3223600E-013  0.5930190E+02  0.7816164E-02  0.1266605E+00
        -11   -1    0    0    0    0  0.00000000000E+00  0.00000000000E+00  0.45593999997E+02  0.45594000000E+02  0.51100000000E-03 0. -1.
         11   -1    0    0    0    0 -0.00000000000E+00 -0.00000000000E+00 -0.45593999997E+02  0.45594000000E+02  0.51100000000E-03 0.  1.
    9900012    2    1    2    0    0 -0.46863186715E+01 -0.26498552765E+02 -0.17105218133E+02  0.59301900071E+02  0.49999919833E+02 0.  0.
         12    1    1    2    0    0  0.46863186715E+01  0.26498552765E+02  0.17105218133E+02  0.31886099929E+02  0.00000000000E+00 0. -1.
         11    1    3    3    0    0  0.10116671725E+02 -0.45945088519E+01  0.12517372569E+02  0.16737418399E+02  0.51100000000E-03 0. -1.
        -11    1    3    3    0    0  0.61664940697E+00 -0.12474201128E+02 -0.11906925660E+02  0.17255747715E+02  0.51100000000E-03 0.  1.
        -12    1    3    3    0    0 -0.15419639804E+02 -0.94298427850E+01 -0.17715665042E+02  0.25308733957E+02  0.00000000000E+00 0.  1.
</event>
<event>
 7    1  0.3223600E-013  0.5930195E+02  0.7816164E-02  0.1266605E+00
        -11   -1    0    0    0    0  0.00000000000E+00  0.00000000000E+00  0.45593999997E+02  0.45594000000E+02  0.51100000000E-03 0.  1.
         11   -1    0    0    0    0 -0.00000000000E+00 -0.00000000000E+00 -0.45593999997E+02  0.45594000000E+02  0.51100000000E-03 0. -1.
    9900012    2    1    2    0    0  0.16584847411E+02 -0.19048797504E+02  0.19462942329E+02  0.59301953300E+02  0.50000016911E+02 0.  0.
         12    1    1    2    0    0 -0.16584847411E+02  0.19048797504E+02 -0.19462942329E+02  0.31886046700E+02  0.00000000000E+00 0. -1.
         11    1    3    3    0    0  0.73200400830E+00  0.96698764244E+01  0.12780751041E+01  0.97814015439E+01  0.51100000000E-03 0. -1.
        -11    1    3    3    0    0 -0.87935964400E+01 -0.32003739619E+01  0.87472407026E+01  0.12809525831E+02  0.51100000000E-03 0.  1.
         12    1    3    3    0    0  0.24646439843E+02 -0.25518299967E+02  0.94376265227E+01  0.36711025925E+02  0.00000000000E+00 0. -1.
</event>
<event>
 7    1  0.3223600E-013  0.5930188E+02  0.7816164E-02  0.1266605E+00
        -11   -1    0    0    0    0  0.00000000000E+00  0.00000000000E+00  0.45593999997E+02  0.45594000000E+02  0.51100000000E-03 0.  1.
         11   -1    0    0    0    0 -0.00000000000E+00 -0.00000000000E+00 -0.45593999997E+02  0.45594000000E+02  0.51100000000E-03 0. -1.
    9900012    2    1    2    0    0  0.20683321207E+02  0.42790892881E+01  0.23887529172E+02  0.59301883409E+02  0.49999889446E+02 0.  0.
         12    1    1    2    0    0 -0.20683321207E+02 -0.42790892881E+01 -0.23887529172E+02  0.31886116591E+02  0.00000000000E+00 0. -1.
         11    1    3    3    0    0 -0.11393031704E+02 -0.77270789302E+01  0.16852199007E+02  0.21760182257E+02  0.51100000000E-03 0.  1.
        -11    1    3    3    0    0  0.11162552866E+02 -0.20714191905E+01  0.44688261624E+01  0.12200974202E+02  0.51100000000E-03 0. -1.
        -12    1    3    3    0    0  0.20913800045E+02  0.14077587409E+02  0.25665040026E+01  0.25340726950E+02  0.00000000000E+00 0.  1.
</event>
<event>
 7    1  0.3223600E-013  0.5930194E+02  0.7816164E-02  0.1266605E+00
        -11   -1    0    0    0    0  0.00000000000E+00  0.00000000000E+00  0.45593999997E+02  0.45594000000E+02  0.51100000000E-03 0.  1.
         11   -1    0    0    0    0 -0.00000000000E+00 -0.00000000000E+00 -0.45593999997E+02  0.45594000000E+02  0.51100000000E-03 0. -1.
    9900012    2    1    2    0    0  0.37142086485E+01 -0.10928823694E+02  0.29723495954E+02  0.59301941213E+02  0.49999994867E+02 0.  0.
         12    1    1    2    0    0 -0.37142086485E+01  0.10928823694E+02 -0.29723495954E+02  0.31886058787E+02  0.00000000000E+00 0. -1.
         11    1    3    3    0    0  0.11494538876E+02 -0.13978807305E+02  0.34846223131E+02  0.39265643308E+02  0.51100000000E-03 0. -1.
        -11    1    3    3    0    0 -0.24547608299E+01  0.22915411526E+01  0.64514566847E+01  0.72731221083E+01  0.51100000000E-03 0.  1.
         12    1    3    3    0    0 -0.53255693972E+01  0.75844245862E+00 -0.11574183862E+02  0.12763175797E+02  0.00000000000E+00 0. -1.
</event>
<event>
 7    1  0.3223600E-013  0.5930194E+02  0.7816164E-02  0.1266605E+00
        -11   -1    0    0    0    0  0.00000000000E+00  0.00000000000E+00  0.45593999997E+02  0.45594000000E+02  0.51100000000E-03 0. -1.
         11   -1    0    0    0    0 -0.00000000000E+00 -0.00000000000E+00 -0.45593999997E+02  0.45594000000E+02  0.51100000000E-03 0.  1.
    9900012    2    1    2    0    0  0.15379204767E+01  0.25471206063E+02 -0.19119972191E+02  0.59301939186E+02  0.49999991169E+02 0.  0.
         12    1    1    2    0    0 -0.15379204767E+01 -0.25471206063E+02  0.19119972191E+02  0.31886060814E+02  0.00000000000E+00 0. -1.
         11    1    3    3    0    0 -0.24121656706E+00  0.10784407304E+02  0.12809494317E+02  0.16746485340E+02  0.51100000000E-03 0. -1.
        -11    1    3    3    0    0 -0.19639140500E+01  0.11180585197E+02 -0.12159847724E+01  0.11416701055E+02  0.51100000000E-03 0.  1.
        -12    1    3    3    0    0  0.37430510938E+01  0.35062135609E+01 -0.30713481735E+02  0.31138752790E+02  0.00000000000E+00 0.  1.
</event>
<event>
 7    1  0.3223600E-013  0.5930194E+02  0.7816164E-02  0.1266605E+00
        -11   -1    0    0    0    0  0.00000000000E+00  0.00000000000E+00  0.45593999997E+02  0.45594000000E+02  0.51100000000E-03 0. -1.
         11   -1    0    0    0    0 -0.00000000000E+00 -0.00000000000E+00 -0.45593999997E+02  0.45594000000E+02  0.51100000000E-03 0.  1.
    9900012    2    1    2    0    0  0.10991038688E+02 -0.19605235463E+02 -0.22617525627E+02  0.59301942632E+02  0.49999997454E+02 0.  0.
         12    1    1    2    0    0 -0.10991038688E+02  0.19605235463E+02  0.22617525627E+02  0.31886057368E+02  0.00000000000E+00 0. -1.
         11    1    3    3    0    0  0.15611914333E+02 -0.26333079486E+02 -0.53171893590E-01  0.30613163375E+02  0.51100000000E-03 0. -1.
        -11    1    3    3    0    0  0.47858265439E+01 -0.14940553132E+01 -0.45790634070E+01  0.67900043398E+01  0.51100000000E-03 0.  1.
         12    1    3    3    0    0 -0.94067021881E+01  0.82218993352E+01 -0.17985290326E+02  0.21898774917E+02  0.00000000000E+00 0. -1.
</event>
<event>
 7    1  0.3223600E-013  0.5930198E+02  0.7816164E-02  0.1266605E+00
        -11   -1    0    0    0    0  0.00000000000E+00  0.00000000000E+00  0.45593999997E+02  0.45594000000E+02  0.51100000000E-03 0. -1.
         11   -1    0    0    0    0 -0.00000000000E+00 -0.00000000000E+00 -0.45593999997E+02  0.45594000000E+02  0.51100000000E-03 0.  1.
    9900012    2    1    2    0    0 -0.14770303200E+02  0.15675844722E+02 -0.23512214344E+02  0.59301981313E+02  0.50000067999E+02 0.  0.
         12    1    1    2    0    0  0.14770303200E+02 -0.15675844722E+02  0.23512214344E+02  0.31886018687E+02  0.00000000000E+00 0. -1.
         11    1    3    3    0    0  0.54413090405E+01  0.10440859587E+02 -0.69573306199E+01  0.13675666075E+02  0.51100000000E-03 0. -1.
        -11    1    3    3    0    0 -0.17574855896E+02  0.17430176100E+02 -0.20918922532E+02  0.32408145871E+02  0.51100000000E-03 0.  1.
         12    1    3    3    0    0 -0.26367563445E+01 -0.12195190964E+02  0.43640388086E+01  0.13218169367E+02  0.00000000000E+00 0. -1.
</event>
<event>
 7    1  0.3223600E-013  0.5930212E+02  0.7816164E-02  0.1266604E+00
        -11   -1    0    0    0    0  0.00000000000E+00  0.00000000000E+00  0.45593999997E+02  0.45594000000E+02  0.51100000000E-03 0. -1.
         11   -1    0    0    0    0 -0.00000000000E+00 -0.00000000000E+00 -0.45593999997E+02  0.45594000000E+02  0.51100000000E-03 0.  1.
    9900012    2    1    2    0    0  0.31144086622E+02  0.14413057970E+01  0.66841407781E+01  0.59302121748E+02  0.50000324119E+02 0.  0.
         12    1    1    2    0    0 -0.31144086622E+02 -0.14413057970E+01 -0.66841407781E+01  0.31885878252E+02  0.00000000000E+00 0. -1.
         11    1    3    3    0    0  0.67669064360E+01 -0.16050237976E+02 -0.83768781824E+00  0.17438545895E+02  0.51100000000E-03 0. -1.
        -11    1    3    3    0    0  0.12867213458E+02  0.57227405474E+00 -0.88749562502E+01  0.15641532165E+02  0.51100000000E-03 0.  1.
         12    1    3    3    0    0  0.11509966729E+02  0.16919269718E+02  0.16396784847E+02  0.26222043688E+02  0.00000000000E+00 0. -1.
</event>
<event>
 7    1  0.3223600E-013  0.5930193E+02  0.7816164E-02  0.1266605E+00
        -11   -1    0    0    0    0  0.00000000000E+00  0.00000000000E+00  0.45593999997E+02  0.45594000000E+02  0.51100000000E-03 0.  1.
         11   -1    0    0    0    0 -0.00000000000E+00 -0.00000000000E+00 -0.45593999997E+02  0.45594000000E+02  0.51100000000E-03 0. -1.
    9900012    2    1    2    0    0  0.26374828560E+02 -0.34958899106E+01  0.17574658202E+02  0.59301930333E+02  0.49999975025E+02 0.  0.
         12    1    1    2    0    0 -0.26374828560E+02  0.34958899106E+01 -0.17574658202E+02  0.31886069667E+02  0.00000000000E+00 0. -1.
         11    1    3    3    0    0 -0.10710502510E+02 -0.82777284210E+01 -0.26789962122E+01  0.13799009848E+02  0.51100000000E-03 0. -1.
        -11    1    3    3    0    0  0.46000823773E+01  0.33917446631E+01  0.98071877022E+01  0.11351018484E+02  0.51100000000E-03 0.  1.
        -12    1    3    3    0    0  0.32485248693E+02  0.13900938472E+01  0.10446466712E+02  0.34151902001E+02  0.00000000000E+00 0.  1.
</event>
<event>
 7    1  0.3223600E-013  0.5930194E+02  0.7816164E-02  0.1266605E+00
        -11   -1    0    0    0    0  0.00000000000E+00  0.00000000000E+00  0.45593999997E+02  0.45594000000E+02  0.51100000000E-03 0. -1.
         11   -1    0    0    0    0 -0.00000000000E+00 -0.00000000000E+00 -0.45593999997E+02  0.45594000000E+02  0.51100000000E-03 0.  1.
    9900012    2    1    2    0    0 -0.10226757513E+02  0.23646003133E+02 -0.18788306856E+02  0.59301944930E+02  0.50000001646E+02 0.  0.
         12    1    1    2    0    0  0.10226757513E+02 -0.23646003133E+02  0.18788306856E+02  0.31886055070E+02  0.00000000000E+00 0. -1.
         11    1    3    3    0    0 -0.13593573393E+02  0.23173192326E+02 -0.11773934774E+02  0.29332705646E+02  0.51100000000E-03 0.  1.
        -11    1    3    3    0    0 -0.52972878367E+01  0.67883081534E+01 -0.14520313675E+02  0.16881406799E+02  0.51100000000E-03 0. -1.
         12    1    3    3    0    0  0.86641037175E+01 -0.63154973466E+01  0.75059415931E+01  0.13087832485E+02  0.00000000000E+00 0. -1.
</event>
<event>
 7    1  0.3223600E-013  0.5930173E+02  0.7816164E-02  0.1266605E+00
        -11   -1    0    0    0    0  0.00000000000E+00  0.00000000000E+00  0.45593999997E+02  0.45594000000E+02  0.51100000000E-03 0. -1.
         11   -1    0    0    0    0 -0.00000000000E+00 -0.00000000000E+00 -0.45593999997E+02  0.45594000000E+02  0.51100000000E-03 0.  1.
    9900012    2    1    2    0    0  0.26724638151E+02  0.10246560020E+02 -0.14054740013E+02  0.59301733467E+02  0.49999615987E+02 0.  0.
         12    1    1    2    0    0 -0.26724638151E+02 -0.10246560020E+02  0.14054740013E+02  0.31886266533E+02  0.00000000000E+00 0. -1.
         11    1    3    3    0    0  0.10476910764E+02  0.79029061645E+01  0.21624135014E+01  0.13300286366E+02  0.51100000000E-03 0. -1.
        -11    1    3    3    0    0 -0.40127579468E+01  0.13425399670E+02 -0.18032945122E+02  0.22837046496E+02  0.51100000000E-03 0.  1.
         12    1    3    3    0    0  0.20260485334E+02 -0.11081745814E+02  0.18157916075E+01  0.23164400605E+02  0.00000000000E+00 0. -1.
</event>
<event>
 7    1  0.3223600E-013  0.5930194E+02  0.7816164E-02  0.1266605E+00
        -11   -1    0    0    0    0  0.00000000000E+00  0.00000000000E+00  0.45593999997E+02  0.45594000000E+02  0.51100000000E-03 0. -1.
         11   -1    0    0    0    0 -0.00000000000E+00 -0.00000000000E+00 -0.45593999997E+02  0.45594000000E+02  0.51100000000E-03 0.  1.
    9900012    2    1    2    0    0  0.68616746144E+01  0.31110411745E+02 -0.13342549501E+01  0.59301944525E+02  0.50000000907E+02 0.  0.
         12    1    1    2    0    0 -0.68616746144E+01 -0.31110411745E+02  0.13342549501E+01  0.31886055475E+02  0.00000000000E+00 0. -1.
         11    1    3    3    0    0 -0.85416820427E+01  0.37313195854E+01  0.30235437971E+01  0.97992293228E+01  0.51100000000E-03 0. -1.
        -11    1    3    3    0    0 -0.24687040940E+01  0.27996926712E+02 -0.11337517934E+02  0.30306133346E+02  0.51100000000E-03 0.  1.
         12    1    3    3    0    0  0.17872060751E+02 -0.61783455223E+00  0.69797191868E+01  0.19196581856E+02  0.00000000000E+00 0. -1.
</event>
<event>
 7    1  0.3223600E-013  0.5930195E+02  0.7816164E-02  0.1266605E+00
        -11   -1    0    0    0    0  0.00000000000E+00  0.00000000000E+00  0.45593999997E+02  0.45594000000E+02  0.51100000000E-03 0.  1.
         11   -1    0    0    0    0 -0.00000000000E+00 -0.00000000000E+00 -0.45593999997E+02  0.45594000000E+02  0.51100000000E-03 0. -1.
    9900012    2    1    2    0    0 -0.24238888193E+02  0.88933751930E+01  0.18711077844E+02  0.59301948861E+02  0.50000008815E+02 0.  0.
         12    1    1    2    0    0  0.24238888193E+02 -0.88933751930E+01 -0.18711077844E+02  0.31886051139E+02  0.00000000000E+00 0. -1.
         11    1    3    3    0    0 -0.46329532400E+01 -0.16591085628E+02  0.20784509699E+01  0.17350744559E+02  0.51100000000E-03 0. -1.
        -11    1    3    3    0    0 -0.17532755404E+02  0.64776194360E+01  0.12213083594E+02  0.22327482544E+02  0.51100000000E-03 0.  1.
        -12    1    3    3    0    0 -0.20731795486E+01  0.19006841385E+02  0.44195432803E+01  0.19623721759E+02  0.00000000000E+00 0.  1.
</event>
<event>
 7    1  0.3223600E-013  0.5930194E+02  0.7816164E-02  0.1266605E+00
        -11   -1    0    0    0    0  0.00000000000E+00  0.00000000000E+00  0.45593999997E+02  0.45594000000E+02  0.51100000000E-03 0. -1.
         11   -1    0    0    0    0 -0.00000000000E+00 -0.00000000000E+00 -0.45593999997E+02  0.45594000000E+02  0.51100000000E-03 0.  1.
    9900012    2    1    2    0    0  0.74133471762E+01 -0.30390340069E+02 -0.61798365436E+01  0.59301939322E+02  0.49999991418E+02 0.  0.
         12    1    1    2    0    0 -0.74133471762E+01  0.30390340069E+02  0.61798365436E+01  0.31886060678E+02  0.00000000000E+00 0. -1.
         11    1    3    3    0    0  0.13646668574E+01 -0.15201941752E+02  0.92877822181E+00  0.15291303996E+02  0.51100000000E-03 0. -1.
        -11    1    3    3    0    0  0.16767782008E+02 -0.21737289586E+02 -0.12715458232E+02  0.30254770703E+02  0.51100000000E-03 0.  1.
         12    1    3    3    0    0 -0.10719101689E+02  0.65488912682E+01  0.56068434662E+01  0.13755864623E+02  0.00000000000E+00 0. -1.
</event>
<event>
 7    1  0.3223600E-013  0.5930207E+02  0.7816164E-02  0.1266604E+00
        -11   -1    0    0    0    0  0.00000000000E+00  0.00000000000E+00  0.45593999997E+02  0.45594000000E+02  0.51100000000E-03 0.  1.
         11   -1    0    0    0    0 -0.00000000000E+00 -0.00000000000E+00 -0.45593999997E+02  0.45594000000E+02  0.51100000000E-03 0. -1.
    9900012    2    1    2    0    0  0.18399108013E+01 -0.48177043403E+01  0.31466120734E+02  0.59302073623E+02  0.50000236350E+02 0.  0.
         12    1    1    2    0    0 -0.18399108013E+01  0.48177043403E+01 -0.31466120734E+02  0.31885926377E+02  0.00000000000E+00 0. -1.
         11    1    3    3    0    0 -0.16484264885E+01  0.13421090966E+01 -0.66785703153E+01  0.70086994823E+01  0.51100000000E-03 0. -1.
        -11    1    3    3    0    0 -0.84883997906E+01  0.77112588442E+01  0.18254093501E+01  0.11612431422E+02  0.51100000000E-03 0.  1.
        -12    1    3    3    0    0  0.11976737080E+02 -0.13871072281E+02  0.36319281700E+02  0.40680942719E+02  0.00000000000E+00 0.  1.
</event>
<event>
 7    1  0.3223600E-013  0.5930235E+02  0.7816164E-02  0.1266603E+00
        -11   -1    0    0    0    0  0.00000000000E+00  0.00000000000E+00  0.45593999997E+02  0.45594000000E+02  0.51100000000E-03 0. -1.
         11   -1    0    0    0    0 -0.00000000000E+00 -0.00000000000E+00 -0.45593999997E+02  0.45594000000E+02  0.51100000000E-03 0.  1.
    9900012    2    1    2    0    0  0.22381043611E+02 -0.14565005428E+02 -0.17425393217E+02  0.59302347662E+02  0.50000736127E+02 0.  0.
         12    1    1    2    0    0 -0.22381043611E+02  0.14565005428E+02  0.17425393217E+02  0.31885652338E+02  0.00000000000E+00 0. -1.
         11    1    3    3    0    0 -0.54170912972E+00 -0.16931658555E+02 -0.28841068273E+01  0.17184079337E+02  0.51100000000E-03 0. -1.
        -11    1    3    3    0    0  0.87623486484E+01 -0.11476358086E+02 -0.16839934681E+02  0.22182627191E+02  0.51100000000E-03 0.  1.
         12    1    3    3    0    0  0.14160404093E+02  0.13843011212E+02  0.22986482916E+01  0.19935641135E+02  0.00000000000E+00 0. -1.
</event>
<event>
 7    1  0.3223600E-013  0.5930196E+02  0.7816164E-02  0.1266605E+00
        -11   -1    0    0    0    0  0.00000000000E+00  0.00000000000E+00  0.45593999997E+02  0.45594000000E+02  0.51100000000E-03 0.  1.
         11   -1    0    0    0    0 -0.00000000000E+00 -0.00000000000E+00 -0.45593999997E+02  0.45594000000E+02  0.51100000000E-03 0. -1.
    9900012    2    1    2    0    0  0.26505301406E+02 -0.66591629227E+01  0.16426937742E+02  0.59301957018E+02  0.50000023692E+02 0.  0.
         12    1    1    2    0    0 -0.26505301406E+02  0.66591629227E+01 -0.16426937742E+02  0.31886042982E+02  0.00000000000E+00 0. -1.
         11    1    3    3    0    0 -0.96665654004E+01 -0.56958483258E+01 -0.18172697110E+01  0.11366074268E+02  0.51100000000E-03 0. -1.
        -11    1    3    3    0    0  0.14894255004E+01 -0.76965792726E+01 -0.65841436854E+00  0.78669708632E+01  0.51100000000E-03 0.  1.
         12    1    3    3    0    0  0.34682441306E+02  0.67332646757E+01  0.18902621821E+02  0.40068911888E+02  0.00000000000E+00 0. -1.
</event>
<event>
 7    1  0.3223600E-013  0.5930189E+02  0.7816164E-02  0.1266605E+00
        -11   -1    0    0    0    0  0.00000000000E+00  0.00000000000E+00  0.45593999997E+02  0.45594000000E+02  0.51100000000E-03 0. -1.
         11   -1    0    0    0    0 -0.00000000000E+00 -0.00000000000E+00 -0.45593999997E+02  0.45594000000E+02  0.51100000000E-03 0.  1.
    9900012    2    1    2    0    0 -0.22565672581E+02  0.31364656113E+01 -0.22308676824E+02  0.59301889275E+02  0.49999900143E+02 0.  0.
         12    1    1    2    0    0  0.22565672581E+02 -0.31364656113E+01  0.22308676824E+02  0.31886110725E+02  0.00000000000E+00 0. -1.
         11    1    3    3    0    0 -0.18602410918E+00 -0.81614106156E+01 -0.13732364025E+02  0.15975639273E+02  0.51100000000E-03 0. -1.
        -11    1    3    3    0    0 -0.26102886402E+02 -0.41962680582E+01 -0.67545775087E+01  0.27287243571E+02  0.51100000000E-03 0.  1.
        -12    1    3    3    0    0  0.37232379306E+01  0.15494144285E+02 -0.18217352910E+01  0.16039006431E+02  0.00000000000E+00 0.  1.
</event>
<event>
 7    1  0.3223600E-013  0.5930195E+02  0.7816164E-02  0.1266605E+00
        -11   -1    0    0    0    0  0.00000000000E+00  0.00000000000E+00  0.45593999997E+02  0.45594000000E+02  0.51100000000E-03 0.  1.
         11   -1    0    0    0    0 -0.00000000000E+00 -0.00000000000E+00 -0.45593999997E+02  0.45594000000E+02  0.51100000000E-03 0. -1.
    9900012    2    1    2    0    0 -0.61695917871E+01  0.25277761773E+02  0.18430713481E+02  0.59301948151E+02  0.50000007521E+02 0.  0.
         12    1    1    2    0    0  0.61695917871E+01 -0.25277761773E+02 -0.18430713481E+02  0.31886051849E+02  0.00000000000E+00 0. -1.
         11    1    3    3    0    0  0.11402579530E+02  0.13681132907E+02  0.22377976925E+02  0.28600106102E+02  0.51100000000E-03 0. -1.
        -11    1    3    3    0    0 -0.30827004830E+01  0.77847167761E+01  0.79685366046E+01  0.11558651886E+02  0.51100000000E-03 0.  1.
         12    1    3    3    0    0 -0.14489470834E+02  0.38119120895E+01 -0.11915800048E+02  0.19143190163E+02  0.00000000000E+00 0. -1.
</event>
<event>
 7    1  0.3223600E-013  0.5930193E+02  0.7816164E-02  0.1266605E+00
        -11   -1    0    0    0    0  0.00000000000E+00  0.00000000000E+00  0.45593999997E+02  0.45594000000E+02  0.51100000000E-03 0. -1.
         11   -1    0    0    0    0 -0.00000000000E+00 -0.00000000000E+00 -0.45593999997E+02  0.45594000000E+02  0.51100000000E-03 0.  1.
    9900012    2    1    2    0    0 -0.30779495160E+02  0.19596354589E+00 -0.83250241698E+01  0.59301925430E+02  0.49999966083E+02 0.  0.
         12    1    1    2    0    0  0.30779495160E+02 -0.19596354589E+00  0.83250241698E+01  0.31886074570E+02  0.00000000000E+00 0. -1.
         11    1    3    3    0    0 -0.57677008474E+01 -0.46490235539E+01  0.82597443427E+01  0.11095186791E+02  0.51100000000E-03 0. -1.
        -11    1    3    3    0    0 -0.25987413055E+02 -0.11593904877E+02 -0.76292273448E+01  0.29461320027E+02  0.51100000000E-03 0.  1.
        -12    1    3    3    0    0  0.97561874176E+00  0.16438891976E+02 -0.89555411676E+01  0.18745418612E+02  0.00000000000E+00 0.  1.
</event>
<event>
 7    1  0.3223600E-013  0.5930195E+02  0.7816164E-02  0.1266605E+00
        -11   -1    0    0    0    0  0.00000000000E+00  0.00000000000E+00  0.45593999997E+02  0.45594000000E+02  0.51100000000E-03 0.  1.
         11   -1    0    0    0    0 -0.00000000000E+00 -0.00000000000E+00 -0.45593999997E+02  0.45594000000E+02  0.51100000000E-03 0. -1.
    9900012    2    1    2    0    0  0.19771737564E+02  0.24215659987E+02 -0.62769925189E+01  0.59301946152E+02  0.50000003874E+02 0.  0.
         12    1    1    2    0    0 -0.19771737564E+02 -0.24215659987E+02  0.62769925189E+01  0.31886053848E+02  0.00000000000E+00 0. -1.
         11    1    3    3    0    0 -0.26784927937E+01  0.32099393563E+02 -0.10463137103E+01  0.32227940726E+02  0.51100000000E-03 0. -1.
        -11    1    3    3    0    0  0.15094204996E+00  0.73456944177E+00 -0.29670041276E+01  0.30603087298E+01  0.51100000000E-03 0.  1.
        -12    1    3    3    0    0  0.22299288308E+02 -0.86183030183E+01 -0.22636746809E+01  0.24013696696E+02  0.00000000000E+00 0.  1.
</event>
<event>
 7    1  0.3223600E-013  0.5930193E+02  0.7816164E-02  0.1266605E+00
        -11   -1    0    0    0    0  0.00000000000E+00  0.00000000000E+00  0.45593999997E+02  0.45594000000E+02  0.51100000000E-03 0. -1.
         11   -1    0    0    0    0 -0.00000000000E+00 -0.00000000000E+00 -0.45593999997E+02  0.45594000000E+02  0.51100000000E-03 0.  1.
    9900012    2    1    2    0    0  0.68508517122E+00  0.12603206601E+02 -0.29281585233E+02  0.59301931066E+02  0.49999976362E+02 0.  0.
         12    1    1    2    0    0 -0.68508517122E+00 -0.12603206601E+02  0.29281585233E+02  0.31886068934E+02  0.00000000000E+00 0. -1.
         11    1    3    3    0    0 -0.15307042551E+02  0.42649882440E+00  0.37538964908E+01  0.15766394389E+02  0.51100000000E-03 0. -1.
        -11    1    3    3    0    0 -0.48006823037E+01  0.19731455668E+01 -0.58026312620E+01  0.77852671009E+01  0.51100000000E-03 0.  1.
        -12    1    3    3    0    0  0.20792810026E+02  0.10203562209E+02 -0.27232850461E+02  0.35750269576E+02  0.00000000000E+00 0.  1.
</event>
<event>
 7    1  0.3223600E-013  0.5930182E+02  0.7816164E-02  0.1266605E+00
        -11   -1    0    0    0    0  0.00000000000E+00  0.00000000000E+00  0.45593999997E+02  0.45594000000E+02  0.51100000000E-03 0. -1.
         11   -1    0    0    0    0 -0.00000000000E+00 -0.00000000000E+00 -0.45593999997E+02  0.45594000000E+02  0.51100000000E-03 0.  1.
    9900012    2    1    2    0    0 -0.18759007939E+01  0.94829191310E+01 -0.30385587105E+02  0.59301817056E+02  0.49999768433E+02 0.  0.
         12    1    1    2    0    0  0.18759007939E+01 -0.94829191310E+01  0.30385587105E+02  0.31886182944E+02  0.00000000000E+00 0. -1.
         11    1    3    3    0    0 -0.12741988930E+02 -0.60802961184E+00 -0.84234768106E+01  0.15286691720E+02  0.51100000000E-03 0. -1.
        -11    1    3    3    0    0  0.18758793470E+02  0.36882566667E+01 -0.26670104554E+02  0.32814479227E+02  0.51100000000E-03 0.  1.
         12    1    3    3    0    0 -0.78927053342E+01  0.64026920761E+01  0.47079942602E+01  0.11200646109E+02  0.00000000000E+00 0. -1.
</event>
<event>
 7    1  0.3223600E-013  0.5930196E+02  0.7816164E-02  0.1266605E+00
        -11   -1    0    0    0    0  0.00000000000E+00  0.00000000000E+00  0.45593999997E+02  0.45594000000E+02  0.51100000000E-03 0.  1.
         11   -1    0    0    0    0 -0.00000000000E+00 -0.00000000000E+00 -0.45593999997E+02  0.45594000000E+02  0.51100000000E-03 0. -1.
    9900012    2    1    2    0    0  0.19183444122E+02 -0.23414775309E+02  0.10023144225E+02  0.59301958363E+02  0.50000026144E+02 0.  0.
         12    1    1    2    0    0 -0.19183444122E+02  0.23414775309E+02 -0.10023144225E+02  0.31886041637E+02  0.00000000000E+00 0. -1.
         11    1    3    3    0    0 -0.23016963488E+01  0.71124725379E+01 -0.58847984912E+01  0.95139857698E+01  0.51100000000E-03 0. -1.
        -11    1    3    3    0    0  0.13224722949E+02 -0.20660439333E+02 -0.51917328018E+01  0.25073913541E+02  0.51100000000E-03 0.  1.
         12    1    3    3    0    0  0.82604175219E+01 -0.98668085138E+01  0.21099675518E+02  0.24714059052E+02  0.00000000000E+00 0. -1.
</event>
<event>
 7    1  0.3223600E-013  0.5930194E+02  0.7816164E-02  0.1266605E+00
        -11   -1    0    0    0    0  0.00000000000E+00  0.00000000000E+00  0.45593999997E+02  0.45594000000E+02  0.51100000000E-03 0. -1.
         11   -1    0    0    0    0 -0.00000000000E+00 -0.00000000000E+00 -0.45593999997E+02  0.45594000000E+02  0.51100000000E-03 0.  1.
    9900012    2    1    2    0    0 -0.21947044942E+02 -0.22328386367E+02 -0.60408033541E+01  0.59301938396E+02  0.49999989729E+02 0.  0.
         12    1    1    2    0    0  0.21947044942E+02  0.22328386367E+02  0.60408033541E+01  0.31886061604E+02  0.00000000000E+00 0. -1.
         11    1    3    3    0    0 -0.69331332017E+01 -0.28088955816E+02 -0.72477556110E+01  0.29825957428E+02  0.51100000000E-03 0. -1.
        -11    1    3    3    0    0  0.54041006673E+01 -0.28676842794E+01 -0.31568220843E+01  0.68842895844E+01  0.51100000000E-03 0.  1.
        -12    1    3    3    0    0 -0.20418012408E+02  0.86282537285E+01  0.43637743412E+01  0.22591691384E+02  0.00000000000E+00 0.  1.
</event>
<event>
 7    1  0.3223600E-013  0.5930187E+02  0.7816164E-02  0.1266605E+00
        -11   -1    0    0    0    0  0.00000000000E+00  0.00000000000E+00  0.45593999997E+02  0.45594000000E+02  0.51100000000E-03 0. -1.
         11   -1    0    0    0    0 -0.00000000000E+00 -0.00000000000E+00 -0.45593999997E+02  0.45594000000E+02  0.51100000000E-03 0.  1.
    9900012    2    1    2    0    0 -0.29377040000E+02  0.11197864585E+02 -0.53218851194E+01  0.59301872740E+02  0.49999869987E+02 0.  0.
         12    1    1    2    0    0  0.29377040000E+02 -0.11197864585E+02  0.53218851194E+01  0.31886127260E+02  0.00000000000E+00 0. -1.
         11    1    3    3    0    0 -0.37913115827E+01 -0.37128544885E+00  0.60623305204E+01  0.71598706694E+01  0.51100000000E-03 0. -1.
        -11    1    3    3    0    0  0.16687906091E+00 -0.14185159434E+02 -0.77468851706E+00  0.14207277689E+02  0.51100000000E-03 0.  1.
        -12    1    3    3    0    0 -0.25752607478E+02  0.25754309468E+02 -0.10609527123E+02  0.37934724381E+02  0.00000000000E+00 0.  1.
</event>
<event>
 7    1  0.3223600E-013  0.5930196E+02  0.7816164E-02  0.1266605E+00
        -11   -1    0    0    0    0  0.00000000000E+00  0.00000000000E+00  0.45593999997E+02  0.45594000000E+02  0.51100000000E-03 0. -1.
         11   -1    0    0    0    0 -0.00000000000E+00 -0.00000000000E+00 -0.45593999997E+02  0.45594000000E+02  0.51100000000E-03 0.  1.
    9900012    2    1    2    0    0  0.10337111450E+02  0.29885789114E+02 -0.40869685821E+01  0.59301959539E+02  0.50000028289E+02 0.  0.
         12    1    1    2    0    0 -0.10337111450E+02 -0.29885789114E+02  0.40869685821E+01  0.31886040461E+02  0.00000000000E+00 0. -1.
         11    1    3    3    0    0 -0.50330084262E+00  0.94247261341E+01  0.13334613615E+02  0.16336789616E+02  0.51100000000E-03 0.  1.
        -11    1    3    3    0    0  0.18263691063E+02  0.24101913699E+02 -0.99883795933E+01  0.31847015282E+02  0.51100000000E-03 0. -1.
         12    1    3    3    0    0 -0.74232787710E+01 -0.36408507195E+01 -0.74332026038E+01  0.11118154641E+02  0.00000000000E+00 0. -1.
</event>
<event>
 7    1  0.3223600E-013  0.5930193E+02  0.7816164E-02  0.1266605E+00
        -11   -1    0    0    0    0  0.00000000000E+00  0.00000000000E+00  0.45593999997E+02  0.45594000000E+02  0.51100000000E-03 0. -1.
         11   -1    0    0    0    0 -0.00000000000E+00 -0.00000000000E+00 -0.45593999997E+02  0.45594000000E+02  0.51100000000E-03 0.  1.
    9900012    2    1    2    0    0  0.23873303581E+02 -0.59696216145E+01 -0.20276838033E+02  0.59301934600E+02  0.49999982806E+02 0.  0.
         12    1    1    2    0    0 -0.23873303581E+02  0.59696216145E+01  0.20276838033E+02  0.31886065400E+02  0.00000000000E+00 0. -1.
         11    1    3    3    0    0  0.95786951749E+01  0.76519667704E+01 -0.54380053121E+01  0.13411782087E+02  0.51100000000E-03 0.  1.
        -11    1    3    3    0    0  0.29287896092E+01  0.10901077066E+02  0.50167663196E+01  0.12352296723E+02  0.51100000000E-03 0. -1.
         12    1    3    3    0    0  0.11365818797E+02 -0.24522665451E+02 -0.19855599040E+02  0.33537855790E+02  0.00000000000E+00 0. -1.
</event>
<event>
 7    1  0.3223600E-013  0.5930196E+02  0.7816164E-02  0.1266605E+00
        -11   -1    0    0    0    0  0.00000000000E+00  0.00000000000E+00  0.45593999997E+02  0.45594000000E+02  0.51100000000E-03 0.  1.
         11   -1    0    0    0    0 -0.00000000000E+00 -0.00000000000E+00 -0.45593999997E+02  0.45594000000E+02  0.51100000000E-03 0. -1.
    9900012    2    1    2    0    0  0.14924542822E+02  0.24459293811E+02  0.13990015158E+02  0.59301959852E+02  0.50000028861E+02 0.  0.
         12    1    1    2    0    0 -0.14924542822E+02 -0.24459293811E+02 -0.13990015158E+02  0.31886040148E+02  0.00000000000E+00 0. -1.
         11    1    3    3    0    0  0.87645886342E+01  0.14534824100E+02 -0.50353545471E+01  0.17704065104E+02  0.51100000000E-03 0. -1.
        -11    1    3    3    0    0  0.16949742986E+02  0.16577595202E+02  0.87210726131E+01  0.25261978500E+02  0.51100000000E-03 0.  1.
         12    1    3    3    0    0 -0.10789788799E+02 -0.66531254901E+01  0.10304297092E+02  0.16335916248E+02  0.00000000000E+00 0. -1.
</event>
<event>
 7    1  0.3223600E-013  0.5930194E+02  0.7816164E-02  0.1266605E+00
        -11   -1    0    0    0    0  0.00000000000E+00  0.00000000000E+00  0.45593999997E+02  0.45594000000E+02  0.51100000000E-03 0.  1.
         11   -1    0    0    0    0 -0.00000000000E+00 -0.00000000000E+00 -0.45593999997E+02  0.45594000000E+02  0.51100000000E-03 0. -1.
    9900012    2    1    2    0    0  0.95219739250E+00  0.19149197681E+02  0.25477885928E+02  0.59301935284E+02  0.49999984054E+02 0.  0.
         12    1    1    2    0    0 -0.95219739250E+00 -0.19149197681E+02 -0.25477885928E+02  0.31886064716E+02  0.00000000000E+00 0. -1.
         11    1    3    3    0    0 -0.29035673908E+01  0.14276569462E+02 -0.63957546366E+01  0.15910902452E+02  0.51100000000E-03 0. -1.
        -11    1    3    3    0    0 -0.91261271340E+01 -0.13955558702E+00  0.58333255756E+00  0.91458159484E+01  0.51100000000E-03 0.  1.
         12    1    3    3    0    0  0.12981891917E+02  0.50121838060E+01  0.31290308007E+02  0.34245216884E+02  0.00000000000E+00 0. -1.
</event>
<event>
 7    1  0.3223600E-013  0.5930193E+02  0.7816164E-02  0.1266605E+00
        -11   -1    0    0    0    0  0.00000000000E+00  0.00000000000E+00  0.45593999997E+02  0.45594000000E+02  0.51100000000E-03 0.  1.
         11   -1    0    0    0    0 -0.00000000000E+00 -0.00000000000E+00 -0.45593999997E+02  0.45594000000E+02  0.51100000000E-03 0. -1.
    9900012    2    1    2    0    0 -0.28723402003E+02 -0.13801752416E+02  0.10951874324E+01  0.59301927367E+02  0.49999969616E+02 0.  0.
         12    1    1    2    0    0  0.28723402003E+02  0.13801752416E+02 -0.10951874324E+01  0.31886072633E+02  0.00000000000E+00 0. -1.
         11    1    3    3    0    0 -0.12293959267E+02 -0.47231454906E+01 -0.16949574853E+02  0.21464799690E+02  0.51100000000E-03 0. -1.
        -11    1    3    3    0    0 -0.74350386064E+01  0.51150739111E+01 -0.42040395167E+01  0.99557887037E+01  0.51100000000E-03 0.  1.
        -12    1    3    3    0    0 -0.89944041306E+01 -0.14193680837E+02  0.22248801802E+02  0.27881338974E+02  0.00000000000E+00 0.  1.
</event>
<event>
 7    1  0.3223600E-013  0.5930198E+02  0.7816164E-02  0.1266605E+00
        -11   -1    0    0    0    0  0.00000000000E+00  0.00000000000E+00  0.45593999997E+02  0.45594000000E+02  0.51100000000E-03 0.  1.
         11   -1    0    0    0    0 -0.00000000000E+00 -0.00000000000E+00 -0.45593999997E+02  0.45594000000E+02  0.51100000000E-03 0. -1.
    9900012    2    1    2    0    0  0.13109714258E+02  0.43450471619E+01  0.28739770287E+02  0.59301977374E+02  0.50000060815E+02 0.  0.
         12    1    1    2    0    0 -0.13109714258E+02 -0.43450471619E+01 -0.28739770287E+02  0.31886022626E+02  0.00000000000E+00 0. -1.
         11    1    3    3    0    0 -0.29593664407E+01 -0.10571506621E+02  0.45959781909E+01  0.11901160354E+02  0.51100000000E-03 0. -1.
        -11    1    3    3    0    0  0.21551825406E+02 -0.24152890964E+01  0.18089271485E+02  0.28240689490E+02  0.51100000000E-03 0.  1.
         12    1    3    3    0    0 -0.54827447079E+01  0.17331842879E+02  0.60545206112E+01  0.19160127530E+02  0.00000000000E+00 0. -1.
</event>
<event>
 7    1  0.3223600E-013  0.5930193E+02  0.7816164E-02  0.1266605E+00
        -11   -1    0    0    0    0  0.00000000000E+00  0.00000000000E+00  0.45593999997E+02  0.45594000000E+02  0.51100000000E-03 0.  1.
         11   -1    0    0    0    0 -0.00000000000E+00 -0.00000000000E+00 -0.45593999997E+02  0.45594000000E+02  0.51100000000E-03 0. -1.
    9900012    2    1    2    0    0 -0.12571829533E+02  0.26763225080E+02  0.11933174012E+02  0.59301925352E+02  0.49999965939E+02 0.  0.
         12    1    1    2    0    0  0.12571829533E+02 -0.26763225080E+02 -0.11933174012E+02  0.31886074648E+02  0.00000000000E+00 0. -1.
         11    1    3    3    0    0 -0.27319630773E+01  0.13867229066E+02  0.69515974066E+01  0.15750821280E+02  0.51100000000E-03 0. -1.
        -11    1    3    3    0    0  0.11857910345E+02  0.17417118897E+02  0.32512007387E+01  0.21319858699E+02  0.51100000000E-03 0.  1.
        -12    1    3    3    0    0 -0.21697776800E+02 -0.45211228833E+01  0.17303758664E+01  0.22231245373E+02  0.00000000000E+00 0.  1.
</event>
<event>
 7    1  0.3223600E-013  0.5930196E+02  0.7816164E-02  0.1266605E+00
        -11   -1    0    0    0    0  0.00000000000E+00  0.00000000000E+00  0.45593999997E+02  0.45594000000E+02  0.51100000000E-03 0.  1.
         11   -1    0    0    0    0 -0.00000000000E+00 -0.00000000000E+00 -0.45593999997E+02  0.45594000000E+02  0.51100000000E-03 0. -1.
    9900012    2    1    2    0    0 -0.15586323567E+02  0.18946875068E+02  0.20366695876E+02  0.59301955120E+02  0.50000020230E+02 0.  0.
         12    1    1    2    0    0  0.15586323567E+02 -0.18946875068E+02 -0.20366695876E+02  0.31886044880E+02  0.00000000000E+00 0. -1.
         11    1    3    3    0    0 -0.85454566285E+01 -0.12351137385E+02  0.21474064178E+02  0.26205168504E+02  0.51100000000E-03 0.  1.
        -11    1    3    3    0    0  0.41878395976E+00  0.10551023098E+02 -0.29752628017E+01  0.10970490300E+02  0.51100000000E-03 0. -1.
        -12    1    3    3    0    0 -0.74596508984E+01  0.20746989355E+02  0.18678944988E+01  0.22126296316E+02  0.00000000000E+00 0.  1.
</event>
<event>
 7    1  0.3223600E-013  0.5930195E+02  0.7816164E-02  0.1266605E+00
        -11   -1    0    0    0    0  0.00000000000E+00  0.00000000000E+00  0.45593999997E+02  0.45594000000E+02  0.51100000000E-03 0. -1.
         11   -1    0    0    0    0 -0.00000000000E+00 -0.00000000000E+00 -0.45593999997E+02  0.45594000000E+02  0.51100000000E-03 0.  1.
    9900012    2    1    2    0    0  0.13177300587E+02  0.16124765700E+02 -0.24146859406E+02  0.59301950718E+02  0.50000012202E+02 0.  0.
         12    1    1    2    0    0 -0.13177300587E+02 -0.16124765700E+02  0.24146859406E+02  0.31886049282E+02  0.00000000000E+00 0. -1.
         11    1    3    3    0    0  0.77115524510E+01  0.30936165291E+02 -0.97358902432E+01  0.33336195392E+02  0.51100000000E-03 0. -1.
        -11    1    3    3    0    0 -0.26419205554E+01  0.15701837800E+01 -0.35853993304E+01  0.47223203982E+01  0.51100000000E-03 0.  1.
         12    1    3    3    0    0  0.81076686914E+01 -0.16381583371E+02 -0.10825569832E+02  0.21243434928E+02  0.00000000000E+00 0. -1.
</event>
<event>
 7    1  0.3223600E-013  0.5930195E+02  0.7816164E-02  0.1266605E+00
        -11   -1    0    0    0    0  0.00000000000E+00  0.00000000000E+00  0.45593999997E+02  0.45594000000E+02  0.51100000000E-03 0.  1.
         11   -1    0    0    0    0 -0.00000000000E+00 -0.00000000000E+00 -0.45593999997E+02  0.45594000000E+02  0.51100000000E-03 0. -1.
    9900012    2    1    2    0    0  0.11375698513E+02 -0.17868505693E+02  0.23833385109E+02  0.59301948847E+02  0.50000008790E+02 0.  0.
         12    1    1    2    0    0 -0.11375698513E+02  0.17868505693E+02 -0.23833385109E+02  0.31886051153E+02  0.00000000000E+00 0. -1.
         11    1    3    3    0    0  0.21914159740E+02  0.87011210944E+01  0.17060656487E+02  0.29103365878E+02  0.51100000000E-03 0. -1.
        -11    1    3    3    0    0 -0.75102029718E+01 -0.13642382742E+02  0.67367900138E+00  0.15587546286E+02  0.51100000000E-03 0.  1.
        -12    1    3    3    0    0 -0.30282582557E+01 -0.12927244046E+02  0.60990496207E+01  0.14611036683E+02  0.00000000000E+00 0.  1.
</event>
<event>
 7    1  0.3223600E-013  0.5930189E+02  0.7816164E-02  0.1266605E+00
        -11   -1    0    0    0    0  0.00000000000E+00  0.00000000000E+00  0.45593999997E+02  0.45594000000E+02  0.51100000000E-03 0. -1.
         11   -1    0    0    0    0 -0.00000000000E+00 -0.00000000000E+00 -0.45593999997E+02  0.45594000000E+02  0.51100000000E-03 0.  1.
    9900012    2    1    2    0    0  0.15434214772E+02  0.25535201613E+02 -0.11245547022E+02  0.59301892761E+02  0.49999906501E+02 0.  0.
         12    1    1    2    0    0 -0.15434214772E+02 -0.25535201613E+02  0.11245547022E+02  0.31886107239E+02  0.00000000000E+00 0. -1.
         11    1    3    3    0    0  0.52600423973E+01 -0.10156402264E+02 -0.34605334660E+01  0.11949721550E+02  0.51100000000E-03 0. -1.
        -11    1    3    3    0    0  0.13709175156E+02  0.21274624750E+02  0.71453241625E+01  0.26298418191E+02  0.51100000000E-03 0.  1.
         12    1    3    3    0    0 -0.35350027816E+01  0.14416979128E+02 -0.14930337719E+02  0.21053753020E+02  0.00000000000E+00 0. -1.
</event>
<event>
 7    1  0.3223600E-013  0.5930193E+02  0.7816164E-02  0.1266605E+00
        -11   -1    0    0    0    0  0.00000000000E+00  0.00000000000E+00  0.45593999997E+02  0.45594000000E+02  0.51100000000E-03 0.  1.
         11   -1    0    0    0    0 -0.00000000000E+00 -0.00000000000E+00 -0.45593999997E+02  0.45594000000E+02  0.51100000000E-03 0. -1.
    9900012    2    1    2    0    0 -0.23982373896E+02  0.19885146594E+02 -0.67932351630E+01  0.59301931620E+02  0.49999977372E+02 0.  0.
         12    1    1    2    0    0  0.23982373896E+02 -0.19885146594E+02  0.67932351630E+01  0.31886068380E+02  0.00000000000E+00 0. -1.
         11    1    3    3    0    0  0.13232465610E+02  0.17562143213E+01  0.35971656601E+00  0.13353345316E+02  0.51100000000E-03 0. -1.
        -11    1    3    3    0    0 -0.52176894926E+00  0.70022501639E+01 -0.57176011154E+00  0.70449031278E+01  0.51100000000E-03 0.  1.
        -12    1    3    3    0    0 -0.36693070556E+02  0.11126682109E+02 -0.65811916175E+01  0.38903683177E+02  0.00000000000E+00 0.  1.
</event>
<event>
 7    1  0.3223600E-013  0.5930191E+02  0.7816164E-02  0.1266605E+00
        -11   -1    0    0    0    0  0.00000000000E+00  0.00000000000E+00  0.45593999997E+02  0.45594000000E+02  0.51100000000E-03 0.  1.
         11   -1    0    0    0    0 -0.00000000000E+00 -0.00000000000E+00 -0.45593999997E+02  0.45594000000E+02  0.51100000000E-03 0. -1.
    9900012    2    1    2    0    0 -0.21554226227E+02  0.12169061846E+01  0.23466086520E+02  0.59301909844E+02  0.49999937657E+02 0.  0.
         12    1    1    2    0    0  0.21554226227E+02 -0.12169061846E+01 -0.23466086520E+02  0.31886090156E+02  0.00000000000E+00 0. -1.
         11    1    3    3    0    0 -0.30894436193E+01 -0.62538676767E+01  0.35159504484E+02  0.35844752456E+02  0.51100000000E-03 0.  1.
        -11    1    3    3    0    0 -0.48941228262E+01  0.12060957337E+00 -0.30575770544E+01  0.57719808222E+01  0.51100000000E-03 0. -1.
        -12    1    3    3    0    0 -0.13570659781E+02  0.73501642879E+01 -0.86358409099E+01  0.17685176566E+02  0.00000000000E+00 0.  1.
</event>
<event>
 7    1  0.3223600E-013  0.5930194E+02  0.7816164E-02  0.1266605E+00
        -11   -1    0    0    0    0  0.00000000000E+00  0.00000000000E+00  0.45593999997E+02  0.45594000000E+02  0.51100000000E-03 0. -1.
         11   -1    0    0    0    0 -0.00000000000E+00 -0.00000000000E+00 -0.45593999997E+02  0.45594000000E+02  0.51100000000E-03 0.  1.
    9900012    2    1    2    0    0  0.18871626775E+01 -0.16980113701E+02 -0.26922761356E+02  0.59301941552E+02  0.49999995486E+02 0.  0.
         12    1    1    2    0    0 -0.18871626775E+01  0.16980113701E+02  0.26922761356E+02  0.31886058448E+02  0.00000000000E+00 0. -1.
         11    1    3    3    0    0 -0.42991540754E+01 -0.93435601126E+00  0.19263100142E+01  0.48027510295E+01  0.51100000000E-03 0. -1.
        -11    1    3    3    0    0  0.62020435815E+01 -0.12940208130E+02  0.87269457106E+01  0.16795056199E+02  0.51100000000E-03 0.  1.
         12    1    3    3    0    0 -0.15726828605E-01 -0.31055495594E+01 -0.37576017081E+02  0.37704134324E+02  0.00000000000E+00 0. -1.
</event>
<event>
 7    1  0.3223600E-013  0.5930193E+02  0.7816164E-02  0.1266605E+00
        -11   -1    0    0    0    0  0.00000000000E+00  0.00000000000E+00  0.45593999997E+02  0.45594000000E+02  0.51100000000E-03 0. -1.
         11   -1    0    0    0    0 -0.00000000000E+00 -0.00000000000E+00 -0.45593999997E+02  0.45594000000E+02  0.51100000000E-03 0.  1.
    9900012    2    1    2    0    0  0.16722886215E+02 -0.18098768232E+02 -0.20236128588E+02  0.59301933527E+02  0.49999980849E+02 0.  0.
         12    1    1    2    0    0 -0.16722886215E+02  0.18098768232E+02  0.20236128588E+02  0.31886066473E+02  0.00000000000E+00 0. -1.
         11    1    3    3    0    0  0.24033780008E+01 -0.24580736498E+00  0.55532183771E+01  0.60559790026E+01  0.51100000000E-03 0. -1.
        -11    1    3    3    0    0  0.10170108266E+02  0.10568683823E+02 -0.34619338595E-01  0.14667289411E+02  0.51100000000E-03 0.  1.
         12    1    3    3    0    0  0.41493999483E+01 -0.28421644690E+02 -0.25754727627E+02  0.38578665114E+02  0.00000000000E+00 0. -1.
</event>
<event>
 7    1  0.3223600E-013  0.5930194E+02  0.7816164E-02  0.1266605E+00
        -11   -1    0    0    0    0  0.00000000000E+00  0.00000000000E+00  0.45593999997E+02  0.45594000000E+02  0.51100000000E-03 0.  1.
         11   -1    0    0    0    0 -0.00000000000E+00 -0.00000000000E+00 -0.45593999997E+02  0.45594000000E+02  0.51100000000E-03 0. -1.
    9900012    2    1    2    0    0  0.18616316363E+02  0.25866312254E+02 -0.10427277528E+01  0.59301943083E+02  0.49999998278E+02 0.  0.
         12    1    1    2    0    0 -0.18616316363E+02 -0.25866312254E+02  0.10427277528E+01  0.31886056917E+02  0.00000000000E+00 0. -1.
         11    1    3    3    0    0  0.77356967573E+01  0.93924637981E+01  0.40863625917E+01  0.12835799157E+02  0.51100000000E-03 0. -1.
        -11    1    3    3    0    0 -0.60655567035E+01  0.25665679937E+02  0.51723229210E+00  0.26377748848E+02  0.51100000000E-03 0.  1.
         12    1    3    3    0    0  0.16946176309E+02 -0.91918314819E+01 -0.56463226366E+01  0.20088395078E+02  0.00000000000E+00 0. -1.
</event>
<event>
 7    1  0.3223600E-013  0.5930193E+02  0.7816164E-02  0.1266605E+00
        -11   -1    0    0    0    0  0.00000000000E+00  0.00000000000E+00  0.45593999997E+02  0.45594000000E+02  0.51100000000E-03 0.  1.
         11   -1    0    0    0    0 -0.00000000000E+00 -0.00000000000E+00 -0.45593999997E+02  0.45594000000E+02  0.51100000000E-03 0. -1.
    9900012    2    1    2    0    0  0.29961469977E+01 -0.12877480655E+01  0.31718861538E+02  0.59301931425E+02  0.49999977015E+02 0.  0.
         12    1    1    2    0    0 -0.29961469977E+01  0.12877480655E+01 -0.31718861538E+02  0.31886068575E+02  0.00000000000E+00 0. -1.
         11    1    3    3    0    0  0.13401915002E+02  0.36915741068E+01  0.11253808885E+02  0.17885392358E+02  0.51100000000E-03 0. -1.
        -11    1    3    3    0    0  0.19328693063E+01  0.12280628742E+02  0.75073045919E+00  0.12454453924E+02  0.51100000000E-03 0.  1.
        -12    1    3    3    0    0 -0.12338637311E+02 -0.17259950915E+02  0.19714322194E+02  0.28962085143E+02  0.00000000000E+00 0.  1.
</event>
<event>
 7    1  0.3223600E-013  0.5930201E+02  0.7816164E-02  0.1266605E+00
        -11   -1    0    0    0    0  0.00000000000E+00  0.00000000000E+00  0.45593999997E+02  0.45594000000E+02  0.51100000000E-03 0.  1.
         11   -1    0    0    0    0 -0.00000000000E+00 -0.00000000000E+00 -0.45593999997E+02  0.45594000000E+02  0.51100000000E-03 0. -1.
    9900012    2    1    2    0    0  0.88473181151E+01 -0.28119412980E+02  0.12154837549E+02  0.59302007778E+02  0.50000116265E+02 0.  0.
         12    1    1    2    0    0 -0.88473181151E+01  0.28119412980E+02 -0.12154837549E+02  0.31885992222E+02  0.00000000000E+00 0. -1.
         11    1    3    3    0    0  0.76314304057E+01  0.54556277994E+01 -0.37465642641E+01  0.10101452805E+02  0.51100000000E-03 0.  1.
        -11    1    3    3    0    0 -0.15048306657E+02 -0.19158173748E+02  0.49345845801E+01  0.24856332791E+02  0.51100000000E-03 0. -1.
         12    1    3    3    0    0  0.16264194367E+02 -0.14416867031E+02  0.10966817233E+02  0.24344222182E+02  0.00000000000E+00 0. -1.
</event>
<event>
 7    1  0.3223600E-013  0.5930192E+02  0.7816164E-02  0.1266605E+00
        -11   -1    0    0    0    0  0.00000000000E+00  0.00000000000E+00  0.45593999997E+02  0.45594000000E+02  0.51100000000E-03 0.  1.
         11   -1    0    0    0    0 -0.00000000000E+00 -0.00000000000E+00 -0.45593999997E+02  0.45594000000E+02  0.51100000000E-03 0. -1.
    9900012    2    1    2    0    0 -0.17028366696E+01  0.22268727269E+02  0.22757985745E+02  0.59301924951E+02  0.49999965209E+02 0.  0.
         12    1    1    2    0    0  0.17028366696E+01 -0.22268727269E+02 -0.22757985745E+02  0.31886075049E+02  0.00000000000E+00 0. -1.
         11    1    3    3    0    0  0.75970731723E+01 -0.42986781303E+01 -0.52489658620E+00  0.87446938849E+01  0.51100000000E-03 0. -1.
        -11    1    3    3    0    0 -0.58505320243E+01 -0.57795995628E+01  0.14812190413E+02  0.16942062483E+02  0.51100000000E-03 0.  1.
        -12    1    3    3    0    0 -0.34493778177E+01  0.32347004962E+02  0.84706919176E+01  0.33615168583E+02  0.00000000000E+00 0.  1.
</event>
<event>
 7    1  0.3223600E-013  0.5930196E+02  0.7816164E-02  0.1266605E+00
        -11   -1    0    0    0    0  0.00000000000E+00  0.00000000000E+00  0.45593999997E+02  0.45594000000E+02  0.51100000000E-03 0. -1.
         11   -1    0    0    0    0 -0.00000000000E+00 -0.00000000000E+00 -0.45593999997E+02  0.45594000000E+02  0.51100000000E-03 0.  1.
    9900012    2    1    2    0    0  0.93422000115E+00 -0.14873170869E+02 -0.28189280820E+02  0.59301960236E+02  0.50000029560E+02 0.  0.
         12    1    1    2    0    0 -0.93422000115E+00  0.14873170869E+02  0.28189280820E+02  0.31886039764E+02  0.00000000000E+00 0. -1.
         11    1    3    3    0    0 -0.17475915368E+02 -0.51403995931E+01 -0.54172458039E+01  0.19004680431E+02  0.51100000000E-03 0. -1.
        -11    1    3    3    0    0 -0.36204012121E+01 -0.84098214385E+01 -0.85898195487E+00  0.91962085570E+01  0.51100000000E-03 0.  1.
        -12    1    3    3    0    0  0.22030536581E+02 -0.13229498369E+01 -0.21913053061E+02  0.31101071248E+02  0.00000000000E+00 0.  1.
</event>
<event>
 7    1  0.3223600E-013  0.5930195E+02  0.7816164E-02  0.1266605E+00
        -11   -1    0    0    0    0  0.00000000000E+00  0.00000000000E+00  0.45593999997E+02  0.45594000000E+02  0.51100000000E-03 0.  1.
         11   -1    0    0    0    0 -0.00000000000E+00 -0.00000000000E+00 -0.45593999997E+02  0.45594000000E+02  0.51100000000E-03 0. -1.
    9900012    2    1    2    0    0 -0.19213231832E+02  0.19868560616E+02  0.15900073778E+02  0.59301947805E+02  0.50000006890E+02 0.  0.
         12    1    1    2    0    0  0.19213231832E+02 -0.19868560616E+02 -0.15900073778E+02  0.31886052195E+02  0.00000000000E+00 0. -1.
         11    1    3    3    0    0  0.53722726764E+00 -0.17574219923E+01  0.11899551221E+02  0.12040617289E+02  0.51100000000E-03 0. -1.
        -11    1    3    3    0    0 -0.18190614979E+02 -0.59262630768E+01 -0.12400793431E+01  0.19171772594E+02  0.51100000000E-03 0.  1.
         12    1    3    3    0    0 -0.15598441215E+01  0.27552245685E+02  0.52406019005E+01  0.28089557922E+02  0.00000000000E+00 0. -1.
</event>
<event>
 7    1  0.3223600E-013  0.5930193E+02  0.7816164E-02  0.1266605E+00
        -11   -1    0    0    0    0  0.00000000000E+00  0.00000000000E+00  0.45593999997E+02  0.45594000000E+02  0.51100000000E-03 0. -1.
         11   -1    0    0    0    0 -0.00000000000E+00 -0.00000000000E+00 -0.45593999997E+02  0.45594000000E+02  0.51100000000E-03 0.  1.
    9900012    2    1    2    0    0  0.19917294403E+02  0.21905904819E+02  0.11838684654E+02  0.59301925663E+02  0.49999966508E+02 0.  0.
         12    1    1    2    0    0 -0.19917294403E+02 -0.21905904819E+02 -0.11838684654E+02  0.31886074337E+02  0.00000000000E+00 0. -1.
         11    1    3    3    0    0 -0.91828185295E+01  0.15848142558E+02  0.16294093705E+02  0.24515000890E+02  0.51100000000E-03 0. -1.
        -11    1    3    3    0    0  0.37519509174E+01  0.74881266402E+01  0.19571152665E+01  0.86011322914E+01  0.51100000000E-03 0.  1.
         12    1    3    3    0    0  0.25348162015E+02 -0.14303643794E+01 -0.64125243178E+01  0.26185792482E+02  0.00000000000E+00 0. -1.
</event>
<event>
 7    1  0.3223600E-013  0.5930196E+02  0.7816164E-02  0.1266605E+00
        -11   -1    0    0    0    0  0.00000000000E+00  0.00000000000E+00  0.45593999997E+02  0.45594000000E+02  0.51100000000E-03 0.  1.
         11   -1    0    0    0    0 -0.00000000000E+00 -0.00000000000E+00 -0.45593999997E+02  0.45594000000E+02  0.51100000000E-03 0. -1.
    9900012    2    1    2    0    0  0.78829612915E+01 -0.19222538893E+02  0.24188270473E+02  0.59301960599E+02  0.50000030222E+02 0.  0.
         12    1    1    2    0    0 -0.78829612915E+01  0.19222538893E+02 -0.24188270473E+02  0.31886039401E+02  0.00000000000E+00 0. -1.
         11    1    3    3    0    0  0.23978509554E+02 -0.23079652753E+01  0.16060095678E+02  0.28952068969E+02  0.51100000000E-03 0.  1.
        -11    1    3    3    0    0 -0.10221547941E+02 -0.49029816037E+00  0.78621395417E+01  0.12904792638E+02  0.51100000000E-03 0. -1.
        -12    1    3    3    0    0 -0.58740003214E+01 -0.16424275457E+02  0.26603525383E+00  0.17445098991E+02  0.00000000000E+00 0.  1.
</event>
<event>
 7    1  0.3223600E-013  0.5930195E+02  0.7816164E-02  0.1266605E+00
        -11   -1    0    0    0    0  0.00000000000E+00  0.00000000000E+00  0.45593999997E+02  0.45594000000E+02  0.51100000000E-03 0. -1.
         11   -1    0    0    0    0 -0.00000000000E+00 -0.00000000000E+00 -0.45593999997E+02  0.45594000000E+02  0.51100000000E-03 0.  1.
    9900012    2    1    2    0    0 -0.22066354435E+02  0.13266032196E+02  0.18809792947E+02  0.59301954166E+02  0.50000018489E+02 0.  0.
         12    1    1    2    0    0  0.22066354435E+02 -0.13266032196E+02 -0.18809792947E+02  0.31886045834E+02  0.00000000000E+00 0. -1.
         11    1    3    3    0    0 -0.30549854447E+02  0.38528305728E+01  0.11466691893E+01  0.30813191342E+02  0.51100000000E-03 0. -1.
        -11    1    3    3    0    0  0.53900032821E+00 -0.50570890114E+01  0.76351349879E+01  0.91738736184E+01  0.51100000000E-03 0.  1.
        -12    1    3    3    0    0  0.79444996841E+01  0.14470290634E+02  0.10027988769E+02  0.19314889206E+02  0.00000000000E+00 0.  1.
</event>
<event>
 7    1  0.3223600E-013  0.5930196E+02  0.7816164E-02  0.1266605E+00
        -11   -1    0    0    0    0  0.00000000000E+00  0.00000000000E+00  0.45593999997E+02  0.45594000000E+02  0.51100000000E-03 0. -1.
         11   -1    0    0    0    0 -0.00000000000E+00 -0.00000000000E+00 -0.45593999997E+02  0.45594000000E+02  0.51100000000E-03 0.  1.
    9900012    2    1    2    0    0  0.13915917807E+02  0.12543116992E+02 -0.25801884948E+02  0.59301955731E+02  0.50000021344E+02 0.  0.
         12    1    1    2    0    0 -0.13915917807E+02 -0.12543116992E+02  0.25801884948E+02  0.31886044269E+02  0.00000000000E+00 0. -1.
         11    1    3    3    0    0  0.86368590804E+00  0.39755872436E+01 -0.58627158922E+01  0.71360132548E+01  0.51100000000E-03 0. -1.
        -11    1    3    3    0    0 -0.70875966592E+01 -0.42648253295E+01 -0.26202921579E+02  0.27477551948E+02  0.51100000000E-03 0.  1.
         12    1    3    3    0    0  0.20139828558E+02  0.12832355078E+02  0.62637525237E+01  0.24688390528E+02  0.00000000000E+00 0. -1.
</event>
<event>
 7    1  0.3223600E-013  0.5930195E+02  0.7816164E-02  0.1266605E+00
        -11   -1    0    0    0    0  0.00000000000E+00  0.00000000000E+00  0.45593999997E+02  0.45594000000E+02  0.51100000000E-03 0.  1.
         11   -1    0    0    0    0 -0.00000000000E+00 -0.00000000000E+00 -0.45593999997E+02  0.45594000000E+02  0.51100000000E-03 0. -1.
    9900012    2    1    2    0    0 -0.10406801723E+02  0.26588607241E+02  0.14193831068E+02  0.59301946662E+02  0.50000004804E+02 0.  0.
         12    1    1    2    0    0  0.10406801723E+02 -0.26588607241E+02 -0.14193831068E+02  0.31886053338E+02  0.00000000000E+00 0. -1.
         11    1    3    3    0    0 -0.13847921015E+02  0.92445665440E+01  0.95280974150E+01  0.19183627593E+02  0.51100000000E-03 0. -1.
        -11    1    3    3    0    0 -0.11785670315E+01  0.16201386935E+02 -0.13635477595E+02  0.21208493779E+02  0.51100000000E-03 0.  1.
        -12    1    3    3    0    0  0.46196863236E+01  0.11426537622E+01  0.18301211248E+02  0.18909825290E+02  0.00000000000E+00 0.  1.
</event>
<event>
 7    1  0.3223600E-013  0.5930199E+02  0.7816164E-02  0.1266605E+00
        -11   -1    0    0    0    0  0.00000000000E+00  0.00000000000E+00  0.45593999997E+02  0.45594000000E+02  0.51100000000E-03 0.  1.
         11   -1    0    0    0    0 -0.00000000000E+00 -0.00000000000E+00 -0.45593999997E+02  0.45594000000E+02  0.51100000000E-03 0. -1.
    9900012    2    1    2    0    0  0.31575547237E+02 -0.41745722766E+01  0.15083960383E+01  0.59301992166E+02  0.50000087792E+02 0.  0.
         12    1    1    2    0    0 -0.31575547237E+02  0.41745722766E+01 -0.15083960383E+01  0.31886007834E+02  0.00000000000E+00 0. -1.
         11    1    3    3    0    0  0.10940548598E+02 -0.28620579627E+01  0.14669026218E+02  0.18522076283E+02  0.51100000000E-03 0.  1.
        -11    1    3    3    0    0  0.19554807409E+02 -0.50873161449E+01  0.61131886932E+01  0.21110242884E+02  0.51100000000E-03 0. -1.
         12    1    3    3    0    0  0.10801912301E+01  0.37748018310E+01 -0.19273818872E+02  0.19669672999E+02  0.00000000000E+00 0. -1.
</event>
<event>
 7    1  0.3223600E-013  0.5930191E+02  0.7816164E-02  0.1266605E+00
        -11   -1    0    0    0    0  0.00000000000E+00  0.00000000000E+00  0.45593999997E+02  0.45594000000E+02  0.51100000000E-03 0.  1.
         11   -1    0    0    0    0 -0.00000000000E+00 -0.00000000000E+00 -0.45593999997E+02  0.45594000000E+02  0.51100000000E-03 0. -1.
    9900012    2    1    2    0    0  0.18825021789E+02 -0.24365270313E+02  0.82870395973E+01  0.59301907921E+02  0.49999934149E+02 0.  0.
         12    1    1    2    0    0 -0.18825021789E+02  0.24365270313E+02 -0.82870395973E+01  0.31886092079E+02  0.00000000000E+00 0. -1.
         11    1    3    3    0    0 -0.51332203796E+01 -0.92791697851E+01  0.14365765258E+02  0.17855759717E+02  0.51100000000E-03 0. -1.
        -11    1    3    3    0    0  0.43152184578E+01 -0.19385605992E+02  0.15940157245E+01  0.19923948314E+02  0.51100000000E-03 0.  1.
        -12    1    3    3    0    0  0.19643023711E+02  0.42995054636E+01 -0.76727413851E+01  0.21522199890E+02  0.00000000000E+00 0.  1.
</event>
<event>
 7    1  0.3223600E-013  0.5930195E+02  0.7816164E-02  0.1266605E+00
        -11   -1    0    0    0    0  0.00000000000E+00  0.00000000000E+00  0.45593999997E+02  0.45594000000E+02  0.51100000000E-03 0. -1.
         11   -1    0    0    0    0 -0.00000000000E+00 -0.00000000000E+00 -0.45593999997E+02  0.45594000000E+02  0.51100000000E-03 0.  1.
    9900012    2    1    2    0    0 -0.11396213363E+02 -0.95687926780E+01 -0.28200791305E+02  0.59301951287E+02  0.50000013239E+02 0.  0.
         12    1    1    2    0    0  0.11396213363E+02  0.95687926780E+01  0.28200791305E+02  0.31886048713E+02  0.00000000000E+00 0. -1.
         11    1    3    3    0    0 -0.12946626430E+02  0.79117490691E+01 -0.17317918673E+02  0.23024361374E+02  0.51100000000E-03 0. -1.
        -11    1    3    3    0    0 -0.63442565059E+00 -0.14069048836E+02 -0.21053609369E+02  0.25329727570E+02  0.51100000000E-03 0.  1.
         12    1    3    3    0    0  0.21848387178E+01 -0.34114929113E+01  0.10170736737E+02  0.10947862343E+02  0.00000000000E+00 0. -1.
</event>
<event>
 7    1  0.3223600E-013  0.5930192E+02  0.7816164E-02  0.1266605E+00
        -11   -1    0    0    0    0  0.00000000000E+00  0.00000000000E+00  0.45593999997E+02  0.45594000000E+02  0.51100000000E-03 0. -1.
         11   -1    0    0    0    0 -0.00000000000E+00 -0.00000000000E+00 -0.45593999997E+02  0.45594000000E+02  0.51100000000E-03 0.  1.
    9900012    2    1    2    0    0 -0.20507617648E+01  0.11972064058E+02 -0.29481963642E+02  0.59301919623E+02  0.49999955492E+02 0.  0.
         12    1    1    2    0    0  0.20507617648E+01 -0.11972064058E+02  0.29481963642E+02  0.31886080377E+02  0.00000000000E+00 0. -1.
         11    1    3    3    0    0  0.66124790111E+01  0.44806836522E+01  0.29995846421E+01  0.85322279007E+01  0.51100000000E-03 0. -1.
        -11    1    3    3    0    0 -0.86469679157E+01 -0.13640970238E+02 -0.68327288397E+01  0.17536599067E+02  0.51100000000E-03 0.  1.
        -12    1    3    3    0    0 -0.16272860289E-01  0.21132350644E+02 -0.25648819444E+02  0.33233092655E+02  0.00000000000E+00 0.  1.
</event>
<event>
 7    1  0.3392394E-013  0.5930205E+02  0.7816164E-02  0.1266604E+00
        -11   -1    0    0    0    0  0.00000000000E+00  0.00000000000E+00  0.45593999997E+02  0.45594000000E+02  0.51100000000E-03 0.  1.
         11   -1    0    0    0    0 -0.00000000000E+00 -0.00000000000E+00 -0.45593999997E+02  0.45594000000E+02  0.51100000000E-03 0. -1.
    9900012    2    1    2    0    0 -0.25807955216E+02 -0.18692413701E+02  0.11212534448E+01  0.59302045542E+02  0.50000185138E+02 0.  0.
         12    1    1    2    0    0  0.25807955216E+02  0.18692413701E+02 -0.11212534448E+01  0.31885954458E+02  0.00000000000E+00 0. -1.
         11    1    3    3    0    0  0.21567032891E-01  0.29751468137E+01 -0.11490918751E+02  0.11869843205E+02  0.51100000000E-03 0. -1.
        -11    1    3    3    0    0  0.46420176320E+01  0.25978972198E+01  0.58319921301E+01  0.78936385861E+01  0.51100000000E-03 0.  1.
        -12    1    3    3    0    0 -0.30471539881E+02 -0.24265457734E+02  0.67801800659E+01  0.39538563751E+02  0.00000000000E+00 0.  1.
</event>
<event>
 7    1  0.3223600E-013  0.5930193E+02  0.7816164E-02  0.1266605E+00
        -11   -1    0    0    0    0  0.00000000000E+00  0.00000000000E+00  0.45593999997E+02  0.45594000000E+02  0.51100000000E-03 0. -1.
         11   -1    0    0    0    0 -0.00000000000E+00 -0.00000000000E+00 -0.45593999997E+02  0.45594000000E+02  0.51100000000E-03 0.  1.
    9900012    2    1    2    0    0  0.11046239776E+02  0.98906726815E+01 -0.28229003990E+02  0.59301929600E+02  0.49999973688E+02 0.  0.
         12    1    1    2    0    0 -0.11046239776E+02 -0.98906726815E+01  0.28229003990E+02  0.31886070400E+02  0.00000000000E+00 0. -1.
         11    1    3    3    0    0  0.25426864025E+01 -0.28335386560E+01 -0.35991380703E+01  0.52390829891E+01  0.51100000000E-03 0. -1.
        -11    1    3    3    0    0  0.25811064431E+02  0.15772333925E+02 -0.18464333538E+02  0.35438808922E+02  0.51100000000E-03 0.  1.
         12    1    3    3    0    0 -0.17307511057E+02 -0.30481225877E+01 -0.61655323813E+01  0.18624037689E+02  0.00000000000E+00 0. -1.
</event>
<event>
 7    1  0.3223600E-013  0.5930197E+02  0.7816164E-02  0.1266605E+00
        -11   -1    0    0    0    0  0.00000000000E+00  0.00000000000E+00  0.45593999997E+02  0.45594000000E+02  0.51100000000E-03 0.  1.
         11   -1    0    0    0    0 -0.00000000000E+00 -0.00000000000E+00 -0.45593999997E+02  0.45594000000E+02  0.51100000000E-03 0. -1.
    9900012    2    1    2    0    0 -0.69836841316E+01  0.30366140498E+02 -0.67708790391E+01  0.59301966447E+02  0.50000040887E+02 0.  0.
         12    1    1    2    0    0  0.69836841316E+01 -0.30366140498E+02  0.67708790391E+01  0.31886033553E+02  0.00000000000E+00 0. -1.
         11    1    3    3    0    0  0.15540973189E+02  0.35071237436E+01 -0.11216474175E+02  0.19484123224E+02  0.51100000000E-03 0. -1.
        -11    1    3    3    0    0 -0.48542426809E+01 -0.23781500882E+01  0.50028288746E+00  0.54285866554E+01  0.51100000000E-03 0.  1.
        -12    1    3    3    0    0 -0.17670414640E+02  0.29237166843E+02  0.39453122487E+01  0.34389256567E+02  0.00000000000E+00 0.  1.
</event>
<event>
 7    1  0.3223600E-013  0.5930191E+02  0.7816164E-02  0.1266605E+00
        -11   -1    0    0    0    0  0.00000000000E+00  0.00000000000E+00  0.45593999997E+02  0.45594000000E+02  0.51100000000E-03 0.  1.
         11   -1    0    0    0    0 -0.00000000000E+00 -0.00000000000E+00 -0.45593999997E+02  0.45594000000E+02  0.51100000000E-03 0. -1.
    9900012    2    1    2    0    0  0.88342257317E+01  0.94296314386E+01  0.29150666049E+02  0.59301908605E+02  0.49999935398E+02 0.  0.
         12    1    1    2    0    0 -0.88342257317E+01 -0.94296314386E+01 -0.29150666049E+02  0.31886091395E+02  0.00000000000E+00 0. -1.
         11    1    3    3    0    0  0.82357676569E+01  0.11264490761E+01 -0.51552800034E-01  0.83126057510E+01  0.51100000000E-03 0. -1.
        -11    1    3    3    0    0  0.42873695570E+01  0.60635618175E+01  0.39306579155E+02  0.40001943512E+02  0.51100000000E-03 0.  1.
         12    1    3    3    0    0 -0.36889114822E+01  0.22396205449E+01 -0.10104360306E+02  0.10987359342E+02  0.00000000000E+00 0. -1.
</event>
<event>
 7    1  0.3223600E-013  0.5930196E+02  0.7816164E-02  0.1266605E+00
        -11   -1    0    0    0    0  0.00000000000E+00  0.00000000000E+00  0.45593999997E+02  0.45594000000E+02  0.51100000000E-03 0. -1.
         11   -1    0    0    0    0 -0.00000000000E+00 -0.00000000000E+00 -0.45593999997E+02  0.45594000000E+02  0.51100000000E-03 0.  1.
    9900012    2    1    2    0    0 -0.26345257089E+02 -0.27566820609E+01 -0.17749576532E+02  0.59301963336E+02  0.50000035214E+02 0.  0.
         12    1    1    2    0    0  0.26345257089E+02  0.27566820609E+01  0.17749576532E+02  0.31886036664E+02  0.00000000000E+00 0. -1.
         11    1    3    3    0    0  0.50847662293E+01  0.14156732245E+02 -0.79150199365E+01  0.16997513239E+02  0.51100000000E-03 0. -1.
        -11    1    3    3    0    0 -0.52027148245E+01 -0.28668956515E+01 -0.11030685151E+02  0.12528501402E+02  0.51100000000E-03 0.  1.
         12    1    3    3    0    0 -0.26227308494E+02 -0.14046518654E+02  0.11961285558E+01  0.29775948694E+02  0.00000000000E+00 0. -1.
</event>
<event>
 7    1  0.3223600E-013  0.5930191E+02  0.7816164E-02  0.1266605E+00
        -11   -1    0    0    0    0  0.00000000000E+00  0.00000000000E+00  0.45593999997E+02  0.45594000000E+02  0.51100000000E-03 0.  1.
         11   -1    0    0    0    0 -0.00000000000E+00 -0.00000000000E+00 -0.45593999997E+02  0.45594000000E+02  0.51100000000E-03 0. -1.
    9900012    2    1    2    0    0  0.17814038001E+02  0.47647198730E+00  0.26441556298E+02  0.59301907814E+02  0.49999933954E+02 0.  0.
         12    1    1    2    0    0 -0.17814038001E+02 -0.47647198730E+00 -0.26441556298E+02  0.31886092186E+02  0.00000000000E+00 0. -1.
         11    1    3    3    0    0 -0.11638200463E+02  0.92252325428E+01  0.19249954308E+02  0.24312823090E+02  0.51100000000E-03 0. -1.
        -11    1    3    3    0    0 -0.12096863788E+01  0.10528592268E+01  0.16937376238E+01  0.23325096111E+01  0.51100000000E-03 0.  1.
        -12    1    3    3    0    0  0.30661924844E+02 -0.98016197823E+01  0.54978643655E+01  0.32656575112E+02  0.00000000000E+00 0.  1.
</event>
<event>
 7    1  0.3223600E-013  0.5930192E+02  0.7816164E-02  0.1266605E+00
        -11   -1    0    0    0    0  0.00000000000E+00  0.00000000000E+00  0.45593999997E+02  0.45594000000E+02  0.51100000000E-03 0. -1.
         11   -1    0    0    0    0 -0.00000000000E+00 -0.00000000000E+00 -0.45593999997E+02  0.45594000000E+02  0.51100000000E-03 0.  1.
    9900012    2    1    2    0    0 -0.28065769902E+02  0.93932461198E+01 -0.11865989204E+02  0.59301918198E+02  0.49999952894E+02 0.  0.
         12    1    1    2    0    0  0.28065769902E+02 -0.93932461198E+01  0.11865989204E+02  0.31886081802E+02  0.00000000000E+00 0. -1.
         11    1    3    3    0    0 -0.13308879188E+02  0.12549062173E+02  0.77059007982E+01  0.19849083959E+02  0.51100000000E-03 0. -1.
        -11    1    3    3    0    0  0.61381808300E+01  0.61879030158E+01  0.87673630677E+00  0.87599129246E+01  0.51100000000E-03 0.  1.
        -12    1    3    3    0    0 -0.20895071544E+02 -0.93437190689E+01 -0.20448626309E+02  0.30692921314E+02  0.00000000000E+00 0.  1.
</event>
<event>
 7    1  0.3223600E-013  0.5930201E+02  0.7816164E-02  0.1266605E+00
        -11   -1    0    0    0    0  0.00000000000E+00  0.00000000000E+00  0.45593999997E+02  0.45594000000E+02  0.51100000000E-03 0. -1.
         11   -1    0    0    0    0 -0.00000000000E+00 -0.00000000000E+00 -0.45593999997E+02  0.45594000000E+02  0.51100000000E-03 0.  1.
    9900012    2    1    2    0    0 -0.14054902578E+02 -0.19775175166E+02 -0.20691025943E+02  0.59302009442E+02  0.50000119299E+02 0.  0.
         12    1    1    2    0    0  0.14054902578E+02  0.19775175166E+02  0.20691025943E+02  0.31885990558E+02  0.00000000000E+00 0. -1.
         11    1    3    3    0    0 -0.33426880986E+01 -0.73466350802E+01  0.62939914789E+01  0.10235279172E+02  0.51100000000E-03 0. -1.
        -11    1    3    3    0    0 -0.28395410022E+01  0.11441045917E+02  0.52986942001E+00  0.11800054519E+02  0.51100000000E-03 0.  1.
        -12    1    3    3    0    0 -0.78726734771E+01 -0.23869586003E+02 -0.27514886842E+02  0.37266675751E+02  0.00000000000E+00 0.  1.
</event>
<event>
 7    1  0.3223600E-013  0.5930195E+02  0.7816164E-02  0.1266605E+00
        -11   -1    0    0    0    0  0.00000000000E+00  0.00000000000E+00  0.45593999997E+02  0.45594000000E+02  0.51100000000E-03 0. -1.
         11   -1    0    0    0    0 -0.00000000000E+00 -0.00000000000E+00 -0.45593999997E+02  0.45594000000E+02  0.51100000000E-03 0.  1.
    9900012    2    1    2    0    0 -0.91494591422E+01 -0.29910706450E+02 -0.61933229837E+01  0.59301949562E+02  0.50000010093E+02 0.  0.
         12    1    1    2    0    0  0.91494591422E+01  0.29910706450E+02  0.61933229837E+01  0.31886050438E+02  0.00000000000E+00 0. -1.
         11    1    3    3    0    0 -0.19295737657E+01  0.32793776367E+01  0.15556607240E+01  0.41106755102E+01  0.51100000000E-03 0. -1.
        -11    1    3    3    0    0 -0.41397873505E+01 -0.43593681238E+02 -0.65018474370E+01  0.44269864508E+02  0.51100000000E-03 0.  1.
         12    1    3    3    0    0 -0.30800980260E+01  0.10403597151E+02 -0.12471362707E+01  0.10921409543E+02  0.00000000000E+00 0. -1.
</event>
<event>
 7    1  0.3223600E-013  0.5930204E+02  0.7816164E-02  0.1266604E+00
        -11   -1    0    0    0    0  0.00000000000E+00  0.00000000000E+00  0.45593999997E+02  0.45594000000E+02  0.51100000000E-03 0. -1.
         11   -1    0    0    0    0 -0.00000000000E+00 -0.00000000000E+00 -0.45593999997E+02  0.45594000000E+02  0.51100000000E-03 0.  1.
    9900012    2    1    2    0    0  0.13731701619E+02 -0.80639087454E+00 -0.28766374818E+02  0.59302043596E+02  0.50000181588E+02 0.  0.
         12    1    1    2    0    0 -0.13731701619E+02  0.80639087454E+00  0.28766374818E+02  0.31885956404E+02  0.00000000000E+00 0. -1.
         11    1    3    3    0    0 -0.69506555597E+01  0.54612054731E+00 -0.36670159405E+01  0.78776180747E+01  0.51100000000E-03 0. -1.
        -11    1    3    3    0    0  0.43930151416E+01  0.68276545177E+01 -0.31171693458E+02  0.32211642640E+02  0.51100000000E-03 0.  1.
         12    1    3    3    0    0  0.16289342037E+02 -0.81801659396E+01  0.60723345798E+01  0.19212782882E+02  0.00000000000E+00 0. -1.
</event>
<event>
 7    1  0.3223600E-013  0.5930194E+02  0.7816164E-02  0.1266605E+00
        -11   -1    0    0    0    0  0.00000000000E+00  0.00000000000E+00  0.45593999997E+02  0.45594000000E+02  0.51100000000E-03 0. -1.
         11   -1    0    0    0    0 -0.00000000000E+00 -0.00000000000E+00 -0.45593999997E+02  0.45594000000E+02  0.51100000000E-03 0.  1.
    9900012    2    1    2    0    0 -0.25297109028E+02  0.50875840129E+01 -0.18732148373E+02  0.59301943189E+02  0.49999998471E+02 0.  0.
         12    1    1    2    0    0  0.25297109028E+02 -0.50875840129E+01  0.18732148373E+02  0.31886056811E+02  0.00000000000E+00 0. -1.
         11    1    3    3    0    0 -0.13694209314E+02  0.71673910716E+00 -0.22018336113E+02  0.25939394926E+02  0.51100000000E-03 0. -1.
        -11    1    3    3    0    0  0.92542454110E+01 -0.46768576326E+01 -0.14591047274E+00  0.10369925051E+02  0.51100000000E-03 0.  1.
         12    1    3    3    0    0 -0.20857145126E+02  0.90477025383E+01  0.34320982132E+01  0.22992623212E+02  0.00000000000E+00 0. -1.
</event>
<event>
 7    1  0.3223600E-013  0.5930195E+02  0.7816164E-02  0.1266605E+00
        -11   -1    0    0    0    0  0.00000000000E+00  0.00000000000E+00  0.45593999997E+02  0.45594000000E+02  0.51100000000E-03 0.  1.
         11   -1    0    0    0    0 -0.00000000000E+00 -0.00000000000E+00 -0.45593999997E+02  0.45594000000E+02  0.51100000000E-03 0. -1.
    9900012    2    1    2    0    0  0.25486032487E+02  0.82936559606E+01  0.17274190425E+02  0.59301949195E+02  0.50000009423E+02 0.  0.
         12    1    1    2    0    0 -0.25486032487E+02 -0.82936559606E+01 -0.17274190425E+02  0.31886050805E+02  0.00000000000E+00 0. -1.
         11    1    3    3    0    0 -0.69437506637E+01  0.12179604073E+02 -0.50209898531E+01  0.14891902767E+02  0.51100000000E-03 0. -1.
        -11    1    3    3    0    0  0.74534273367E+01 -0.61490595414E+01 -0.15719152920E+01  0.97895572042E+01  0.51100000000E-03 0.  1.
        -12    1    3    3    0    0  0.24976355814E+02  0.22631114285E+01  0.23867095570E+02  0.34620489223E+02  0.00000000000E+00 0.  1.
</event>
<event>
 7    1  0.3223600E-013  0.5930193E+02  0.7816164E-02  0.1266605E+00
        -11   -1    0    0    0    0  0.00000000000E+00  0.00000000000E+00  0.45593999997E+02  0.45594000000E+02  0.51100000000E-03 0. -1.
         11   -1    0    0    0    0 -0.00000000000E+00 -0.00000000000E+00 -0.45593999997E+02  0.45594000000E+02  0.51100000000E-03 0.  1.
    9900012    2    1    2    0    0  0.28804731103E+02  0.40274492861E+01  0.13068613080E+02  0.59301928910E+02  0.49999972430E+02 0.  0.
         12    1    1    2    0    0 -0.28804731103E+02 -0.40274492861E+01 -0.13068613080E+02  0.31886071090E+02  0.00000000000E+00 0. -1.
         11    1    3    3    0    0  0.14684801072E+02 -0.25927508532E+01  0.78374346556E+00  0.14932514644E+02  0.51100000000E-03 0.  1.
        -11    1    3    3    0    0  0.97908986595E+01  0.51950515092E+01 -0.13907236278E+02  0.17783741954E+02  0.51100000000E-03 0. -1.
         12    1    3    3    0    0  0.43290313721E+01  0.14251486300E+01  0.26192105892E+02  0.26585672313E+02  0.00000000000E+00 0. -1.
</event>
<event>
 7    1  0.3223600E-013  0.5930195E+02  0.7816164E-02  0.1266605E+00
        -11   -1    0    0    0    0  0.00000000000E+00  0.00000000000E+00  0.45593999997E+02  0.45594000000E+02  0.51100000000E-03 0. -1.
         11   -1    0    0    0    0 -0.00000000000E+00 -0.00000000000E+00 -0.45593999997E+02  0.45594000000E+02  0.51100000000E-03 0.  1.
    9900012    2    1    2    0    0 -0.10395824181E+02 -0.26406819966E+02  0.14537094012E+02  0.59301946569E+02  0.50000004634E+02 0.  0.
         12    1    1    2    0    0  0.10395824181E+02  0.26406819966E+02 -0.14537094012E+02  0.31886053431E+02  0.00000000000E+00 0. -1.
         11    1    3    3    0    0  0.10861346426E+01 -0.10498575418E+02 -0.92222203454E+01  0.14016030915E+02  0.51100000000E-03 0. -1.
        -11    1    3    3    0    0 -0.19046321271E+01 -0.23935343870E+02  0.82945618595E+01  0.25403308179E+02  0.51100000000E-03 0.  1.
         12    1    3    3    0    0 -0.95773266964E+01  0.80270993217E+01  0.15464752498E+02  0.19882607475E+02  0.00000000000E+00 0. -1.
</event>
<event>
 7    1  0.3223600E-013  0.5930196E+02  0.7816164E-02  0.1266605E+00
        -11   -1    0    0    0    0  0.00000000000E+00  0.00000000000E+00  0.45593999997E+02  0.45594000000E+02  0.51100000000E-03 0.  1.
         11   -1    0    0    0    0 -0.00000000000E+00 -0.00000000000E+00 -0.45593999997E+02  0.45594000000E+02  0.51100000000E-03 0. -1.
    9900012    2    1    2    0    0 -0.14619871117E+02  0.28294714690E+02 -0.15454114174E+01  0.59301955917E+02  0.50000021682E+02 0.  0.
         12    1    1    2    0    0  0.14619871117E+02 -0.28294714690E+02  0.15454114174E+01  0.31886044083E+02  0.00000000000E+00 0. -1.
         11    1    3    3    0    0 -0.14781258401E+02 -0.67788201132E+01 -0.51983248325E+01  0.17072216709E+02  0.51100000000E-03 0. -1.
        -11    1    3    3    0    0 -0.57448227494E+01  0.42034002757E+01  0.77624010660E+01  0.10532161833E+02  0.51100000000E-03 0.  1.
        -12    1    3    3    0    0  0.59062100331E+01  0.30870134527E+02 -0.41094876510E+01  0.31697577375E+02  0.00000000000E+00 0.  1.
</event>
<event>
 7    1  0.3223600E-013  0.5930194E+02  0.7816164E-02  0.1266605E+00
        -11   -1    0    0    0    0  0.00000000000E+00  0.00000000000E+00  0.45593999997E+02  0.45594000000E+02  0.51100000000E-03 0.  1.
         11   -1    0    0    0    0 -0.00000000000E+00 -0.00000000000E+00 -0.45593999997E+02  0.45594000000E+02  0.51100000000E-03 0. -1.
    9900012    2    1    2    0    0  0.14697513580E+02  0.23952657174E+02  0.15065653807E+02  0.59301943239E+02  0.49999998561E+02 0.  0.
         12    1    1    2    0    0 -0.14697513580E+02 -0.23952657174E+02 -0.15065653807E+02  0.31886056761E+02  0.00000000000E+00 0. -1.
         11    1    3    3    0    0  0.17872035273E+02  0.11891591641E+02  0.14154440766E+00  0.21467175679E+02  0.51100000000E-03 0. -1.
        -11    1    3    3    0    0  0.11852526389E+02  0.37147780973E+01  0.16410597829E+02  0.20581294407E+02  0.51100000000E-03 0.  1.
        -12    1    3    3    0    0 -0.15027048081E+02  0.83462874360E+01 -0.14864884290E+01  0.17253473153E+02  0.00000000000E+00 0.  1.
</event>
<event>
 7    1  0.3223600E-013  0.5930196E+02  0.7816164E-02  0.1266605E+00
        -11   -1    0    0    0    0  0.00000000000E+00  0.00000000000E+00  0.45593999997E+02  0.45594000000E+02  0.51100000000E-03 0.  1.
         11   -1    0    0    0    0 -0.00000000000E+00 -0.00000000000E+00 -0.45593999997E+02  0.45594000000E+02  0.51100000000E-03 0. -1.
    9900012    2    1    2    0    0 -0.18721380247E+02  0.83762872433E+01  0.24414484849E+02  0.59301963295E+02  0.50000035138E+02 0.  0.
         12    1    1    2    0    0  0.18721380247E+02 -0.83762872433E+01 -0.24414484849E+02  0.31886036705E+02  0.00000000000E+00 0. -1.
         11    1    3    3    0    0 -0.10731681102E+02  0.29360658316E+01 -0.24853687483E+01  0.11400285958E+02  0.51100000000E-03 0. -1.
        -11    1    3    3    0    0 -0.36224129885E+01 -0.84592837516E+01 -0.66308944593E+01  0.11342403583E+02  0.51100000000E-03 0.  1.
         12    1    3    3    0    0 -0.43672861560E+01  0.13899505163E+02  0.33530748057E+02  0.36559273754E+02  0.00000000000E+00 0. -1.
</event>
<event>
 7    1  0.3223600E-013  0.5930194E+02  0.7816164E-02  0.1266605E+00
        -11   -1    0    0    0    0  0.00000000000E+00  0.00000000000E+00  0.45593999997E+02  0.45594000000E+02  0.51100000000E-03 0.  1.
         11   -1    0    0    0    0 -0.00000000000E+00 -0.00000000000E+00 -0.45593999997E+02  0.45594000000E+02  0.51100000000E-03 0. -1.
    9900012    2    1    2    0    0 -0.15989993249E+02  0.58210055806E+01  0.26965850253E+02  0.59301936117E+02  0.49999985573E+02 0.  0.
         12    1    1    2    0    0  0.15989993249E+02 -0.58210055806E+01 -0.26965850253E+02  0.31886063883E+02  0.00000000000E+00 0. -1.
         11    1    3    3    0    0  0.35401603535E+01  0.11446339699E+02 -0.14870433938E+01  0.12073223519E+02  0.51100000000E-03 0. -1.
        -11    1    3    3    0    0  0.16031039769E+01  0.68985171352E+01  0.20052830295E+02  0.21266769480E+02  0.51100000000E-03 0.  1.
         12    1    3    3    0    0 -0.21133257579E+02 -0.12523851253E+02  0.84000633525E+01  0.25961943118E+02  0.00000000000E+00 0. -1.
</event>
<event>
 7    1  0.3223600E-013  0.5930194E+02  0.7816164E-02  0.1266605E+00
        -11   -1    0    0    0    0  0.00000000000E+00  0.00000000000E+00  0.45593999997E+02  0.45594000000E+02  0.51100000000E-03 0.  1.
         11   -1    0    0    0    0 -0.00000000000E+00 -0.00000000000E+00 -0.45593999997E+02  0.45594000000E+02  0.51100000000E-03 0. -1.
    9900012    2    1    2    0    0 -0.30227310889E+02  0.78932259858E+01  0.63817923907E+01  0.59301943264E+02  0.49999998608E+02 0.  0.
         12    1    1    2    0    0  0.30227310889E+02 -0.78932259858E+01 -0.63817923907E+01  0.31886056736E+02  0.00000000000E+00 0. -1.
         11    1    3    3    0    0 -0.23584100298E+02  0.85990187732E+01  0.79570446479E+01  0.26333770533E+02  0.51100000000E-03 0. -1.
        -11    1    3    3    0    0 -0.90237936885E+01  0.70354247386E+01  0.12364417802E+02  0.16846509479E+02  0.51100000000E-03 0.  1.
         12    1    3    3    0    0  0.23805830974E+01 -0.77412175259E+01 -0.13939670059E+02  0.16121663252E+02  0.00000000000E+00 0. -1.
</event>
<event>
 7    1  0.3223600E-013  0.5930195E+02  0.7816164E-02  0.1266605E+00
        -11   -1    0    0    0    0  0.00000000000E+00  0.00000000000E+00  0.45593999997E+02  0.45594000000E+02  0.51100000000E-03 0. -1.
         11   -1    0    0    0    0 -0.00000000000E+00 -0.00000000000E+00 -0.45593999997E+02  0.45594000000E+02  0.51100000000E-03 0.  1.
    9900012    2    1    2    0    0  0.22548593199E+02  0.22461381393E+02  0.19410532496E+01  0.59301946669E+02  0.50000004817E+02 0.  0.
         12    1    1    2    0    0 -0.22548593199E+02 -0.22461381393E+02 -0.19410532496E+01  0.31886053331E+02  0.00000000000E+00 0. -1.
         11    1    3    3    0    0 -0.78833164261E+01  0.66763592877E+01  0.86758093854E+01  0.13490371380E+02  0.51100000000E-03 0. -1.
        -11    1    3    3    0    0  0.14369166938E+02  0.82863343594E+01  0.11652246399E+02  0.20270943294E+02  0.51100000000E-03 0.  1.
         12    1    3    3    0    0  0.16062742687E+02  0.74986877455E+01 -0.18387002535E+02  0.25540631996E+02  0.00000000000E+00 0. -1.
</event>
<event>
 7    1  0.3223600E-013  0.5930198E+02  0.7816164E-02  0.1266605E+00
        -11   -1    0    0    0    0  0.00000000000E+00  0.00000000000E+00  0.45593999997E+02  0.45594000000E+02  0.51100000000E-03 0.  1.
         11   -1    0    0    0    0 -0.00000000000E+00 -0.00000000000E+00 -0.45593999997E+02  0.45594000000E+02  0.51100000000E-03 0. -1.
    9900012    2    1    2    0    0  0.43456814345E+01 -0.12430887439E+02  0.29039740894E+02  0.59301977030E+02  0.50000060188E+02 0.  0.
         12    1    1    2    0    0 -0.43456814345E+01  0.12430887439E+02 -0.29039740894E+02  0.31886022970E+02  0.00000000000E+00 0. -1.
         11    1    3    3    0    0 -0.11778890018E+01  0.41129163429E+01 -0.44068067381E+01  0.61419418129E+01  0.51100000000E-03 0. -1.
        -11    1    3    3    0    0 -0.97148715450E+01 -0.16465209291E+02  0.33269051767E+01  0.19404900011E+02  0.51100000000E-03 0.  1.
         12    1    3    3    0    0  0.15238441981E+02 -0.78594491687E-01  0.30119642456E+02  0.33755135206E+02  0.00000000000E+00 0. -1.
</event>
<event>
 7    1  0.3223600E-013  0.5930195E+02  0.7816164E-02  0.1266605E+00
        -11   -1    0    0    0    0  0.00000000000E+00  0.00000000000E+00  0.45593999997E+02  0.45594000000E+02  0.51100000000E-03 0. -1.
         11   -1    0    0    0    0 -0.00000000000E+00 -0.00000000000E+00 -0.45593999997E+02  0.45594000000E+02  0.51100000000E-03 0.  1.
    9900012    2    1    2    0    0 -0.23142313496E+02  0.21052891219E+02 -0.61586706248E+01  0.59301950911E+02  0.50000012554E+02 0.  0.
         12    1    1    2    0    0  0.23142313496E+02 -0.21052891219E+02  0.61586706248E+01  0.31886049089E+02  0.00000000000E+00 0. -1.
         11    1    3    3    0    0 -0.13209119292E+02  0.11150011200E+02  0.16670450077E+02  0.24014734815E+02  0.51100000000E-03 0. -1.
        -11    1    3    3    0    0 -0.87324190130E+01 -0.21045432428E+01  0.52700737579E+00  0.89978875918E+01  0.51100000000E-03 0.  1.
        -12    1    3    3    0    0 -0.12007751914E+01  0.12007423262E+02 -0.23356128077E+02  0.26289328504E+02  0.00000000000E+00 0.  1.
</event>
<event>
 7    1  0.3223600E-013  0.5930195E+02  0.7816164E-02  0.1266605E+00
        -11   -1    0    0    0    0  0.00000000000E+00  0.00000000000E+00  0.45593999997E+02  0.45594000000E+02  0.51100000000E-03 0.  1.
         11   -1    0    0    0    0 -0.00000000000E+00 -0.00000000000E+00 -0.45593999997E+02  0.45594000000E+02  0.51100000000E-03 0. -1.
    9900012    2    1    2    0    0 -0.21833275591E+02  0.10311608316E+02  0.20825437243E+02  0.59301952496E+02  0.50000015444E+02 0.  0.
         12    1    1    2    0    0  0.21833275591E+02 -0.10311608316E+02 -0.20825437243E+02  0.31886047504E+02  0.00000000000E+00 0. -1.
         11    1    3    3    0    0  0.64670695898E+01  0.14448601565E+02  0.21997106444E+02  0.27100881322E+02  0.51100000000E-03 0. -1.
        -11    1    3    3    0    0 -0.15843423580E+02 -0.49380866841E+01  0.61868776537E+01  0.17710906984E+02  0.51100000000E-03 0.  1.
        -12    1    3    3    0    0 -0.12456921600E+02  0.80109343499E+00 -0.73585468544E+01  0.14490164190E+02  0.00000000000E+00 0.  1.
</event>
<event>
 7    1  0.3223600E-013  0.5930195E+02  0.7816164E-02  0.1266605E+00
        -11   -1    0    0    0    0  0.00000000000E+00  0.00000000000E+00  0.45593999997E+02  0.45594000000E+02  0.51100000000E-03 0.  1.
         11   -1    0    0    0    0 -0.00000000000E+00 -0.00000000000E+00 -0.45593999997E+02  0.45594000000E+02  0.51100000000E-03 0. -1.
    9900012    2    1    2    0    0 -0.23172727215E+02  0.17445302521E+02  0.13244113775E+02  0.59301946367E+02  0.50000004266E+02 0.  0.
         12    1    1    2    0    0  0.23172727215E+02 -0.17445302521E+02 -0.13244113775E+02  0.31886053633E+02  0.00000000000E+00 0. -1.
         11    1    3    3    0    0  0.13186558068E+01  0.63243118166E+01 -0.74926560608E+01  0.98932132393E+01  0.51100000000E-03 0. -1.
        -11    1    3    3    0    0  0.93836839426E+01  0.11988710790E+01  0.31401475489E+01  0.99675143887E+01  0.51100000000E-03 0.  1.
        -12    1    3    3    0    0 -0.33875066965E+02  0.99221196252E+01  0.17596622286E+02  0.39441218739E+02  0.00000000000E+00 0.  1.
</event>
<event>
 7    1  0.3223600E-013  0.5930194E+02  0.7816164E-02  0.1266605E+00
        -11   -1    0    0    0    0  0.00000000000E+00  0.00000000000E+00  0.45593999997E+02  0.45594000000E+02  0.51100000000E-03 0. -1.
         11   -1    0    0    0    0 -0.00000000000E+00 -0.00000000000E+00 -0.45593999997E+02  0.45594000000E+02  0.51100000000E-03 0.  1.
    9900012    2    1    2    0    0  0.14936399171E+02 -0.97040079241E+01 -0.26447251394E+02  0.59301938841E+02  0.49999990540E+02 0.  0.
         12    1    1    2    0    0 -0.14936399171E+02  0.97040079241E+01  0.26447251394E+02  0.31886061159E+02  0.00000000000E+00 0. -1.
         11    1    3    3    0    0 -0.60733605432E+01 -0.94582071846E+01 -0.11435725645E+02  0.16034937254E+02  0.51100000000E-03 0.  1.
        -11    1    3    3    0    0  0.16098381007E+02 -0.31985380957E+01  0.89052202445E+01  0.18673282112E+02  0.51100000000E-03 0. -1.
         12    1    3    3    0    0  0.49113787073E+01  0.29527373561E+01 -0.23916745993E+02  0.24593719474E+02  0.00000000000E+00 0. -1.
</event>
<event>
 7    1  0.3223600E-013  0.5930195E+02  0.7816164E-02  0.1266605E+00
        -11   -1    0    0    0    0  0.00000000000E+00  0.00000000000E+00  0.45593999997E+02  0.45594000000E+02  0.51100000000E-03 0.  1.
         11   -1    0    0    0    0 -0.00000000000E+00 -0.00000000000E+00 -0.45593999997E+02  0.45594000000E+02  0.51100000000E-03 0. -1.
    9900012    2    1    2    0    0 -0.15041755829E+02  0.18267028424E+02  0.21372450739E+02  0.59301946678E+02  0.50000004833E+02 0.  0.
         12    1    1    2    0    0  0.15041755829E+02 -0.18267028424E+02 -0.21372450739E+02  0.31886053322E+02  0.00000000000E+00 0. -1.
         11    1    3    3    0    0  0.65578218968E+01 -0.86874771556E+01  0.15580829448E+02  0.19006302478E+02  0.51100000000E-03 0. -1.
        -11    1    3    3    0    0  0.31685808615E+00  0.44804335462E+01 -0.53502187252E+01  0.69856656431E+01  0.51100000000E-03 0.  1.
        -12    1    3    3    0    0 -0.21916435812E+02  0.22474072034E+02  0.11141840017E+02  0.33309978556E+02  0.00000000000E+00 0.  1.
</event>
<event>
 7    1  0.3223600E-013  0.5930196E+02  0.7816164E-02  0.1266605E+00
        -11   -1    0    0    0    0  0.00000000000E+00  0.00000000000E+00  0.45593999997E+02  0.45594000000E+02  0.51100000000E-03 0. -1.
         11   -1    0    0    0    0 -0.00000000000E+00 -0.00000000000E+00 -0.45593999997E+02  0.45594000000E+02  0.51100000000E-03 0.  1.
    9900012    2    1    2    0    0 -0.31879109970E+02  0.59729865514E+00 -0.29164827327E+00  0.59301961098E+02  0.50000031132E+02 0.  0.
         12    1    1    2    0    0  0.31879109970E+02 -0.59729865514E+00  0.29164827327E+00  0.31886038902E+02  0.00000000000E+00 0. -1.
         11    1    3    3    0    0 -0.39055750199E+01  0.31770975331E+01  0.82766014997E+01  0.96876001990E+01  0.51100000000E-03 0. -1.
        -11    1    3    3    0    0 -0.12248853007E+02  0.67741700116E+01 -0.22581656185E+02  0.26567931339E+02  0.51100000000E-03 0.  1.
         12    1    3    3    0    0 -0.15724681943E+02 -0.93539688896E+01  0.14013406412E+02  0.23046429560E+02  0.00000000000E+00 0. -1.
</event>
<event>
 7    1  0.3223600E-013  0.5930195E+02  0.7816164E-02  0.1266605E+00
        -11   -1    0    0    0    0  0.00000000000E+00  0.00000000000E+00  0.45593999997E+02  0.45594000000E+02  0.51100000000E-03 0.  1.
         11   -1    0    0    0    0 -0.00000000000E+00 -0.00000000000E+00 -0.45593999997E+02  0.45594000000E+02  0.51100000000E-03 0. -1.
    9900012    2    1    2    0    0 -0.17797030517E+02 -0.23239574561E+02 -0.12645486109E+02  0.59301945996E+02  0.50000003590E+02 0.  0.
         12    1    1    2    0    0  0.17797030517E+02  0.23239574561E+02  0.12645486109E+02  0.31886054004E+02  0.00000000000E+00 0. -1.
         11    1    3    3    0    0  0.14348706119E+02 -0.12815816739E+02 -0.11603631024E+02  0.22467193398E+02  0.51100000000E-03 0. -1.
        -11    1    3    3    0    0  0.81444359036E+00 -0.25929698911E+01 -0.11646320348E+01  0.29568867506E+01  0.51100000000E-03 0.  1.
        -12    1    3    3    0    0 -0.32960180227E+02 -0.78307879316E+01  0.12277695011E+00  0.33877865847E+02  0.00000000000E+00 0.  1.
</event>
<event>
 7    1  0.3223600E-013  0.5930193E+02  0.7816164E-02  0.1266605E+00
        -11   -1    0    0    0    0  0.00000000000E+00  0.00000000000E+00  0.45593999997E+02  0.45594000000E+02  0.51100000000E-03 0.  1.
         11   -1    0    0    0    0 -0.00000000000E+00 -0.00000000000E+00 -0.45593999997E+02  0.45594000000E+02  0.51100000000E-03 0. -1.
    9900012    2    1    2    0    0 -0.28265691740E+02  0.48044935200E+01  0.13953090241E+02  0.59301933846E+02  0.49999981431E+02 0.  0.
         12    1    1    2    0    0  0.28265691740E+02 -0.48044935200E+01 -0.13953090241E+02  0.31886066154E+02  0.00000000000E+00 0. -1.
         11    1    3    3    0    0  0.89107968802E+01  0.43395681831E+01 -0.15175621028E+01  0.10026821433E+02  0.51100000000E-03 0. -1.
        -11    1    3    3    0    0  0.12294638022E+00 -0.50040473473E+01  0.99988931246E+01  0.11181836595E+02  0.51100000000E-03 0.  1.
         12    1    3    3    0    0 -0.37299435000E+02  0.54689726843E+01  0.54717592194E+01  0.38093275817E+02  0.00000000000E+00 0. -1.
</event>
<event>
 7    1  0.3223600E-013  0.5930198E+02  0.7816164E-02  0.1266605E+00
        -11   -1    0    0    0    0  0.00000000000E+00  0.00000000000E+00  0.45593999997E+02  0.45594000000E+02  0.51100000000E-03 0. -1.
         11   -1    0    0    0    0 -0.00000000000E+00 -0.00000000000E+00 -0.45593999997E+02  0.45594000000E+02  0.51100000000E-03 0.  1.
    9900012    2    1    2    0    0  0.76647062822E+01  0.16103871334E+02 -0.26431725693E+02  0.59301976143E+02  0.50000058570E+02 0.  0.
         12    1    1    2    0    0 -0.76647062822E+01 -0.16103871334E+02  0.26431725693E+02  0.31886023857E+02  0.00000000000E+00 0. -1.
         11    1    3    3    0    0  0.10871134770E+02  0.13692404269E+02 -0.47745080360E+01  0.18123449813E+02  0.51100000000E-03 0.  1.
        -11    1    3    3    0    0 -0.12420468811E+02  0.59942041699E+01  0.34319580399E+01  0.14211856507E+02  0.51100000000E-03 0. -1.
         12    1    3    3    0    0  0.92140403231E+01 -0.35827371056E+01 -0.25089175697E+02  0.26966669824E+02  0.00000000000E+00 0. -1.
</event>
<event>
 7    1  0.3223600E-013  0.5930194E+02  0.7816164E-02  0.1266605E+00
        -11   -1    0    0    0    0  0.00000000000E+00  0.00000000000E+00  0.45593999997E+02  0.45594000000E+02  0.51100000000E-03 0. -1.
         11   -1    0    0    0    0 -0.00000000000E+00 -0.00000000000E+00 -0.45593999997E+02  0.45594000000E+02  0.51100000000E-03 0.  1.
    9900012    2    1    2    0    0  0.37813987880E+00  0.26569666111E+02 -0.17624708740E+02  0.59301944973E+02  0.50000001725E+02 0.  0.
         12    1    1    2    0    0 -0.37813987880E+00 -0.26569666111E+02  0.17624708740E+02  0.31886055027E+02  0.00000000000E+00 0. -1.
         11    1    3    3    0    0 -0.57785281121E+01  0.21667125271E+02 -0.10388112941E+02  0.24713732931E+02  0.51100000000E-03 0. -1.
        -11    1    3    3    0    0  0.10160790499E+02  0.17041444205E+02 -0.88114487608E+01  0.21709309378E+02  0.51100000000E-03 0.  1.
         12    1    3    3    0    0 -0.40041225083E+01 -0.12138903365E+02  0.15748529625E+01  0.12878902664E+02  0.00000000000E+00 0. -1.
</event>
<event>
 7    1  0.3223600E-013  0.5930196E+02  0.7816164E-02  0.1266605E+00
        -11   -1    0    0    0    0  0.00000000000E+00  0.00000000000E+00  0.45593999997E+02  0.45594000000E+02  0.51100000000E-03 0.  1.
         11   -1    0    0    0    0 -0.00000000000E+00 -0.00000000000E+00 -0.45593999997E+02  0.45594000000E+02  0.51100000000E-03 0. -1.
    9900012    2    1    2    0    0 -0.17220811656E+02  0.10158844862E+01  0.26816618265E+02  0.59301962451E+02  0.50000033599E+02 0.  0.
         12    1    1    2    0    0  0.17220811656E+02 -0.10158844862E+01 -0.26816618265E+02  0.31886037549E+02  0.00000000000E+00 0. -1.
         11    1    3    3    0    0 -0.20122691464E+02  0.17790707423E+02  0.11424023909E+02  0.29188016461E+02  0.51100000000E-03 0. -1.
        -11    1    3    3    0    0  0.23047249167E+01 -0.80686937855E+01 -0.36623566127E+01  0.91557868349E+01  0.51100000000E-03 0.  1.
        -12    1    3    3    0    0  0.59715489111E+00 -0.87061291512E+01  0.19054950969E+02  0.20958159155E+02  0.00000000000E+00 0.  1.
</event>
<event>
 7    1  0.3223600E-013  0.5930196E+02  0.7816164E-02  0.1266605E+00
        -11   -1    0    0    0    0  0.00000000000E+00  0.00000000000E+00  0.45593999997E+02  0.45594000000E+02  0.51100000000E-03 0. -1.
         11   -1    0    0    0    0 -0.00000000000E+00 -0.00000000000E+00 -0.45593999997E+02  0.45594000000E+02  0.51100000000E-03 0.  1.
    9900012    2    1    2    0    0  0.25901493577E+02  0.15958343144E+02 -0.95479715048E+01  0.59301955321E+02  0.50000020595E+02 0.  0.
         12    1    1    2    0    0 -0.25901493577E+02 -0.15958343144E+02  0.95479715048E+01  0.31886044679E+02  0.00000000000E+00 0. -1.
         11    1    3    3    0    0  0.15005089502E+02 -0.76723171774E+01 -0.10781951553E+01  0.16887263452E+02  0.51100000000E-03 0. -1.
        -11    1    3    3    0    0  0.70849889551E+01  0.12393342586E+01 -0.16758005929E+02  0.18236331344E+02  0.51100000000E-03 0.  1.
         12    1    3    3    0    0  0.38114151197E+01  0.22391326063E+02  0.82882295798E+01  0.24178360525E+02  0.00000000000E+00 0. -1.
</event>
<event>
 7    1  0.3223600E-013  0.5930194E+02  0.7816164E-02  0.1266605E+00
        -11   -1    0    0    0    0  0.00000000000E+00  0.00000000000E+00  0.45593999997E+02  0.45594000000E+02  0.51100000000E-03 0.  1.
         11   -1    0    0    0    0 -0.00000000000E+00 -0.00000000000E+00 -0.45593999997E+02  0.45594000000E+02  0.51100000000E-03 0. -1.
    9900012    2    1    2    0    0  0.18984504480E+02 -0.70180713800E+01  0.24638508514E+02  0.59301939754E+02  0.49999992206E+02 0.  0.
         12    1    1    2    0    0 -0.18984504480E+02  0.70180713800E+01 -0.24638508514E+02  0.31886060246E+02  0.00000000000E+00 0. -1.
         11    1    3    3    0    0  0.94716538480E+01  0.51001984889E+01  0.92714998935E+01  0.14201583073E+02  0.51100000000E-03 0. -1.
        -11    1    3    3    0    0  0.98906221786E+01 -0.54599095891E+01  0.28342577672E+02  0.30511255778E+02  0.51100000000E-03 0.  1.
        -12    1    3    3    0    0 -0.37777154673E+00 -0.66583602798E+01 -0.12975569051E+02  0.14589100903E+02  0.00000000000E+00 0.  1.
</event>
<event>
 7    1  0.3223600E-013  0.5930195E+02  0.7816164E-02  0.1266605E+00
        -11   -1    0    0    0    0  0.00000000000E+00  0.00000000000E+00  0.45593999997E+02  0.45594000000E+02  0.51100000000E-03 0. -1.
         11   -1    0    0    0    0 -0.00000000000E+00 -0.00000000000E+00 -0.45593999997E+02  0.45594000000E+02  0.51100000000E-03 0.  1.
    9900012    2    1    2    0    0  0.27273253871E+02  0.15580928567E+02 -0.54885874488E+01  0.59301948129E+02  0.50000007481E+02 0.  0.
         12    1    1    2    0    0 -0.27273253871E+02 -0.15580928567E+02  0.54885874488E+01  0.31886051871E+02  0.00000000000E+00 0. -1.
         11    1    3    3    0    0  0.95820548376E+01 -0.35568846755E+01  0.15988932109E+02  0.18976647590E+02  0.51100000000E-03 0. -1.
        -11    1    3    3    0    0  0.87970679069E+01  0.10095261379E+02  0.20986699891E+01  0.13553860043E+02  0.51100000000E-03 0.  1.
         12    1    3    3    0    0  0.88941311261E+01  0.90425518635E+01 -0.23576189547E+02  0.26771440496E+02  0.00000000000E+00 0. -1.
</event>
<event>
 7    1  0.3223600E-013  0.5930198E+02  0.7816164E-02  0.1266605E+00
        -11   -1    0    0    0    0  0.00000000000E+00  0.00000000000E+00  0.45593999997E+02  0.45594000000E+02  0.51100000000E-03 0. -1.
         11   -1    0    0    0    0 -0.00000000000E+00 -0.00000000000E+00 -0.45593999997E+02  0.45594000000E+02  0.51100000000E-03 0.  1.
    9900012    2    1    2    0    0  0.26239975733E+01  0.25143968853E+02 -0.19432282871E+02  0.59301981896E+02  0.50000069062E+02 0.  0.
         12    1    1    2    0    0 -0.26239975733E+01 -0.25143968853E+02  0.19432282871E+02  0.31886018104E+02  0.00000000000E+00 0. -1.
         11    1    3    3    0    0  0.18489376354E+02  0.20452303689E+02 -0.30548003393E+00  0.27572578452E+02  0.51100000000E-03 0. -1.
        -11    1    3    3    0    0 -0.11083627243E+02  0.12136983075E+02 -0.13180456038E+02  0.21068402233E+02  0.51100000000E-03 0.  1.
        -12    1    3    3    0    0 -0.47817515373E+01 -0.74453179111E+01 -0.59463467993E+01  0.10661001211E+02  0.00000000000E+00 0.  1.
</event>
<event>
 7    1  0.3223600E-013  0.5930195E+02  0.7816164E-02  0.1266605E+00
        -11   -1    0    0    0    0  0.00000000000E+00  0.00000000000E+00  0.45593999997E+02  0.45594000000E+02  0.51100000000E-03 0.  1.
         11   -1    0    0    0    0 -0.00000000000E+00 -0.00000000000E+00 -0.45593999997E+02  0.45594000000E+02  0.51100000000E-03 0. -1.
    9900012    2    1    2    0    0  0.15101159329E+01 -0.31596102535E+02  0.40157278046E+01  0.59301949518E+02  0.50000010013E+02 0.  0.
         12    1    1    2    0    0 -0.15101159329E+01  0.31596102535E+02 -0.40157278046E+01  0.31886050482E+02  0.00000000000E+00 0. -1.
         11    1    3    3    0    0 -0.53820790728E+01 -0.26156092076E+02 -0.10183739861E+02  0.28580001499E+02  0.51100000000E-03 0. -1.
        -11    1    3    3    0    0 -0.81221124837E+01 -0.72686767079E+01  0.10535729856E+02  0.15159286795E+02  0.51100000000E-03 0.  1.
        -12    1    3    3    0    0  0.15014307489E+02  0.18286662489E+01  0.36637378090E+01  0.15562661224E+02  0.00000000000E+00 0.  1.
</event>
<event>
 7    1  0.3223600E-013  0.5930203E+02  0.7816164E-02  0.1266604E+00
        -11   -1    0    0    0    0  0.00000000000E+00  0.00000000000E+00  0.45593999997E+02  0.45594000000E+02  0.51100000000E-03 0.  1.
         11   -1    0    0    0    0 -0.00000000000E+00 -0.00000000000E+00 -0.45593999997E+02  0.45594000000E+02  0.51100000000E-03 0. -1.
    9900012    2    1    2    0    0 -0.39832372483E+01  0.12357614183E+02  0.29122816482E+02  0.59302027424E+02  0.50000152094E+02 0.  0.
         12    1    1    2    0    0  0.39832372483E+01 -0.12357614183E+02 -0.29122816482E+02  0.31885972576E+02  0.00000000000E+00 0. -1.
         11    1    3    3    0    0 -0.65829307834E+01 -0.58917702299E+01 -0.28168913242E+01  0.92726916876E+01  0.51100000000E-03 0. -1.
        -11    1    3    3    0    0  0.17167992102E+01  0.28084832516E+01 -0.72151841972E+01  0.79305649839E+01  0.51100000000E-03 0.  1.
        -12    1    3    3    0    0  0.88289432480E+00  0.15440901162E+02  0.39154892003E+02  0.42098770752E+02  0.00000000000E+00 0.  1.
</event>
<event>
 7    1  0.3223600E-013  0.5930193E+02  0.7816164E-02  0.1266605E+00
        -11   -1    0    0    0    0  0.00000000000E+00  0.00000000000E+00  0.45593999997E+02  0.45594000000E+02  0.51100000000E-03 0. -1.
         11   -1    0    0    0    0 -0.00000000000E+00 -0.00000000000E+00 -0.45593999997E+02  0.45594000000E+02  0.51100000000E-03 0.  1.
    9900012    2    1    2    0    0 -0.25521395758E+02  0.15081193507E+02 -0.11744681477E+02  0.59301928087E+02  0.49999970927E+02 0.  0.
         12    1    1    2    0    0  0.25521395758E+02 -0.15081193507E+02  0.11744681477E+02  0.31886071913E+02  0.00000000000E+00 0. -1.
         11    1    3    3    0    0 -0.65477207256E+01 -0.14347166521E+01  0.11188420569E+02  0.13042691964E+02  0.51100000000E-03 0. -1.
        -11    1    3    3    0    0 -0.22950387225E+02  0.18430225249E+02 -0.77359229895E+01  0.30434158133E+02  0.51100000000E-03 0.  1.
         12    1    3    3    0    0  0.39767121921E+01 -0.19143150897E+01 -0.15197179056E+02  0.15825077990E+02  0.00000000000E+00 0. -1.
</event>
<event>
 7    1  0.3223600E-013  0.5930182E+02  0.7816164E-02  0.1266605E+00
        -11   -1    0    0    0    0  0.00000000000E+00  0.00000000000E+00  0.45593999997E+02  0.45594000000E+02  0.51100000000E-03 0. -1.
         11   -1    0    0    0    0 -0.00000000000E+00 -0.00000000000E+00 -0.45593999997E+02  0.45594000000E+02  0.51100000000E-03 0.  1.
    9900012    2    1    2    0    0  0.57410197670E+01  0.12137671076E+02 -0.28921377379E+02  0.59301820602E+02  0.49999774900E+02 0.  0.
         12    1    1    2    0    0 -0.57410197670E+01 -0.12137671076E+02  0.28921377379E+02  0.31886179398E+02  0.00000000000E+00 0. -1.
         11    1    3    3    0    0  0.91205906831E+01 -0.57163675410E+01 -0.12813859231E+02  0.16734904270E+02  0.51100000000E-03 0. -1.
        -11    1    3    3    0    0  0.10094235034E+02  0.21725808999E+02 -0.15502616712E+02  0.28534811770E+02  0.51100000000E-03 0.  1.
         12    1    3    3    0    0 -0.13473805951E+02 -0.38717703812E+01 -0.60490143586E+00  0.14032104562E+02  0.00000000000E+00 0. -1.
</event>
<event>
 7    1  0.3223600E-013  0.5930193E+02  0.7816164E-02  0.1266605E+00
        -11   -1    0    0    0    0  0.00000000000E+00  0.00000000000E+00  0.45593999997E+02  0.45594000000E+02  0.51100000000E-03 0. -1.
         11   -1    0    0    0    0 -0.00000000000E+00 -0.00000000000E+00 -0.45593999997E+02  0.45594000000E+02  0.51100000000E-03 0.  1.
    9900012    2    1    2    0    0  0.27321386591E+01  0.20024571635E+02 -0.24663200664E+02  0.59301929094E+02  0.49999972765E+02 0.  0.
         12    1    1    2    0    0 -0.27321386591E+01 -0.20024571635E+02  0.24663200664E+02  0.31886070906E+02  0.00000000000E+00 0. -1.
         11    1    3    3    0    0  0.13992105644E+02 -0.15135853829E+00 -0.99301661673E+01  0.17158383669E+02  0.51100000000E-03 0. -1.
        -11    1    3    3    0    0  0.73283385916E+01  0.17597523115E+02 -0.13457175779E+02  0.23333944084E+02  0.51100000000E-03 0.  1.
        -12    1    3    3    0    0 -0.18588305576E+02  0.25784070588E+01 -0.12758587175E+01  0.18809601342E+02  0.00000000000E+00 0.  1.
</event>
<event>
 7    1  0.3223600E-013  0.5930194E+02  0.7816164E-02  0.1266605E+00
        -11   -1    0    0    0    0  0.00000000000E+00  0.00000000000E+00  0.45593999997E+02  0.45594000000E+02  0.51100000000E-03 0.  1.
         11   -1    0    0    0    0 -0.00000000000E+00 -0.00000000000E+00 -0.45593999997E+02  0.45594000000E+02  0.51100000000E-03 0. -1.
    9900012    2    1    2    0    0  0.62922567920E+01  0.16371096892E+02  0.26629225339E+02  0.59301937980E+02  0.49999988970E+02 0.  0.
         12    1    1    2    0    0 -0.62922567920E+01 -0.16371096892E+02 -0.26629225339E+02  0.31886062020E+02  0.00000000000E+00 0. -1.
         11    1    3    3    0    0 -0.61724285515E+01  0.10592410666E+02 -0.45758857957E+01  0.13085746789E+02  0.51100000000E-03 0. -1.
        -11    1    3    3    0    0  0.29353774259E+01  0.11383548571E+02  0.32986005526E+02  0.35018254947E+02  0.51100000000E-03 0.  1.
        -12    1    3    3    0    0  0.95293079176E+01 -0.56048623457E+01 -0.17808943909E+01  0.11197936244E+02  0.00000000000E+00 0.  1.
</event>
<event>
 7    1  0.3223600E-013  0.5930193E+02  0.7816164E-02  0.1266605E+00
        -11   -1    0    0    0    0  0.00000000000E+00  0.00000000000E+00  0.45593999997E+02  0.45594000000E+02  0.51100000000E-03 0. -1.
         11   -1    0    0    0    0 -0.00000000000E+00 -0.00000000000E+00 -0.45593999997E+02  0.45594000000E+02  0.51100000000E-03 0.  1.
    9900012    2    1    2    0    0 -0.16899944961E+02  0.27017812311E+02  0.10728789456E+01  0.59301931083E+02  0.49999976393E+02 0.  0.
         12    1    1    2    0    0  0.16899944961E+02 -0.27017812311E+02 -0.10728789456E+01  0.31886068917E+02  0.00000000000E+00 0. -1.
         11    1    3    3    0    0 -0.82695634820E+01  0.15688100778E+02  0.17395538637E+02  0.24841637444E+02  0.51100000000E-03 0. -1.
        -11    1    3    3    0    0 -0.30529382136E+01  0.18342415200E+02 -0.36655301623E+01  0.18952591874E+02  0.51100000000E-03 0.  1.
        -12    1    3    3    0    0 -0.55774432652E+01 -0.70127036679E+01 -0.12657129529E+02  0.15507701765E+02  0.00000000000E+00 0.  1.
</event>
<event>
 7    1  0.3223600E-013  0.5930192E+02  0.7816164E-02  0.1266605E+00
        -11   -1    0    0    0    0  0.00000000000E+00  0.00000000000E+00  0.45593999997E+02  0.45594000000E+02  0.51100000000E-03 0.  1.
         11   -1    0    0    0    0 -0.00000000000E+00 -0.00000000000E+00 -0.45593999997E+02  0.45594000000E+02  0.51100000000E-03 0. -1.
    9900012    2    1    2    0    0  0.15382947700E+02  0.16427102999E+02  0.22588433357E+02  0.59301919739E+02  0.49999955703E+02 0.  0.
         12    1    1    2    0    0 -0.15382947700E+02 -0.16427102999E+02 -0.22588433357E+02  0.31886080261E+02  0.00000000000E+00 0. -1.
         11    1    3    3    0    0 -0.12030007092E+02  0.13697152390E+02  0.14053874314E+02  0.23018350021E+02  0.51100000000E-03 0. -1.
        -11    1    3    3    0    0  0.53392651642E+01 -0.54046323798E+01  0.10178692749E+02  0.12701322372E+02  0.51100000000E-03 0.  1.
        -12    1    3    3    0    0  0.22073689628E+02  0.81345829895E+01 -0.16441337067E+01  0.23582247345E+02  0.00000000000E+00 0.  1.
</event>
<event>
 7    1  0.3223600E-013  0.5930194E+02  0.7816164E-02  0.1266605E+00
        -11   -1    0    0    0    0  0.00000000000E+00  0.00000000000E+00  0.45593999997E+02  0.45594000000E+02  0.51100000000E-03 0.  1.
         11   -1    0    0    0    0 -0.00000000000E+00 -0.00000000000E+00 -0.45593999997E+02  0.45594000000E+02  0.51100000000E-03 0. -1.
    9900012    2    1    2    0    0  0.57240470806E+01  0.99878993225E+01  0.29735464144E+02  0.59301942299E+02  0.49999996847E+02 0.  0.
         12    1    1    2    0    0 -0.57240470806E+01 -0.99878993225E+01 -0.29735464144E+02  0.31886057701E+02  0.00000000000E+00 0. -1.
         11    1    3    3    0    0 -0.15999471336E+02  0.15899919732E+02  0.10677157256E+02  0.24955805293E+02  0.51100000000E-03 0. -1.
        -11    1    3    3    0    0  0.14001123351E+02  0.50877311004E+01  0.12213832958E+02  0.19263804885E+02  0.51100000000E-03 0.  1.
        -12    1    3    3    0    0  0.77223950656E+01 -0.10999751510E+02  0.68444739300E+01  0.15082332121E+02  0.00000000000E+00 0.  1.
</event>
<event>
 7    1  0.3223600E-013  0.5930195E+02  0.7816164E-02  0.1266605E+00
        -11   -1    0    0    0    0  0.00000000000E+00  0.00000000000E+00  0.45593999997E+02  0.45594000000E+02  0.51100000000E-03 0. -1.
         11   -1    0    0    0    0 -0.00000000000E+00 -0.00000000000E+00 -0.45593999997E+02  0.45594000000E+02  0.51100000000E-03 0.  1.
    9900012    2    1    2    0    0  0.27494250504E+02  0.13632688716E+01 -0.16091234798E+02  0.59301950541E+02  0.50000011878E+02 0.  0.
         12    1    1    2    0    0 -0.27494250504E+02 -0.13632688716E+01  0.16091234798E+02  0.31886049459E+02  0.00000000000E+00 0. -1.
         11    1    3    3    0    0 -0.10360341539E+01  0.38763060822E+01 -0.65915697151E+01  0.77167290467E+01  0.51100000000E-03 0. -1.
        -11    1    3    3    0    0 -0.11050960596E+02 -0.21071486569E+00 -0.22533425080E+01  0.11280322848E+02  0.51100000000E-03 0.  1.
        -12    1    3    3    0    0  0.39581245254E+02 -0.23023223449E+01 -0.72463225747E+01  0.40304898646E+02  0.00000000000E+00 0.  1.
</event>
<event>
 7    1  0.3223600E-013  0.5930194E+02  0.7816164E-02  0.1266605E+00
        -11   -1    0    0    0    0  0.00000000000E+00  0.00000000000E+00  0.45593999997E+02  0.45594000000E+02  0.51100000000E-03 0.  1.
         11   -1    0    0    0    0 -0.00000000000E+00 -0.00000000000E+00 -0.45593999997E+02  0.45594000000E+02  0.51100000000E-03 0. -1.
    9900012    2    1    2    0    0  0.58220652474E+01  0.92024522575E+01  0.29968975773E+02  0.59301935957E+02  0.49999985280E+02 0.  0.
         12    1    1    2    0    0 -0.58220652474E+01 -0.92024522575E+01 -0.29968975773E+02  0.31886064043E+02  0.00000000000E+00 0. -1.
         11    1    3    3    0    0  0.18760818017E+02 -0.95810549901E+01  0.16463812022E+01  0.21129966368E+02  0.51100000000E-03 0. -1.
        -11    1    3    3    0    0 -0.36031629296E+00 -0.12620406717E+01  0.41124438539E+01  0.43168008062E+01  0.51100000000E-03 0.  1.
         12    1    3    3    0    0 -0.12578436476E+02  0.20045547919E+02  0.24210150717E+02  0.33855168783E+02  0.00000000000E+00 0. -1.
</event>
<event>
 7    1  0.3223600E-013  0.5930193E+02  0.7816164E-02  0.1266605E+00
        -11   -1    0    0    0    0  0.00000000000E+00  0.00000000000E+00  0.45593999997E+02  0.45594000000E+02  0.51100000000E-03 0. -1.
         11   -1    0    0    0    0 -0.00000000000E+00 -0.00000000000E+00 -0.45593999997E+02  0.45594000000E+02  0.51100000000E-03 0.  1.
    9900012    2    1    2    0    0 -0.27888290559E+02 -0.13791924643E+02 -0.69819305934E+01  0.59301932659E+02  0.49999979267E+02 0.  0.
         12    1    1    2    0    0  0.27888290559E+02  0.13791924643E+02  0.69819305934E+01  0.31886067341E+02  0.00000000000E+00 0. -1.
         11    1    3    3    0    0 -0.57314417638E+00  0.53517685010E+01  0.24660044639E+01  0.59203968290E+01  0.51100000000E-03 0. -1.
        -11    1    3    3    0    0 -0.29464920828E+02 -0.78474883564E+01 -0.21045516949E+02  0.37049674990E+02  0.51100000000E-03 0.  1.
         12    1    3    3    0    0  0.21497744459E+01 -0.11296204788E+02  0.11597581892E+02  0.16331860840E+02  0.00000000000E+00 0. -1.
</event>
<event>
 7    1  0.3223600E-013  0.5930201E+02  0.7816164E-02  0.1266605E+00
        -11   -1    0    0    0    0  0.00000000000E+00  0.00000000000E+00  0.45593999997E+02  0.45594000000E+02  0.51100000000E-03 0.  1.
         11   -1    0    0    0    0 -0.00000000000E+00 -0.00000000000E+00 -0.45593999997E+02  0.45594000000E+02  0.51100000000E-03 0. -1.
    9900012    2    1    2    0    0  0.95192617475E+01  0.29380042855E+02  0.79317764543E+01  0.59302010285E+02  0.50000120837E+02 0.  0.
         12    1    1    2    0    0 -0.95192617475E+01 -0.29380042855E+02 -0.79317764543E+01  0.31885989715E+02  0.00000000000E+00 0. -1.
         11    1    3    3    0    0  0.37769185898E+01 -0.53591143865E+01  0.78816057107E+01  0.10252069541E+02  0.51100000000E-03 0. -1.
        -11    1    3    3    0    0  0.71922023862E+01  0.27390020491E+02  0.15206827566E+02  0.32143251275E+02  0.51100000000E-03 0.  1.
         12    1    3    3    0    0 -0.14498592284E+01  0.73491367503E+01 -0.15156656822E+02  0.16906689468E+02  0.00000000000E+00 0. -1.
</event>
<event>
 7    1  0.3223600E-013  0.5930198E+02  0.7816164E-02  0.1266605E+00
        -11   -1    0    0    0    0  0.00000000000E+00  0.00000000000E+00  0.45593999997E+02  0.45594000000E+02  0.51100000000E-03 0. -1.
         11   -1    0    0    0    0 -0.00000000000E+00 -0.00000000000E+00 -0.45593999997E+02  0.45594000000E+02  0.51100000000E-03 0.  1.
    9900012    2    1    2    0    0  0.68606393484E+01 -0.69444694367E+01 -0.30354969849E+02  0.59301980766E+02  0.50000067002E+02 0.  0.
         12    1    1    2    0    0 -0.68606393484E+01  0.69444694367E+01  0.30354969849E+02  0.31886019234E+02  0.00000000000E+00 0. -1.
         11    1    3    3    0    0  0.54642769967E+01 -0.39537565816E+01  0.42277355887E+01  0.79601672516E+01  0.51100000000E-03 0. -1.
        -11    1    3    3    0    0 -0.13943182358E+02 -0.11008540711E+02 -0.76846269409E+01  0.19355975675E+02  0.51100000000E-03 0.  1.
         12    1    3    3    0    0  0.15339544710E+02  0.80178278564E+01 -0.26898078497E+02  0.31985837839E+02  0.00000000000E+00 0. -1.
</event>
<event>
 7    1  0.3223600E-013  0.5930194E+02  0.7816164E-02  0.1266605E+00
        -11   -1    0    0    0    0  0.00000000000E+00  0.00000000000E+00  0.45593999997E+02  0.45594000000E+02  0.51100000000E-03 0.  1.
         11   -1    0    0    0    0 -0.00000000000E+00 -0.00000000000E+00 -0.45593999997E+02  0.45594000000E+02  0.51100000000E-03 0. -1.
    9900012    2    1    2    0    0  0.26003932986E+02 -0.88224408638E+00  0.18431985182E+02  0.59301937793E+02  0.49999988628E+02 0.  0.
         12    1    1    2    0    0 -0.26003932986E+02  0.88224408638E+00 -0.18431985182E+02  0.31886062207E+02  0.00000000000E+00 0. -1.
         11    1    3    3    0    0  0.15660866739E+02 -0.34475883426E+01 -0.13259890351E+02  0.20808010592E+02  0.51100000000E-03 0. -1.
        -11    1    3    3    0    0  0.26237210223E+00 -0.41161005749E+01 -0.45301754682E+00  0.41492587556E+01  0.51100000000E-03 0.  1.
        -12    1    3    3    0    0  0.10080694144E+02  0.66814448310E+01  0.32144893080E+02  0.34344668445E+02  0.00000000000E+00 0.  1.
</event>
<event>
 7    1  0.3223600E-013  0.5930195E+02  0.7816164E-02  0.1266605E+00
        -11   -1    0    0    0    0  0.00000000000E+00  0.00000000000E+00  0.45593999997E+02  0.45594000000E+02  0.51100000000E-03 0.  1.
         11   -1    0    0    0    0 -0.00000000000E+00 -0.00000000000E+00 -0.45593999997E+02  0.45594000000E+02  0.51100000000E-03 0. -1.
    9900012    2    1    2    0    0  0.16161227556E+02 -0.10593180188E+02  0.25363746391E+02  0.59301947036E+02  0.50000005487E+02 0.  0.
         12    1    1    2    0    0 -0.16161227556E+02  0.10593180188E+02 -0.25363746391E+02  0.31886052964E+02  0.00000000000E+00 0. -1.
         11    1    3    3    0    0 -0.97797334982E+01 -0.18094413305E+01 -0.84253822475E+01  0.13034735575E+02  0.51100000000E-03 0. -1.
        -11    1    3    3    0    0  0.53775119486E+01  0.69980452030E+00  0.17637454912E+02  0.18452294631E+02  0.51100000000E-03 0.  1.
        -12    1    3    3    0    0  0.20563449105E+02 -0.94835433778E+01  0.16151673727E+02  0.27814916830E+02  0.00000000000E+00 0.  1.
</event>
<event>
 7    1  0.3223600E-013  0.5930195E+02  0.7816164E-02  0.1266605E+00
        -11   -1    0    0    0    0  0.00000000000E+00  0.00000000000E+00  0.45593999997E+02  0.45594000000E+02  0.51100000000E-03 0. -1.
         11   -1    0    0    0    0 -0.00000000000E+00 -0.00000000000E+00 -0.45593999997E+02  0.45594000000E+02  0.51100000000E-03 0.  1.
    9900012    2    1    2    0    0 -0.17496068883E+02  0.11889540305E+02 -0.23858885293E+02  0.59301952857E+02  0.50000016102E+02 0.  0.
         12    1    1    2    0    0  0.17496068883E+02 -0.11889540305E+02  0.23858885293E+02  0.31886047143E+02  0.00000000000E+00 0. -1.
         11    1    3    3    0    0 -0.97990916857E+01  0.26512160476E+02 -0.72012509090E+01  0.29168045288E+02  0.51100000000E-03 0. -1.
        -11    1    3    3    0    0  0.63076791365E+01 -0.35685650693E+01 -0.42399135167E+01  0.83963289379E+01  0.51100000000E-03 0.  1.
        -12    1    3    3    0    0 -0.14004656333E+02 -0.11054055102E+02 -0.12417720867E+02  0.21737578631E+02  0.00000000000E+00 0.  1.
</event>
<event>
 7    1  0.3223600E-013  0.5930196E+02  0.7816164E-02  0.1266605E+00
        -11   -1    0    0    0    0  0.00000000000E+00  0.00000000000E+00  0.45593999997E+02  0.45594000000E+02  0.51100000000E-03 0. -1.
         11   -1    0    0    0    0 -0.00000000000E+00 -0.00000000000E+00 -0.45593999997E+02  0.45594000000E+02  0.51100000000E-03 0.  1.
    9900012    2    1    2    0    0  0.18185123888E+00  0.20637767699E+02 -0.24305740256E+02  0.59301960188E+02  0.50000029473E+02 0.  0.
         12    1    1    2    0    0 -0.18185123888E+00 -0.20637767699E+02  0.24305740256E+02  0.31886039812E+02  0.00000000000E+00 0. -1.
         11    1    3    3    0    0 -0.31485833100E+01  0.14262068544E+02 -0.18192190233E+02  0.23329722710E+02  0.51100000000E-03 0. -1.
        -11    1    3    3    0    0 -0.48417513487E+01  0.19390110355E+02 -0.47652628832E+01  0.20545721363E+02  0.51100000000E-03 0.  1.
         12    1    3    3    0    0  0.81721858976E+01 -0.13014411200E+02 -0.13482871401E+01  0.15426516115E+02  0.00000000000E+00 0. -1.
</event>
<event>
 7    1  0.3223600E-013  0.5930194E+02  0.7816164E-02  0.1266605E+00
        -11   -1    0    0    0    0  0.00000000000E+00  0.00000000000E+00  0.45593999997E+02  0.45594000000E+02  0.51100000000E-03 0.  1.
         11   -1    0    0    0    0 -0.00000000000E+00 -0.00000000000E+00 -0.45593999997E+02  0.45594000000E+02  0.51100000000E-03 0. -1.
    9900012    2    1    2    0    0  0.52369903549E+01  0.17913795250E+02  0.25853258265E+02  0.59301935784E+02  0.49999984966E+02 0.  0.
         12    1    1    2    0    0 -0.52369903549E+01 -0.17913795250E+02 -0.25853258265E+02  0.31886064216E+02  0.00000000000E+00 0. -1.
         11    1    3    3    0    0 -0.44900804419E+01  0.52629782315E+01 -0.35142422618E+01  0.77594884610E+01  0.51100000000E-03 0. -1.
        -11    1    3    3    0    0  0.20503941538E+02  0.16053782463E+02  0.77845577736E+01  0.27179677886E+02  0.51100000000E-03 0.  1.
         12    1    3    3    0    0 -0.10776870741E+02 -0.34029654445E+01  0.21582942753E+02  0.24362769438E+02  0.00000000000E+00 0. -1.
</event>
<event>
 7    1  0.3223600E-013  0.5930181E+02  0.7816164E-02  0.1266605E+00
        -11   -1    0    0    0    0  0.00000000000E+00  0.00000000000E+00  0.45593999997E+02  0.45594000000E+02  0.51100000000E-03 0. -1.
         11   -1    0    0    0    0 -0.00000000000E+00 -0.00000000000E+00 -0.45593999997E+02  0.45594000000E+02  0.51100000000E-03 0.  1.
    9900012    2    1    2    0    0  0.52512115587E+01 -0.11047875467E+02 -0.29446538767E+02  0.59301805174E+02  0.49999746763E+02 0.  0.
         12    1    1    2    0    0 -0.52512115587E+01  0.11047875467E+02  0.29446538767E+02  0.31886194826E+02  0.00000000000E+00 0. -1.
         11    1    3    3    0    0 -0.34851980853E+01  0.90427332533E+01 -0.54038302967E+01  0.11095900708E+02  0.51100000000E-03 0. -1.
        -11    1    3    3    0    0  0.37324273989E+01 -0.13695051778E+02 -0.33115680882E+02  0.36029623617E+02  0.51100000000E-03 0.  1.
         12    1    3    3    0    0  0.50039822451E+01 -0.63955569424E+01  0.90729724120E+01  0.12176280848E+02  0.00000000000E+00 0. -1.
</event>
<event>
 7    1  0.3223600E-013  0.5930193E+02  0.7816164E-02  0.1266605E+00
        -11   -1    0    0    0    0  0.00000000000E+00  0.00000000000E+00  0.45593999997E+02  0.45594000000E+02  0.51100000000E-03 0.  1.
         11   -1    0    0    0    0 -0.00000000000E+00 -0.00000000000E+00 -0.45593999997E+02  0.45594000000E+02  0.51100000000E-03 0. -1.
    9900012    2    1    2    0    0 -0.73553243006E+01  0.94638516102E+01  0.29547520005E+02  0.59301933743E+02  0.49999981244E+02 0.  0.
         12    1    1    2    0    0  0.73553243006E+01 -0.94638516102E+01 -0.29547520005E+02  0.31886066257E+02  0.00000000000E+00 0. -1.
         11    1    3    3    0    0 -0.49288647567E+01  0.20276257165E+00 -0.62834930699E+01  0.79885609386E+01  0.51100000000E-03 0. -1.
        -11    1    3    3    0    0 -0.11328709582E+02 -0.65148053792E+01  0.23953093648E+01  0.13286077568E+02  0.51100000000E-03 0.  1.
         12    1    3    3    0    0  0.89022500380E+01  0.15775894418E+02  0.33435703710E+02  0.38027295237E+02  0.00000000000E+00 0. -1.
</event>
<event>
 7    1  0.3223600E-013  0.5930196E+02  0.7816164E-02  0.1266605E+00
        -11   -1    0    0    0    0  0.00000000000E+00  0.00000000000E+00  0.45593999997E+02  0.45594000000E+02  0.51100000000E-03 0.  1.
         11   -1    0    0    0    0 -0.00000000000E+00 -0.00000000000E+00 -0.45593999997E+02  0.45594000000E+02  0.51100000000E-03 0. -1.
    9900012    2    1    2    0    0  0.22617189782E+02  0.61637594737E+00  0.22467801006E+02  0.59301964264E+02  0.50000036906E+02 0.  0.
         12    1    1    2    0    0 -0.22617189782E+02 -0.61637594737E+00 -0.22467801006E+02  0.31886035736E+02  0.00000000000E+00 0. -1.
         11    1    3    3    0    0  0.93656534130E+01 -0.33609499371E+01  0.80211957663E+01  0.12780885342E+02  0.51100000000E-03 0. -1.
        -11    1    3    3    0    0 -0.97918878875E+01  0.11866165719E+02  0.15895883359E+02  0.22121619861E+02  0.51100000000E-03 0.  1.
         12    1    3    3    0    0  0.23043424256E+02 -0.78888398342E+01 -0.14492781198E+01  0.24399459061E+02  0.00000000000E+00 0. -1.
</event>
<event>
 7    1  0.3223600E-013  0.5930196E+02  0.7816164E-02  0.1266605E+00
        -11   -1    0    0    0    0  0.00000000000E+00  0.00000000000E+00  0.45593999997E+02  0.45594000000E+02  0.51100000000E-03 0. -1.
         11   -1    0    0    0    0 -0.00000000000E+00 -0.00000000000E+00 -0.45593999997E+02  0.45594000000E+02  0.51100000000E-03 0.  1.
    9900012    2    1    2    0    0  0.22147410837E+02  0.19526292705E+02 -0.12038921298E+02  0.59301960114E+02  0.50000029338E+02 0.  0.
         12    1    1    2    0    0 -0.22147410837E+02 -0.19526292705E+02  0.12038921298E+02  0.31886039886E+02  0.00000000000E+00 0. -1.
         11    1    3    3    0    0  0.66307098178E+01  0.45253587168E+01  0.43140136475E+01  0.91135008759E+01  0.51100000000E-03 0. -1.
        -11    1    3    3    0    0  0.12950138048E+02 -0.60376992194E+01  0.91965622790E+01  0.16992252509E+02  0.51100000000E-03 0.  1.
        -12    1    3    3    0    0  0.25665629706E+01  0.21038633208E+02 -0.25549497225E+02  0.33196206729E+02  0.00000000000E+00 0.  1.
</event>
<event>
 7    1  0.3223600E-013  0.5930189E+02  0.7816164E-02  0.1266605E+00
        -11   -1    0    0    0    0  0.00000000000E+00  0.00000000000E+00  0.45593999997E+02  0.45594000000E+02  0.51100000000E-03 0. -1.
         11   -1    0    0    0    0 -0.00000000000E+00 -0.00000000000E+00 -0.45593999997E+02  0.45594000000E+02  0.51100000000E-03 0.  1.
    9900012    2    1    2    0    0 -0.33652211889E+01  0.31614402382E+02  0.24348727800E+01  0.59301893981E+02  0.49999908727E+02 0.  0.
         12    1    1    2    0    0  0.33652211889E+01 -0.31614402382E+02 -0.24348727800E+01  0.31886106019E+02  0.00000000000E+00 0. -1.
         11    1    3    3    0    0 -0.19819229140E+01  0.18107435139E+02  0.20960113294E+02  0.27769291948E+02  0.51100000000E-03 0. -1.
        -11    1    3    3    0    0  0.39974135442E+01  0.14079504120E+02 -0.27986588731E+01  0.14901149051E+02  0.51100000000E-03 0.  1.
         12    1    3    3    0    0 -0.53807118192E+01 -0.57253687691E+00 -0.15726581641E+02  0.16631452981E+02  0.00000000000E+00 0. -1.
</event>
<event>
 7    1  0.3223600E-013  0.5930190E+02  0.7816164E-02  0.1266605E+00
        -11   -1    0    0    0    0  0.00000000000E+00  0.00000000000E+00  0.45593999997E+02  0.45594000000E+02  0.51100000000E-03 0.  1.
         11   -1    0    0    0    0 -0.00000000000E+00 -0.00000000000E+00 -0.45593999997E+02  0.45594000000E+02  0.51100000000E-03 0. -1.
    9900012    2    1    2    0    0  0.13846332619E+02 -0.56560111652E+01  0.28160474026E+02  0.59301895085E+02  0.49999910740E+02 0.  0.
         12    1    1    2    0    0 -0.13846332619E+02  0.56560111652E+01 -0.28160474026E+02  0.31886104915E+02  0.00000000000E+00 0. -1.
         11    1    3    3    0    0  0.15759140898E+02  0.71924936139E+01  0.41472939305E+00  0.17327852924E+02  0.51100000000E-03 0. -1.
        -11    1    3    3    0    0 -0.59671056761E+01  0.80743310026E+01  0.70592582853E+01  0.12273316548E+02  0.51100000000E-03 0.  1.
        -12    1    3    3    0    0  0.40542973971E+01 -0.20922835782E+02  0.20686486348E+02  0.29700725613E+02  0.00000000000E+00 0.  1.
</event>
<event>
 7    1  0.3223600E-013  0.5930199E+02  0.7816164E-02  0.1266605E+00
        -11   -1    0    0    0    0  0.00000000000E+00  0.00000000000E+00  0.45593999997E+02  0.45594000000E+02  0.51100000000E-03 0.  1.
         11   -1    0    0    0    0 -0.00000000000E+00 -0.00000000000E+00 -0.45593999997E+02  0.45594000000E+02  0.51100000000E-03 0. -1.
    9900012    2    1    2    0    0 -0.26162990554E+01 -0.12728644461E+02  0.29117937799E+02  0.59301988769E+02  0.50000081598E+02 0.  0.
         12    1    1    2    0    0  0.26162990554E+01  0.12728644461E+02 -0.29117937799E+02  0.31886011231E+02  0.00000000000E+00 0. -1.
         11    1    3    3    0    0 -0.26895254403E+01  0.48288443573E+01 -0.53580390087E+01  0.76980430760E+01  0.51100000000E-03 0.  1.
        -11    1    3    3    0    0 -0.49267155453E+01 -0.17539882303E+02  0.15322979923E+01  0.18282995779E+02  0.51100000000E-03 0. -1.
        -12    1    3    3    0    0  0.49999419302E+01 -0.17606515623E-01  0.32943678815E+02  0.33320949914E+02  0.00000000000E+00 0.  1.
</event>
<event>
 7    1  0.3223600E-013  0.5930188E+02  0.7816164E-02  0.1266605E+00
        -11   -1    0    0    0    0  0.00000000000E+00  0.00000000000E+00  0.45593999997E+02  0.45594000000E+02  0.51100000000E-03 0.  1.
         11   -1    0    0    0    0 -0.00000000000E+00 -0.00000000000E+00 -0.45593999997E+02  0.45594000000E+02  0.51100000000E-03 0. -1.
    9900012    2    1    2    0    0  0.22971603364E+02 -0.66306422959E+01  0.21096563299E+02  0.59301875096E+02  0.49999874285E+02 0.  0.
         12    1    1    2    0    0 -0.22971603364E+02  0.66306422959E+01 -0.21096563299E+02  0.31886124904E+02  0.00000000000E+00 0. -1.
         11    1    3    3    0    0  0.18791559788E+01  0.11430200405E+02  0.83457769177E+01  0.14276999024E+02  0.51100000000E-03 0. -1.
        -11    1    3    3    0    0  0.97650832868E+01  0.25263544516E+01  0.18286554503E+02  0.20883902755E+02  0.51100000000E-03 0.  1.
         12    1    3    3    0    0  0.11327364098E+02 -0.20587197153E+02 -0.55357681215E+01  0.24140973318E+02  0.00000000000E+00 0. -1.
</event>
<event>
 7    1  0.3223600E-013  0.5930194E+02  0.7816164E-02  0.1266605E+00
        -11   -1    0    0    0    0  0.00000000000E+00  0.00000000000E+00  0.45593999997E+02  0.45594000000E+02  0.51100000000E-03 0.  1.
         11   -1    0    0    0    0 -0.00000000000E+00 -0.00000000000E+00 -0.45593999997E+02  0.45594000000E+02  0.51100000000E-03 0. -1.
    9900012    2    1    2    0    0 -0.43904096373E+01  0.61973499552E+01  0.30968335646E+02  0.59301942609E+02  0.49999997413E+02 0.  0.
         12    1    1    2    0    0  0.43904096373E+01 -0.61973499552E+01 -0.30968335646E+02  0.31886057391E+02  0.00000000000E+00 0. -1.
         11    1    3    3    0    0  0.14891151356E+02  0.10440962457E+02  0.79520907046E+01  0.19849328265E+02  0.51100000000E-03 0. -1.
        -11    1    3    3    0    0 -0.10098189232E+00 -0.87665080042E+01 -0.48736537095E+00  0.87806255583E+01  0.51100000000E-03 0.  1.
        -12    1    3    3    0    0 -0.19180579101E+02  0.45228955026E+01  0.23503610312E+02  0.30671988786E+02  0.00000000000E+00 0.  1.
</event>
<event>
 7    1  0.3223600E-013  0.5930195E+02  0.7816164E-02  0.1266605E+00
        -11   -1    0    0    0    0  0.00000000000E+00  0.00000000000E+00  0.45593999997E+02  0.45594000000E+02  0.51100000000E-03 0.  1.
         11   -1    0    0    0    0 -0.00000000000E+00 -0.00000000000E+00 -0.45593999997E+02  0.45594000000E+02  0.51100000000E-03 0. -1.
    9900012    2    1    2    0    0  0.49489814934E+01  0.22915174325E+02  0.21613023501E+02  0.59301946355E+02  0.50000004245E+02 0.  0.
         12    1    1    2    0    0 -0.49489814934E+01 -0.22915174325E+02 -0.21613023501E+02  0.31886053645E+02  0.00000000000E+00 0. -1.
         11    1    3    3    0    0  0.16720353891E+02 -0.76077771496E+01 -0.21644613343E+01  0.18496848395E+02  0.51100000000E-03 0. -1.
        -11    1    3    3    0    0  0.13447340461E+00  0.11799754773E+01  0.21554538235E+01  0.24609767715E+01  0.51100000000E-03 0.  1.
        -12    1    3    3    0    0 -0.11905845803E+02  0.29342975997E+02  0.21622031012E+02  0.38344121189E+02  0.00000000000E+00 0.  1.
</event>
<event>
 7    1  0.3223600E-013  0.5930194E+02  0.7816164E-02  0.1266605E+00
        -11   -1    0    0    0    0  0.00000000000E+00  0.00000000000E+00  0.45593999997E+02  0.45594000000E+02  0.51100000000E-03 0. -1.
         11   -1    0    0    0    0 -0.00000000000E+00 -0.00000000000E+00 -0.45593999997E+02  0.45594000000E+02  0.51100000000E-03 0.  1.
    9900012    2    1    2    0    0 -0.20530511417E+02  0.24391687715E+02  0.51399734315E+00  0.59301944711E+02  0.50000001247E+02 0.  0.
         12    1    1    2    0    0  0.20530511417E+02 -0.24391687715E+02 -0.51399734315E+00  0.31886055289E+02  0.00000000000E+00 0. -1.
         11    1    3    3    0    0  0.55185318607E+01  0.13292943232E+02  0.40301119136E+01  0.14946515847E+02  0.51100000000E-03 0. -1.
        -11    1    3    3    0    0  0.26653209345E+01  0.16223423015E+00  0.10318183245E+02  0.10658103085E+02  0.51100000000E-03 0.  1.
         12    1    3    3    0    0 -0.28714364212E+02  0.10936510252E+02 -0.13834297816E+02  0.33697325779E+02  0.00000000000E+00 0. -1.
</event>
<event>
 7    1  0.3223600E-013  0.5930204E+02  0.7816164E-02  0.1266604E+00
        -11   -1    0    0    0    0  0.00000000000E+00  0.00000000000E+00  0.45593999997E+02  0.45594000000E+02  0.51100000000E-03 0. -1.
         11   -1    0    0    0    0 -0.00000000000E+00 -0.00000000000E+00 -0.45593999997E+02  0.45594000000E+02  0.51100000000E-03 0.  1.
    9900012    2    1    2    0    0  0.20362706166E+02  0.12355148207E+02 -0.21199638212E+02  0.59302044629E+02  0.50000183471E+02 0.  0.
         12    1    1    2    0    0 -0.20362706166E+02 -0.12355148207E+02  0.21199638212E+02  0.31885955371E+02  0.00000000000E+00 0. -1.
         11    1    3    3    0    0 -0.12503975332E+01  0.34116375914E+01  0.27553559952E+01  0.45601263105E+01  0.51100000000E-03 0. -1.
        -11    1    3    3    0    0  0.25713452348E+02  0.13970536214E+02  0.67556188480E+00  0.29271383601E+02  0.51100000000E-03 0.  1.
        -12    1    3    3    0    0 -0.41003486486E+01 -0.50270255983E+01 -0.24630556092E+02  0.25470534717E+02  0.00000000000E+00 0.  1.
</event>
<event>
 7    1  0.3223600E-013  0.5930195E+02  0.7816164E-02  0.1266605E+00
        -11   -1    0    0    0    0  0.00000000000E+00  0.00000000000E+00  0.45593999997E+02  0.45594000000E+02  0.51100000000E-03 0.  1.
         11   -1    0    0    0    0 -0.00000000000E+00 -0.00000000000E+00 -0.45593999997E+02  0.45594000000E+02  0.51100000000E-03 0. -1.
    9900012    2    1    2    0    0  0.40017950942E+01  0.22833961310E+02 -0.21893284892E+02  0.59301951696E+02  0.50000013985E+02 0.  0.
         12    1    1    2    0    0 -0.40017950942E+01 -0.22833961310E+02  0.21893284892E+02  0.31886048304E+02  0.00000000000E+00 0. -1.
         11    1    3    3    0    0  0.72470483349E+01  0.80736421068E+01 -0.23373940210E+00  0.10851637702E+02  0.51100000000E-03 0. -1.
        -11    1    3    3    0    0  0.53486700565E+01  0.43333833940E+01  0.11073105177E+02  0.13038410238E+02  0.51100000000E-03 0.  1.
        -12    1    3    3    0    0 -0.85939232972E+01  0.10426935809E+02 -0.32732650667E+02  0.35411903757E+02  0.00000000000E+00 0.  1.
</event>
<event>
 7    1  0.3223600E-013  0.5930189E+02  0.7816164E-02  0.1266605E+00
        -11   -1    0    0    0    0  0.00000000000E+00  0.00000000000E+00  0.45593999997E+02  0.45594000000E+02  0.51100000000E-03 0.  1.
         11   -1    0    0    0    0 -0.00000000000E+00 -0.00000000000E+00 -0.45593999997E+02  0.45594000000E+02  0.51100000000E-03 0. -1.
    9900012    2    1    2    0    0  0.29203742021E+02  0.86564012305E+00 -0.12771683890E+02  0.59301893460E+02  0.49999907777E+02 0.  0.
         12    1    1    2    0    0 -0.29203742021E+02 -0.86564012305E+00  0.12771683890E+02  0.31886106540E+02  0.00000000000E+00 0. -1.
         11    1    3    3    0    0  0.14674212556E+02 -0.49375602774E+01 -0.23917034017E+01  0.15666277830E+02  0.51100000000E-03 0. -1.
        -11    1    3    3    0    0  0.28117660483E+02  0.61631041504E+01 -0.67381537879E+01  0.29563311732E+02  0.51100000000E-03 0.  1.
         12    1    3    3    0    0 -0.13588131018E+02 -0.35990374993E+00 -0.36418267008E+01  0.14072303898E+02  0.00000000000E+00 0. -1.
</event>
<event>
 7    1  0.3223600E-013  0.5930194E+02  0.7816164E-02  0.1266605E+00
        -11   -1    0    0    0    0  0.00000000000E+00  0.00000000000E+00  0.45593999997E+02  0.45594000000E+02  0.51100000000E-03 0.  1.
         11   -1    0    0    0    0 -0.00000000000E+00 -0.00000000000E+00 -0.45593999997E+02  0.45594000000E+02  0.51100000000E-03 0. -1.
    9900012    2    1    2    0    0 -0.90541987978E+01  0.23952925802E+02  0.18999982996E+02  0.59301944675E+02  0.50000001180E+02 0.  0.
         12    1    1    2    0    0  0.90541987978E+01 -0.23952925802E+02 -0.18999982996E+02  0.31886055325E+02  0.00000000000E+00 0. -1.
         11    1    3    3    0    0 -0.43782066082E+01  0.10624025418E+02  0.14214572012E+02  0.18278201961E+02  0.51100000000E-03 0.  1.
        -11    1    3    3    0    0 -0.26460182811E+01  0.14371783898E+02  0.20482771290E+02  0.25161349430E+02  0.51100000000E-03 0. -1.
         12    1    3    3    0    0 -0.20299739085E+01 -0.10428835130E+01 -0.15697360307E+02  0.15862393284E+02  0.00000000000E+00 0. -1.
</event>
<event>
 7    1  0.3223600E-013  0.5930195E+02  0.7816164E-02  0.1266605E+00
        -11   -1    0    0    0    0  0.00000000000E+00  0.00000000000E+00  0.45593999997E+02  0.45594000000E+02  0.51100000000E-03 0.  1.
         11   -1    0    0    0    0 -0.00000000000E+00 -0.00000000000E+00 -0.45593999997E+02  0.45594000000E+02  0.51100000000E-03 0. -1.
    9900012    2    1    2    0    0  0.15393488247E+02 -0.23402515361E+02  0.15234278178E+02  0.59301946038E+02  0.50000003667E+02 0.  0.
         12    1    1    2    0    0 -0.15393488247E+02  0.23402515361E+02 -0.15234278178E+02  0.31886053962E+02  0.00000000000E+00 0. -1.
         11    1    3    3    0    0  0.24664820274E+02 -0.79942010063E+01 -0.32518106712E+01  0.26131109463E+02  0.51100000000E-03 0. -1.
        -11    1    3    3    0    0  0.43978861584E+01 -0.70700682294E+01  0.14419523577E+02  0.16650823640E+02  0.51100000000E-03 0.  1.
         12    1    3    3    0    0 -0.13669218186E+02 -0.83382461257E+01  0.40665652718E+01  0.16520012935E+02  0.00000000000E+00 0. -1.
</event>
<event>
 7    1  0.3223600E-013  0.5930196E+02  0.7816164E-02  0.1266605E+00
        -11   -1    0    0    0    0  0.00000000000E+00  0.00000000000E+00  0.45593999997E+02  0.45594000000E+02  0.51100000000E-03 0.  1.
         11   -1    0    0    0    0 -0.00000000000E+00 -0.00000000000E+00 -0.45593999997E+02  0.45594000000E+02  0.51100000000E-03 0. -1.
    9900012    2    1    2    0    0  0.13945744517E+02  0.16693511258E+01  0.28626023067E+02  0.59301957286E+02  0.50000024180E+02 0.  0.
         12    1    1    2    0    0 -0.13945744517E+02 -0.16693511258E+01 -0.28626023067E+02  0.31886042714E+02  0.00000000000E+00 0. -1.
         11    1    3    3    0    0 -0.35509777925E+01 -0.15728389902E+01  0.13491990355E+02  0.14039838666E+02  0.51100000000E-03 0. -1.
        -11    1    3    3    0    0  0.16936633412E+02 -0.75687704153E+01 -0.76272013167E+01  0.20057667788E+02  0.51100000000E-03 0.  1.
         12    1    3    3    0    0  0.56008889756E+00  0.10810960531E+02  0.22761234029E+02  0.25204450831E+02  0.00000000000E+00 0. -1.
</event>
<event>
 7    1  0.3223600E-013  0.5930194E+02  0.7816164E-02  0.1266605E+00
        -11   -1    0    0    0    0  0.00000000000E+00  0.00000000000E+00  0.45593999997E+02  0.45594000000E+02  0.51100000000E-03 0.  1.
         11   -1    0    0    0    0 -0.00000000000E+00 -0.00000000000E+00 -0.45593999997E+02  0.45594000000E+02  0.51100000000E-03 0. -1.
    9900012    2    1    2    0    0 -0.84787261083E+01  0.20861762582E+02  0.22574742380E+02  0.59301938343E+02  0.49999989633E+02 0.  0.
         12    1    1    2    0    0  0.84787261083E+01 -0.20861762582E+02 -0.22574742380E+02  0.31886061657E+02  0.00000000000E+00 0. -1.
         11    1    3    3    0    0 -0.19964006794E+01  0.47648827623E+01 -0.28974008915E+01  0.59232301659E+01  0.51100000000E-03 0. -1.
        -11    1    3    3    0    0  0.16601402323E+02  0.88928364201E+01  0.82701462871E+00  0.18851340858E+02  0.51100000000E-03 0.  1.
        -12    1    3    3    0    0 -0.23083727752E+02  0.72040433994E+01  0.24645128643E+02  0.34527367320E+02  0.00000000000E+00 0.  1.
</event>
<event>
 7    1  0.3223600E-013  0.5930194E+02  0.7816164E-02  0.1266605E+00
        -11   -1    0    0    0    0  0.00000000000E+00  0.00000000000E+00  0.45593999997E+02  0.45594000000E+02  0.51100000000E-03 0.  1.
         11   -1    0    0    0    0 -0.00000000000E+00 -0.00000000000E+00 -0.45593999997E+02  0.45594000000E+02  0.51100000000E-03 0. -1.
    9900012    2    1    2    0    0 -0.15446678063E+02  0.21796744006E+02  0.17407548968E+02  0.59301942333E+02  0.49999996909E+02 0.  0.
         12    1    1    2    0    0  0.15446678063E+02 -0.21796744006E+02 -0.17407548968E+02  0.31886057667E+02  0.00000000000E+00 0. -1.
         11    1    3    3    0    0 -0.41332871948E+01  0.26301159957E+02  0.74679106108E+01  0.27651487614E+02  0.51100000000E-03 0. -1.
        -11    1    3    3    0    0  0.94560888622E-01 -0.41376081802E+01  0.17484937882E+02  0.17968077143E+02  0.51100000000E-03 0.  1.
         12    1    3    3    0    0 -0.11407951757E+02 -0.36680777102E+00 -0.75452995241E+01  0.13682377576E+02  0.00000000000E+00 0. -1.
</event>
<event>
 7    1  0.3223600E-013  0.5930195E+02  0.7816164E-02  0.1266605E+00
        -11   -1    0    0    0    0  0.00000000000E+00  0.00000000000E+00  0.45593999997E+02  0.45594000000E+02  0.51100000000E-03 0. -1.
         11   -1    0    0    0    0 -0.00000000000E+00 -0.00000000000E+00 -0.45593999997E+02  0.45594000000E+02  0.51100000000E-03 0.  1.
    9900012    2    1    2    0    0 -0.10851016637E+02 -0.10059675616E+02 -0.28244968784E+02  0.59301954507E+02  0.50000019112E+02 0.  0.
         12    1    1    2    0    0  0.10851016637E+02  0.10059675616E+02  0.28244968784E+02  0.31886045493E+02  0.00000000000E+00 0. -1.
         11    1    3    3    0    0  0.27473577690E+01 -0.29827722118E+01 -0.18176569746E+02  0.18623442023E+02  0.51100000000E-03 0.  1.
        -11    1    3    3    0    0  0.21146333842E+01 -0.11966557358E+02  0.92713851842E+01  0.15284919131E+02  0.51100000000E-03 0. -1.
         12    1    3    3    0    0 -0.15713007790E+02  0.48896539543E+01 -0.19339784222E+02  0.25393593353E+02  0.00000000000E+00 0. -1.
</event>
<event>
 7    1  0.3223600E-013  0.5930207E+02  0.7816164E-02  0.1266604E+00
        -11   -1    0    0    0    0  0.00000000000E+00  0.00000000000E+00  0.45593999997E+02  0.45594000000E+02  0.51100000000E-03 0. -1.
         11   -1    0    0    0    0 -0.00000000000E+00 -0.00000000000E+00 -0.45593999997E+02  0.45594000000E+02  0.51100000000E-03 0.  1.
    9900012    2    1    2    0    0 -0.27831282925E+02  0.51026007038E+01 -0.14700197377E+02  0.59302068210E+02  0.50000226479E+02 0.  0.
         12    1    1    2    0    0  0.27831282925E+02 -0.51026007038E+01  0.14700197377E+02  0.31885931790E+02  0.00000000000E+00 0. -1.
         11    1    3    3    0    0 -0.12741937131E+02  0.75615044023E+01 -0.22841635280E+02  0.27226340430E+02  0.51100000000E-03 0. -1.
        -11    1    3    3    0    0 -0.84044898007E+01  0.87698360318E+01 -0.53679772716E+01  0.13280084830E+02  0.51100000000E-03 0.  1.
         12    1    3    3    0    0 -0.66848559933E+01 -0.11228739730E+02  0.13509415175E+02  0.18795642951E+02  0.00000000000E+00 0. -1.
</event>
<event>
 7    1  0.3223600E-013  0.5930195E+02  0.7816164E-02  0.1266605E+00
        -11   -1    0    0    0    0  0.00000000000E+00  0.00000000000E+00  0.45593999997E+02  0.45594000000E+02  0.51100000000E-03 0.  1.
         11   -1    0    0    0    0 -0.00000000000E+00 -0.00000000000E+00 -0.45593999997E+02  0.45594000000E+02  0.51100000000E-03 0. -1.
    9900012    2    1    2    0    0  0.73436712804E+01  0.15456977840E+02  0.26904880528E+02  0.59301948692E+02  0.50000008506E+02 0.  0.
         12    1    1    2    0    0 -0.73436712804E+01 -0.15456977840E+02 -0.26904880528E+02  0.31886051308E+02  0.00000000000E+00 0. -1.
         11    1    3    3    0    0  0.38668173727E+01 -0.81491371621E+01  0.11407762894E+02  0.14542962820E+02  0.51100000000E-03 0. -1.
        -11    1    3    3    0    0  0.12089023287E+02  0.27918005544E+01  0.18247506478E+02  0.22066040136E+02  0.51100000000E-03 0.  1.
         12    1    3    3    0    0 -0.86121693794E+01  0.20814314448E+02 -0.27503888446E+01  0.22692945735E+02  0.00000000000E+00 0. -1.
</event>
<event>
 7    1  0.3223600E-013  0.5930194E+02  0.7816164E-02  0.1266605E+00
        -11   -1    0    0    0    0  0.00000000000E+00  0.00000000000E+00  0.45593999997E+02  0.45594000000E+02  0.51100000000E-03 0.  1.
         11   -1    0    0    0    0 -0.00000000000E+00 -0.00000000000E+00 -0.45593999997E+02  0.45594000000E+02  0.51100000000E-03 0. -1.
    9900012    2    1    2    0    0  0.13028289502E+02 -0.34676524501E+01  0.28895672908E+02  0.59301939508E+02  0.49999991758E+02 0.  0.
         12    1    1    2    0    0 -0.13028289502E+02  0.34676524501E+01 -0.28895672908E+02  0.31886060492E+02  0.00000000000E+00 0. -1.
         11    1    3    3    0    0  0.16755921389E+02 -0.56724170835E+01 -0.50461871828E+01  0.18395684888E+02  0.51100000000E-03 0. -1.
        -11    1    3    3    0    0  0.63150068867E+01 -0.65007256981E+01  0.98041050553E+01  0.13351375314E+02  0.51100000000E-03 0.  1.
         12    1    3    3    0    0 -0.10042638773E+02  0.87054903316E+01  0.24137755036E+02  0.27554879307E+02  0.00000000000E+00 0. -1.
</event>
<event>
 7    1  0.3223600E-013  0.5930192E+02  0.7816164E-02  0.1266605E+00
        -11   -1    0    0    0    0  0.00000000000E+00  0.00000000000E+00  0.45593999997E+02  0.45594000000E+02  0.51100000000E-03 0. -1.
         11   -1    0    0    0    0 -0.00000000000E+00 -0.00000000000E+00 -0.45593999997E+02  0.45594000000E+02  0.51100000000E-03 0.  1.
    9900012    2    1    2    0    0 -0.32063040018E+01 -0.26638931848E+02 -0.17228139943E+02  0.59301923395E+02  0.49999962371E+02 0.  0.
         12    1    1    2    0    0  0.32063040018E+01  0.26638931848E+02  0.17228139943E+02  0.31886076605E+02  0.00000000000E+00 0. -1.
         11    1    3    3    0    0  0.51992225550E+01  0.36478193754E+01 -0.10678642998E+02  0.12424649609E+02  0.51100000000E-03 0. -1.
        -11    1    3    3    0    0 -0.18782571414E+02 -0.21256425036E+02 -0.13557157526E+02  0.31439101684E+02  0.51100000000E-03 0.  1.
        -12    1    3    3    0    0  0.10377044857E+02 -0.90303261876E+01  0.70076605818E+01  0.15438172102E+02  0.00000000000E+00 0.  1.
</event>
<event>
 7    1  0.3223600E-013  0.5930194E+02  0.7816164E-02  0.1266605E+00
        -11   -1    0    0    0    0  0.00000000000E+00  0.00000000000E+00  0.45593999997E+02  0.45594000000E+02  0.51100000000E-03 0.  1.
         11   -1    0    0    0    0 -0.00000000000E+00 -0.00000000000E+00 -0.45593999997E+02  0.45594000000E+02  0.51100000000E-03 0. -1.
    9900012    2    1    2    0    0  0.60620962942E+01  0.34280073876E+01  0.31116242165E+02  0.59301940780E+02  0.49999994077E+02 0.  0.
         12    1    1    2    0    0 -0.60620962942E+01 -0.34280073876E+01 -0.31116242165E+02  0.31886059220E+02  0.00000000000E+00 0. -1.
         11    1    3    3    0    0  0.22544724865E+02  0.80956637320E+01  0.16354988973E+02  0.29005000519E+02  0.51100000000E-03 0. -1.
        -11    1    3    3    0    0  0.19192528032E+01 -0.73965593314E+01  0.60936424631E+01  0.97736942859E+01  0.51100000000E-03 0.  1.
         12    1    3    3    0    0 -0.18401881374E+02  0.27289029869E+01  0.86676107286E+01  0.20523245975E+02  0.00000000000E+00 0. -1.
</event>
<event>
 7    1  0.3223600E-013  0.5930195E+02  0.7816164E-02  0.1266605E+00
        -11   -1    0    0    0    0  0.00000000000E+00  0.00000000000E+00  0.45593999997E+02  0.45594000000E+02  0.51100000000E-03 0. -1.
         11   -1    0    0    0    0 -0.00000000000E+00 -0.00000000000E+00 -0.45593999997E+02  0.45594000000E+02  0.51100000000E-03 0.  1.
    9900012    2    1    2    0    0  0.16048966070E+02  0.12740431368E+02 -0.24430144744E+02  0.59301954846E+02  0.50000019730E+02 0.  0.
         12    1    1    2    0    0 -0.16048966070E+02 -0.12740431368E+02  0.24430144744E+02  0.31886045154E+02  0.00000000000E+00 0. -1.
         11    1    3    3    0    0  0.37466309739E+01 -0.16143554100E+01  0.23914117076E+00  0.40866337987E+01  0.51100000000E-03 0.  1.
        -11    1    3    3    0    0 -0.51861583825E+01 -0.14544248275E+02 -0.99466394239E+01  0.18367553804E+02  0.51100000000E-03 0. -1.
        -12    1    3    3    0    0  0.17488493478E+02  0.28899035053E+02 -0.14722646491E+02  0.36847767243E+02  0.00000000000E+00 0.  1.
</event>
<event>
 7    1  0.3223600E-013  0.5930194E+02  0.7816164E-02  0.1266605E+00
        -11   -1    0    0    0    0  0.00000000000E+00  0.00000000000E+00  0.45593999997E+02  0.45594000000E+02  0.51100000000E-03 0. -1.
         11   -1    0    0    0    0 -0.00000000000E+00 -0.00000000000E+00 -0.45593999997E+02  0.45594000000E+02  0.51100000000E-03 0.  1.
    9900012    2    1    2    0    0 -0.10271745431E+02  0.40692570767E+01 -0.29910753874E+02  0.59301940277E+02  0.49999993159E+02 0.  0.
         12    1    1    2    0    0  0.10271745431E+02 -0.40692570767E+01  0.29910753874E+02  0.31886059723E+02  0.00000000000E+00 0. -1.
         11    1    3    3    0    0 -0.15311197876E+02 -0.25615548349E+01 -0.34897847310E+02  0.38194948498E+02  0.51100000000E-03 0.  1.
        -11    1    3    3    0    0 -0.56175267363E+01  0.51077996077E+01 -0.25006915507E+01  0.79937276635E+01  0.51100000000E-03 0. -1.
        -12    1    3    3    0    0  0.10656979181E+02  0.15230123039E+01  0.74877849870E+01  0.13113264115E+02  0.00000000000E+00 0.  1.
</event>
<event>
 7    1  0.3223600E-013  0.5930190E+02  0.7816164E-02  0.1266605E+00
        -11   -1    0    0    0    0  0.00000000000E+00  0.00000000000E+00  0.45593999997E+02  0.45594000000E+02  0.51100000000E-03 0. -1.
         11   -1    0    0    0    0 -0.00000000000E+00 -0.00000000000E+00 -0.45593999997E+02  0.45594000000E+02  0.51100000000E-03 0.  1.
    9900012    2    1    2    0    0 -0.61585197515E+01  0.31225541825E+02  0.19394031544E+01  0.59301904090E+02  0.49999927162E+02 0.  0.
         12    1    1    2    0    0  0.61585197515E+01 -0.31225541825E+02 -0.19394031544E+01  0.31886095910E+02  0.00000000000E+00 0. -1.
         11    1    3    3    0    0  0.28940548634E+01  0.52172674178E+00  0.43506213772E+01  0.52512530861E+01  0.51100000000E-03 0. -1.
        -11    1    3    3    0    0 -0.10565953923E+02  0.34555042940E+02  0.12763187489E+02  0.38322178044E+02  0.51100000000E-03 0.  1.
        -12    1    3    3    0    0  0.15133793078E+01 -0.38512278566E+01 -0.15174405712E+02  0.15728472960E+02  0.00000000000E+00 0.  1.
</event>
<event>
 7    1  0.3223600E-013  0.5930193E+02  0.7816164E-02  0.1266605E+00
        -11   -1    0    0    0    0  0.00000000000E+00  0.00000000000E+00  0.45593999997E+02  0.45594000000E+02  0.51100000000E-03 0. -1.
         11   -1    0    0    0    0 -0.00000000000E+00 -0.00000000000E+00 -0.45593999997E+02  0.45594000000E+02  0.51100000000E-03 0.  1.
    9900012    2    1    2    0    0 -0.20891337891E+02  0.13638927771E+02 -0.19855808450E+02  0.59301929706E+02  0.49999973880E+02 0.  0.
         12    1    1    2    0    0  0.20891337891E+02 -0.13638927771E+02  0.19855808450E+02  0.31886070294E+02  0.00000000000E+00 0. -1.
         11    1    3    3    0    0  0.38907142058E+01 -0.64673604105E+00 -0.15244312810E+02  0.15746269331E+02  0.51100000000E-03 0. -1.
        -11    1    3    3    0    0 -0.14428010315E+02  0.17112642179E+01 -0.17528334918E+02  0.22767047066E+02  0.51100000000E-03 0.  1.
        -12    1    3    3    0    0 -0.10354041782E+02  0.12574399594E+02  0.12916839277E+02  0.20788613308E+02  0.00000000000E+00 0.  1.
</event>
<event>
 7    1  0.3223600E-013  0.5930194E+02  0.7816164E-02  0.1266605E+00
        -11   -1    0    0    0    0  0.00000000000E+00  0.00000000000E+00  0.45593999997E+02  0.45594000000E+02  0.51100000000E-03 0.  1.
         11   -1    0    0    0    0 -0.00000000000E+00 -0.00000000000E+00 -0.45593999997E+02  0.45594000000E+02  0.51100000000E-03 0. -1.
    9900012    2    1    2    0    0 -0.21868257414E+02 -0.38625520574E+01  0.22881884517E+02  0.59301943019E+02  0.49999998160E+02 0.  0.
         12    1    1    2    0    0  0.21868257414E+02  0.38625520574E+01 -0.22881884517E+02  0.31886056981E+02  0.00000000000E+00 0. -1.
         11    1    3    3    0    0 -0.17924677620E+02  0.32119376965E+01 -0.24483998044E+01  0.18374038026E+02  0.51100000000E-03 0. -1.
        -11    1    3    3    0    0 -0.12846235445E+02  0.73190140416E+01  0.84729706522E+01  0.17040685538E+02  0.51100000000E-03 0.  1.
        -12    1    3    3    0    0  0.89026556504E+01 -0.14393503796E+02  0.16857313669E+02  0.23887219455E+02  0.00000000000E+00 0.  1.
</event>
<event>
 7    1  0.3223600E-013  0.5930195E+02  0.7816164E-02  0.1266605E+00
        -11   -1    0    0    0    0  0.00000000000E+00  0.00000000000E+00  0.45593999997E+02  0.45594000000E+02  0.51100000000E-03 0. -1.
         11   -1    0    0    0    0 -0.00000000000E+00 -0.00000000000E+00 -0.45593999997E+02  0.45594000000E+02  0.51100000000E-03 0.  1.
    9900012    2    1    2    0    0  0.71570046232E+01 -0.27066011212E+02 -0.15262000999E+02  0.59301947365E+02  0.50000006087E+02 0.  0.
         12    1    1    2    0    0 -0.71570046232E+01  0.27066011212E+02  0.15262000999E+02  0.31886052635E+02  0.00000000000E+00 0. -1.
         11    1    3    3    0    0  0.25782983733E+01  0.93627712414E+00  0.87581211815E+01  0.91776317340E+01  0.51100000000E-03 0. -1.
        -11    1    3    3    0    0 -0.22253967798E+00 -0.22849421588E+02  0.22175002521E+01  0.22957850475E+02  0.51100000000E-03 0.  1.
         12    1    3    3    0    0  0.48012459278E+01 -0.51528667489E+01 -0.26237622433E+02  0.27166465157E+02  0.00000000000E+00 0. -1.
</event>
<event>
 7    1  0.3223600E-013  0.5930198E+02  0.7816164E-02  0.1266605E+00
        -11   -1    0    0    0    0  0.00000000000E+00  0.00000000000E+00  0.45593999997E+02  0.45594000000E+02  0.51100000000E-03 0. -1.
         11   -1    0    0    0    0 -0.00000000000E+00 -0.00000000000E+00 -0.45593999997E+02  0.45594000000E+02  0.51100000000E-03 0.  1.
    9900012    2    1    2    0    0 -0.19657238590E+01 -0.31788446469E+02  0.15326977348E+01  0.59301975451E+02  0.50000057308E+02 0.  0.
         12    1    1    2    0    0  0.19657238590E+01  0.31788446469E+02 -0.15326977348E+01  0.31886024549E+02  0.00000000000E+00 0. -1.
         11    1    3    3    0    0 -0.58150683679E+01 -0.35669633841E+02 -0.25196364814E+01  0.36228253708E+02  0.51100000000E-03 0. -1.
        -11    1    3    3    0    0  0.61590348648E+01 -0.18610416820E+01 -0.75524814397E+01  0.99215504215E+01  0.51100000000E-03 0.  1.
         12    1    3    3    0    0 -0.23096903559E+01  0.57422290541E+01  0.11604815656E+02  0.13152171321E+02  0.00000000000E+00 0. -1.
</event>
<event>
 7    1  0.3223600E-013  0.5930192E+02  0.7816164E-02  0.1266605E+00
        -11   -1    0    0    0    0  0.00000000000E+00  0.00000000000E+00  0.45593999997E+02  0.45594000000E+02  0.51100000000E-03 0.  1.
         11   -1    0    0    0    0 -0.00000000000E+00 -0.00000000000E+00 -0.45593999997E+02  0.45594000000E+02  0.51100000000E-03 0. -1.
    9900012    2    1    2    0    0 -0.59084309354E+01  0.29245660251E+02  0.11247406222E+02  0.59301916102E+02  0.49999949070E+02 0.  0.
         12    1    1    2    0    0  0.59084309354E+01 -0.29245660251E+02 -0.11247406222E+02  0.31886083898E+02  0.00000000000E+00 0. -1.
         11    1    3    3    0    0 -0.11400437128E+02  0.64196944853E+01  0.24331968926E+01  0.13308001029E+02  0.51100000000E-03 0. -1.
        -11    1    3    3    0    0  0.70207141642E-01  0.30171208470E+02  0.16204999090E+02  0.34247755333E+02  0.51100000000E-03 0.  1.
         12    1    3    3    0    0  0.54217990514E+01 -0.73452427048E+01 -0.73907897609E+01  0.11746159740E+02  0.00000000000E+00 0. -1.
</event>
<event>
 7    1  0.3223600E-013  0.5930195E+02  0.7816164E-02  0.1266605E+00
        -11   -1    0    0    0    0  0.00000000000E+00  0.00000000000E+00  0.45593999997E+02  0.45594000000E+02  0.51100000000E-03 0. -1.
         11   -1    0    0    0    0 -0.00000000000E+00 -0.00000000000E+00 -0.45593999997E+02  0.45594000000E+02  0.51100000000E-03 0.  1.
    9900012    2    1    2    0    0 -0.30647444778E+02  0.78996337419E+01 -0.38794547102E+01  0.59301948919E+02  0.50000008921E+02 0.  0.
         12    1    1    2    0    0  0.30647444778E+02 -0.78996337419E+01  0.38794547102E+01  0.31886051081E+02  0.00000000000E+00 0. -1.
         11    1    3    3    0    0  0.31981842332E+01  0.35823967858E+01 -0.69096430604E+01  0.84145776248E+01  0.51100000000E-03 0.  1.
        -11    1    3    3    0    0 -0.35185146496E+02  0.15794293550E+02 -0.11899453246E+01  0.38585881004E+02  0.51100000000E-03 0. -1.
         12    1    3    3    0    0  0.13395174851E+01 -0.11477056594E+02  0.42201336748E+01  0.12301490291E+02  0.00000000000E+00 0. -1.
</event>
<event>
 7    1  0.3223600E-013  0.5930196E+02  0.7816164E-02  0.1266605E+00
        -11   -1    0    0    0    0  0.00000000000E+00  0.00000000000E+00  0.45593999997E+02  0.45594000000E+02  0.51100000000E-03 0.  1.
         11   -1    0    0    0    0 -0.00000000000E+00 -0.00000000000E+00 -0.45593999997E+02  0.45594000000E+02  0.51100000000E-03 0. -1.
    9900012    2    1    2    0    0  0.13579129648E+02  0.22907933940E+02  0.17537200701E+02  0.59301959044E+02  0.50000027386E+02 0.  0.
         12    1    1    2    0    0 -0.13579129648E+02 -0.22907933940E+02 -0.17537200701E+02  0.31886040956E+02  0.00000000000E+00 0. -1.
         11    1    3    3    0    0  0.96296424599E+01  0.24625835258E+01 -0.13227719967E+02  0.16545903037E+02  0.51100000000E-03 0. -1.
        -11    1    3    3    0    0 -0.10871349642E+00 -0.55487534181E+00 -0.28542753200E+01  0.29097410766E+01  0.51100000000E-03 0.  1.
        -12    1    3    3    0    0  0.40582006844E+01  0.21000225756E+02  0.33619195988E+02  0.39846314930E+02  0.00000000000E+00 0.  1.
</event>
<event>
 7    1  0.3223600E-013  0.5930195E+02  0.7816164E-02  0.1266605E+00
        -11   -1    0    0    0    0  0.00000000000E+00  0.00000000000E+00  0.45593999997E+02  0.45594000000E+02  0.51100000000E-03 0. -1.
         11   -1    0    0    0    0 -0.00000000000E+00 -0.00000000000E+00 -0.45593999997E+02  0.45594000000E+02  0.51100000000E-03 0.  1.
    9900012    2    1    2    0    0 -0.13141002612E+01 -0.60403128402E+01 -0.31281112714E+02  0.59301948953E+02  0.50000008983E+02 0.  0.
         12    1    1    2    0    0  0.13141002612E+01  0.60403128402E+01  0.31281112714E+02  0.31886051047E+02  0.00000000000E+00 0. -1.
         11    1    3    3    0    0 -0.79260975078E+01 -0.77454554173E+01 -0.18647693669E+01  0.11237992097E+02  0.51100000000E-03 0. -1.
        -11    1    3    3    0    0 -0.14794456629E+02 -0.60689675968E+00 -0.19160840290E+02  0.24215327202E+02  0.51100000000E-03 0.  1.
        -12    1    3    3    0    0  0.21406453876E+02  0.23120393367E+01 -0.10255503057E+02  0.23848629654E+02  0.00000000000E+00 0.  1.
</event>
<event>
 7    1  0.3223600E-013  0.5930191E+02  0.7816164E-02  0.1266605E+00
        -11   -1    0    0    0    0  0.00000000000E+00  0.00000000000E+00  0.45593999997E+02  0.45594000000E+02  0.51100000000E-03 0.  1.
         11   -1    0    0    0    0 -0.00000000000E+00 -0.00000000000E+00 -0.45593999997E+02  0.45594000000E+02  0.51100000000E-03 0. -1.
    9900012    2    1    2    0    0  0.13216772453E+02 -0.66248947476E+01  0.28251550786E+02  0.59301914848E+02  0.49999946783E+02 0.  0.
         12    1    1    2    0    0 -0.13216772453E+02  0.66248947476E+01 -0.28251550786E+02  0.31886085152E+02  0.00000000000E+00 0. -1.
         11    1    3    3    0    0 -0.10374818235E+02  0.49448732824E+01  0.49071110756E+01  0.12496734156E+02  0.51100000000E-03 0. -1.
        -11    1    3    3    0    0  0.40031077481E+01 -0.68763123593E+01  0.25343638864E+02  0.26563293742E+02  0.51100000000E-03 0.  1.
         12    1    3    3    0    0  0.19588482940E+02 -0.46934556706E+01 -0.19991991532E+01  0.20241886950E+02  0.00000000000E+00 0. -1.
</event>
<event>
 7    1  0.3223600E-013  0.5930195E+02  0.7816164E-02  0.1266605E+00
        -11   -1    0    0    0    0  0.00000000000E+00  0.00000000000E+00  0.45593999997E+02  0.45594000000E+02  0.51100000000E-03 0.  1.
         11   -1    0    0    0    0 -0.00000000000E+00 -0.00000000000E+00 -0.45593999997E+02  0.45594000000E+02  0.51100000000E-03 0. -1.
    9900012    2    1    2    0    0 -0.20755882638E+02  0.23764680893E+02  0.45992916120E+01  0.59301949674E+02  0.50000010298E+02 0.  0.
         12    1    1    2    0    0  0.20755882638E+02 -0.23764680893E+02 -0.45992916120E+01  0.31886050326E+02  0.00000000000E+00 0. -1.
         11    1    3    3    0    0 -0.14273898391E+02  0.13422874421E+02  0.45303083943E+01  0.20110729162E+02  0.51100000000E-03 0. -1.
        -11    1    3    3    0    0 -0.18247934965E+02  0.38498279490E+01 -0.11112668402E+02  0.21709438155E+02  0.51100000000E-03 0.  1.
         12    1    3    3    0    0  0.11765950719E+02  0.64919785232E+01  0.11181651620E+02  0.17481782358E+02  0.00000000000E+00 0. -1.
</event>
<event>
 7    1  0.3223600E-013  0.5930195E+02  0.7816164E-02  0.1266605E+00
        -11   -1    0    0    0    0  0.00000000000E+00  0.00000000000E+00  0.45593999997E+02  0.45594000000E+02  0.51100000000E-03 0. -1.
         11   -1    0    0    0    0 -0.00000000000E+00 -0.00000000000E+00 -0.45593999997E+02  0.45594000000E+02  0.51100000000E-03 0.  1.
    9900012    2    1    2    0    0 -0.47151251749E+01  0.17571530384E+01 -0.31486510862E+02  0.59301947273E+02  0.50000005919E+02 0.  0.
         12    1    1    2    0    0  0.47151251749E+01 -0.17571530384E+01  0.31486510862E+02  0.31886052727E+02  0.00000000000E+00 0. -1.
         11    1    3    3    0    0  0.19937235134E+01  0.13778228608E+02 -0.10284613415E+02  0.17308604518E+02  0.51100000000E-03 0. -1.
        -11    1    3    3    0    0 -0.95205194132E+01  0.85475095387E+00  0.63333685205E+01  0.11466579532E+02  0.51100000000E-03 0.  1.
        -12    1    3    3    0    0  0.28116707248E+01 -0.12875826523E+02 -0.27535265968E+02  0.30526763222E+02  0.00000000000E+00 0.  1.
</event>
<event>
 7    1  0.3223600E-013  0.5930194E+02  0.7816164E-02  0.1266605E+00
        -11   -1    0    0    0    0  0.00000000000E+00  0.00000000000E+00  0.45593999997E+02  0.45594000000E+02  0.51100000000E-03 0.  1.
         11   -1    0    0    0    0 -0.00000000000E+00 -0.00000000000E+00 -0.45593999997E+02  0.45594000000E+02  0.51100000000E-03 0. -1.
    9900012    2    1    2    0    0  0.12428012826E+02 -0.10245556358E+02  0.27518968311E+02  0.59301944352E+02  0.50000000592E+02 0.  0.
         12    1    1    2    0    0 -0.12428012826E+02  0.10245556358E+02 -0.27518968311E+02  0.31886055648E+02  0.00000000000E+00 0. -1.
         11    1    3    3    0    0  0.37055331502E+01 -0.23963798945E+02  0.15639664383E+02  0.28854700450E+02  0.51100000000E-03 0. -1.
        -11    1    3    3    0    0 -0.28164031524E+01  0.49234480747E+01  0.14620440995E+02  0.15682147902E+02  0.51100000000E-03 0.  1.
        -12    1    3    3    0    0  0.11538882828E+02  0.87947945131E+01 -0.27411370671E+01  0.14765096000E+02  0.00000000000E+00 0.  1.
</event>
<event>
 7    1  0.3223600E-013  0.5930198E+02  0.7816164E-02  0.1266605E+00
        -11   -1    0    0    0    0  0.00000000000E+00  0.00000000000E+00  0.45593999997E+02  0.45594000000E+02  0.51100000000E-03 0. -1.
         11   -1    0    0    0    0 -0.00000000000E+00 -0.00000000000E+00 -0.45593999997E+02  0.45594000000E+02  0.51100000000E-03 0.  1.
    9900012    2    1    2    0    0  0.11988805824E+00 -0.28811516162E+02 -0.13660185195E+02  0.59301976475E+02  0.50000059176E+02 0.  0.
         12    1    1    2    0    0 -0.11988805824E+00  0.28811516162E+02  0.13660185195E+02  0.31886023525E+02  0.00000000000E+00 0. -1.
         11    1    3    3    0    0  0.70534723321E+01 -0.61928500306E+01 -0.11323400508E+02  0.14707897972E+02  0.51100000000E-03 0. -1.
        -11    1    3    3    0    0 -0.41194878716E+01  0.18812003031E+01 -0.15842489087E+02  0.16477061499E+02  0.51100000000E-03 0.  1.
         12    1    3    3    0    0 -0.28140964023E+01 -0.24499866435E+02  0.13505704400E+02  0.28117017004E+02  0.00000000000E+00 0. -1.
</event>
<event>
 7    1  0.3223600E-013  0.5930187E+02  0.7816164E-02  0.1266605E+00
        -11   -1    0    0    0    0  0.00000000000E+00  0.00000000000E+00  0.45593999997E+02  0.45594000000E+02  0.51100000000E-03 0.  1.
         11   -1    0    0    0    0 -0.00000000000E+00 -0.00000000000E+00 -0.45593999997E+02  0.45594000000E+02  0.51100000000E-03 0. -1.
    9900012    2    1    2    0    0 -0.11668181158E+02  0.20099042279E+02  0.21831336693E+02  0.59301871137E+02  0.49999867064E+02 0.  0.
         12    1    1    2    0    0  0.11668181158E+02 -0.20099042279E+02 -0.21831336693E+02  0.31886128863E+02  0.00000000000E+00 0. -1.
         11    1    3    3    0    0 -0.55459789775E+01 -0.35605007022E+01 -0.90108542215E+01  0.11163805002E+02  0.51100000000E-03 0. -1.
        -11    1    3    3    0    0  0.43138327837E+01  0.20196926293E+02  0.68711481787E+01  0.21765515444E+02  0.51100000000E-03 0.  1.
        -12    1    3    3    0    0 -0.10436034964E+02  0.34626166885E+01  0.23971042736E+02  0.26372550691E+02  0.00000000000E+00 0.  1.
</event>
<event>
 7    1  0.3223600E-013  0.5930195E+02  0.7816164E-02  0.1266605E+00
        -11   -1    0    0    0    0  0.00000000000E+00  0.00000000000E+00  0.45593999997E+02  0.45594000000E+02  0.51100000000E-03 0.  1.
         11   -1    0    0    0    0 -0.00000000000E+00 -0.00000000000E+00 -0.45593999997E+02  0.45594000000E+02  0.51100000000E-03 0. -1.
    9900012    2    1    2    0    0  0.26482287569E+02 -0.41579133073E+01  0.17266159006E+02  0.59301952193E+02  0.50000014891E+02 0.  0.
         12    1    1    2    0    0 -0.26482287569E+02  0.41579133073E+01 -0.17266159006E+02  0.31886047807E+02  0.00000000000E+00 0. -1.
         11    1    3    3    0    0 -0.12358007664E+01 -0.20038842043E+02  0.40797732425E+01  0.20487238562E+02  0.51100000000E-03 0. -1.
        -11    1    3    3    0    0  0.12988511603E+02  0.40830541431E+01 -0.30119301944E+01  0.13944335357E+02  0.51100000000E-03 0.  1.
        -12    1    3    3    0    0  0.14729576732E+02  0.11797874592E+02  0.16198315957E+02  0.24870378273E+02  0.00000000000E+00 0.  1.
</event>
<event>
 7    1  0.3223600E-013  0.5930195E+02  0.7816164E-02  0.1266605E+00
        -11   -1    0    0    0    0  0.00000000000E+00  0.00000000000E+00  0.45593999997E+02  0.45594000000E+02  0.51100000000E-03 0.  1.
         11   -1    0    0    0    0 -0.00000000000E+00 -0.00000000000E+00 -0.45593999997E+02  0.45594000000E+02  0.51100000000E-03 0. -1.
    9900012    2    1    2    0    0 -0.10473744564E+02  0.48042350307E+01  0.29731132750E+02  0.59301948911E+02  0.50000008906E+02 0.  0.
         12    1    1    2    0    0  0.10473744564E+02 -0.48042350307E+01 -0.29731132750E+02  0.31886051089E+02  0.00000000000E+00 0. -1.
         11    1    3    3    0    0  0.10900870605E+02  0.83040281306E+01 -0.17924731915E+01  0.13820232398E+02  0.51100000000E-03 0. -1.
        -11    1    3    3    0    0 -0.19058892366E+02  0.27574800041E+01  0.76970206022E+01  0.20738592059E+02  0.51100000000E-03 0.  1.
        -12    1    3    3    0    0 -0.23157228032E+01 -0.62572731039E+01  0.23826585339E+02  0.24743124454E+02  0.00000000000E+00 0.  1.
</event>
<event>
 7    1  0.3223600E-013  0.5930193E+02  0.7816164E-02  0.1266605E+00
        -11   -1    0    0    0    0  0.00000000000E+00  0.00000000000E+00  0.45593999997E+02  0.45594000000E+02  0.51100000000E-03 0.  1.
         11   -1    0    0    0    0 -0.00000000000E+00 -0.00000000000E+00 -0.45593999997E+02  0.45594000000E+02  0.51100000000E-03 0. -1.
    9900012    2    1    2    0    0 -0.64344681874E+00 -0.19472696615E+02  0.25241264050E+02  0.59301931755E+02  0.49999977618E+02 0.  0.
         12    1    1    2    0    0  0.64344681874E+00  0.19472696615E+02 -0.25241264050E+02  0.31886068245E+02  0.00000000000E+00 0. -1.
         11    1    3    3    0    0 -0.18941367960E+02 -0.60654300796E+01  0.24802214449E+01  0.20042863092E+02  0.51100000000E-03 0. -1.
        -11    1    3    3    0    0 -0.18617013534E+01 -0.47669715075E+00  0.13411812091E+02  0.13548796107E+02  0.51100000000E-03 0.  1.
        -12    1    3    3    0    0  0.20159622495E+02 -0.12930569385E+02  0.93492305135E+01  0.25710272557E+02  0.00000000000E+00 0.  1.
</event>
<event>
 7    1  0.3223600E-013  0.5930187E+02  0.7816164E-02  0.1266605E+00
        -11   -1    0    0    0    0  0.00000000000E+00  0.00000000000E+00  0.45593999997E+02  0.45594000000E+02  0.51100000000E-03 0.  1.
         11   -1    0    0    0    0 -0.00000000000E+00 -0.00000000000E+00 -0.45593999997E+02  0.45594000000E+02  0.51100000000E-03 0. -1.
    9900012    2    1    2    0    0 -0.23771029257E+02 -0.84391940386E+01  0.19504958332E+02  0.59301870924E+02  0.49999866675E+02 0.  0.
         12    1    1    2    0    0  0.23771029257E+02  0.84391940386E+01 -0.19504958332E+02  0.31886129076E+02  0.00000000000E+00 0. -1.
         11    1    3    3    0    0  0.26726970778E+01 -0.22032207577E+02  0.14403140749E+02  0.26457738832E+02  0.51100000000E-03 0. -1.
        -11    1    3    3    0    0 -0.11992711412E+02  0.73956627644E+01 -0.40379318188E+01  0.14656938574E+02  0.51100000000E-03 0.  1.
        -12    1    3    3    0    0 -0.14451014923E+02  0.61973507743E+01  0.91397494017E+01  0.18187193518E+02  0.00000000000E+00 0.  1.
</event>
<event>
 7    1  0.3223600E-013  0.5930195E+02  0.7816164E-02  0.1266605E+00
        -11   -1    0    0    0    0  0.00000000000E+00  0.00000000000E+00  0.45593999997E+02  0.45594000000E+02  0.51100000000E-03 0.  1.
         11   -1    0    0    0    0 -0.00000000000E+00 -0.00000000000E+00 -0.45593999997E+02  0.45594000000E+02  0.51100000000E-03 0. -1.
    9900012    2    1    2    0    0  0.16328509773E+02  0.12823745280E+02  0.24200242372E+02  0.59301946540E+02  0.50000004582E+02 0.  0.
         12    1    1    2    0    0 -0.16328509773E+02 -0.12823745280E+02 -0.24200242372E+02  0.31886053460E+02  0.00000000000E+00 0. -1.
         11    1    3    3    0    0  0.19247337574E+01 -0.61486580743E+01  0.14780554368E+01  0.66102378389E+01  0.51100000000E-03 0. -1.
        -11    1    3    3    0    0 -0.12942049793E+01 -0.25890867377E+01 -0.10038417284E+02  0.10447399604E+02  0.51100000000E-03 0.  1.
        -12    1    3    3    0    0  0.15697980995E+02  0.21561490092E+02  0.32760604219E+02  0.42244309097E+02  0.00000000000E+00 0.  1.
</event>
<event>
 7    1  0.3223600E-013  0.5930193E+02  0.7816164E-02  0.1266605E+00
        -11   -1    0    0    0    0  0.00000000000E+00  0.00000000000E+00  0.45593999997E+02  0.45594000000E+02  0.51100000000E-03 0. -1.
         11   -1    0    0    0    0 -0.00000000000E+00 -0.00000000000E+00 -0.45593999997E+02  0.45594000000E+02  0.51100000000E-03 0.  1.
    9900012    2    1    2    0    0  0.16511578572E+01  0.15420802486E+02 -0.27860258575E+02  0.59301929696E+02  0.49999973862E+02 0.  0.
         12    1    1    2    0    0 -0.16511578572E+01 -0.15420802486E+02  0.27860258575E+02  0.31886070304E+02  0.00000000000E+00 0. -1.
         11    1    3    3    0    0  0.11399741689E+02  0.13973645723E+02 -0.27640628280E+01  0.18244367047E+02  0.51100000000E-03 0. -1.
        -11    1    3    3    0    0 -0.13215116065E+00  0.93422421023E+01  0.34166040852E+01  0.99482729739E+01  0.51100000000E-03 0.  1.
        -12    1    3    3    0    0 -0.96164326711E+01 -0.78950853388E+01 -0.28512799832E+02  0.31109289675E+02  0.00000000000E+00 0.  1.
</event>
<event>
 7    1  0.3223600E-013  0.5930198E+02  0.7816164E-02  0.1266605E+00
        -11   -1    0    0    0    0  0.00000000000E+00  0.00000000000E+00  0.45593999997E+02  0.45594000000E+02  0.51100000000E-03 0.  1.
         11   -1    0    0    0    0 -0.00000000000E+00 -0.00000000000E+00 -0.45593999997E+02  0.45594000000E+02  0.51100000000E-03 0. -1.
    9900012    2    1    2    0    0 -0.29874643193E+02 -0.11110496398E+02 -0.88371144942E+00  0.59301978266E+02  0.50000062442E+02 0.  0.
         12    1    1    2    0    0  0.29874643193E+02  0.11110496398E+02  0.88371144942E+00  0.31886021734E+02  0.00000000000E+00 0. -1.
         11    1    3    3    0    0 -0.27465208628E+01 -0.72710702731E+01 -0.10834343179E+02  0.13333972857E+02  0.51100000000E-03 0. -1.
        -11    1    3    3    0    0 -0.24958081095E+02  0.32057532463E+00 -0.89327629936E+01  0.26510428805E+02  0.51100000000E-03 0.  1.
        -12    1    3    3    0    0 -0.21700412351E+01 -0.41600014493E+01  0.18883394723E+02  0.19457576604E+02  0.00000000000E+00 0.  1.
</event>
<event>
 7    1  0.3223600E-013  0.5930195E+02  0.7816164E-02  0.1266605E+00
        -11   -1    0    0    0    0  0.00000000000E+00  0.00000000000E+00  0.45593999997E+02  0.45594000000E+02  0.51100000000E-03 0. -1.
         11   -1    0    0    0    0 -0.00000000000E+00 -0.00000000000E+00 -0.45593999997E+02  0.45594000000E+02  0.51100000000E-03 0.  1.
    9900012    2    1    2    0    0  0.22938060005E+02  0.12713503887E+01 -0.22112202642E+02  0.59301946085E+02  0.50000003752E+02 0.  0.
         12    1    1    2    0    0 -0.22938060005E+02 -0.12713503887E+01  0.22112202642E+02  0.31886053915E+02  0.00000000000E+00 0. -1.
         11    1    3    3    0    0  0.86416060614E+01 -0.15616396354E+02  0.19141472585E+01  0.17950296666E+02  0.51100000000E-03 0. -1.
        -11    1    3    3    0    0  0.17836772366E+02  0.76016506192E+01 -0.52176417069E+01  0.20078827800E+02  0.51100000000E-03 0.  1.
        -12    1    3    3    0    0 -0.35403184227E+01  0.92860961235E+01 -0.18808708193E+02  0.21272821619E+02  0.00000000000E+00 0.  1.
</event>
<event>
 7    1  0.3223600E-013  0.5930194E+02  0.7816164E-02  0.1266605E+00
        -11   -1    0    0    0    0  0.00000000000E+00  0.00000000000E+00  0.45593999997E+02  0.45594000000E+02  0.51100000000E-03 0. -1.
         11   -1    0    0    0    0 -0.00000000000E+00 -0.00000000000E+00 -0.45593999997E+02  0.45594000000E+02  0.51100000000E-03 0.  1.
    9900012    2    1    2    0    0 -0.14733534792E+02 -0.17019743580E+02 -0.22582555965E+02  0.59301944225E+02  0.50000000360E+02 0.  0.
         12    1    1    2    0    0  0.14733534792E+02  0.17019743580E+02  0.22582555965E+02  0.31886055775E+02  0.00000000000E+00 0. -1.
         11    1    3    3    0    0  0.17877778822E+01 -0.37924544855E+00  0.22462954511E+01  0.28958280993E+01  0.51100000000E-03 0. -1.
        -11    1    3    3    0    0  0.12363196166E+02 -0.57834704956E+01  0.39521305656E+01  0.14209732112E+02  0.51100000000E-03 0.  1.
         12    1    3    3    0    0 -0.28884508840E+02 -0.10857027636E+02 -0.28780981982E+02  0.42196384014E+02  0.00000000000E+00 0. -1.
</event>
<event>
 7    1  0.3223600E-013  0.5930196E+02  0.7816164E-02  0.1266605E+00
        -11   -1    0    0    0    0  0.00000000000E+00  0.00000000000E+00  0.45593999997E+02  0.45594000000E+02  0.51100000000E-03 0. -1.
         11   -1    0    0    0    0 -0.00000000000E+00 -0.00000000000E+00 -0.45593999997E+02  0.45594000000E+02  0.51100000000E-03 0.  1.
    9900012    2    1    2    0    0 -0.19239003581E+02 -0.22918990830E+02  0.11013648737E+02  0.59301955122E+02  0.50000020233E+02 0.  0.
         12    1    1    2    0    0  0.19239003581E+02  0.22918990830E+02 -0.11013648737E+02  0.31886044878E+02  0.00000000000E+00 0. -1.
         11    1    3    3    0    0  0.12231238950E+02  0.24867218144E+01 -0.34727231248E+01  0.12955570146E+02  0.51100000000E-03 0. -1.
        -11    1    3    3    0    0 -0.17103090922E+02 -0.11786754137E+02  0.16389848016E+02  0.26458843709E+02  0.51100000000E-03 0.  1.
        -12    1    3    3    0    0 -0.14367151609E+02 -0.13618958507E+02 -0.19034761540E+01  0.19887541267E+02  0.00000000000E+00 0.  1.
</event>
<event>
 7    1  0.3223600E-013  0.5930182E+02  0.7816164E-02  0.1266605E+00
        -11   -1    0    0    0    0  0.00000000000E+00  0.00000000000E+00  0.45593999997E+02  0.45594000000E+02  0.51100000000E-03 0.  1.
         11   -1    0    0    0    0 -0.00000000000E+00 -0.00000000000E+00 -0.45593999997E+02  0.45594000000E+02  0.51100000000E-03 0. -1.
    9900012    2    1    2    0    0 -0.11962556036E+02 -0.46845931523E+01  0.29183563674E+02  0.59301818845E+02  0.49999771696E+02 0.  0.
         12    1    1    2    0    0  0.11962556036E+02  0.46845931523E+01 -0.29183563674E+02  0.31886181155E+02  0.00000000000E+00 0. -1.
         11    1    3    3    0    0 -0.43033579266E+01  0.22192649403E+01 -0.26722604236E+01  0.55303709055E+01  0.51100000000E-03 0. -1.
        -11    1    3    3    0    0  0.10250244083E+02  0.92883847751E+00 -0.54562878292E+01  0.11649091029E+02  0.51100000000E-03 0.  1.
        -12    1    3    3    0    0 -0.17909442192E+02 -0.78326965701E+01  0.37312111927E+02  0.42122356910E+02  0.00000000000E+00 0.  1.
</event>
<event>
 7    1  0.3223600E-013  0.5930196E+02  0.7816164E-02  0.1266605E+00
        -11   -1    0    0    0    0  0.00000000000E+00  0.00000000000E+00  0.45593999997E+02  0.45594000000E+02  0.51100000000E-03 0. -1.
         11   -1    0    0    0    0 -0.00000000000E+00 -0.00000000000E+00 -0.45593999997E+02  0.45594000000E+02  0.51100000000E-03 0.  1.
    9900012    2    1    2    0    0  0.13521897616E+02  0.32654690332E+01 -0.28691715399E+02  0.59301960175E+02  0.50000029450E+02 0.  0.
         12    1    1    2    0    0 -0.13521897616E+02 -0.32654690332E+01  0.28691715399E+02  0.31886039825E+02  0.00000000000E+00 0. -1.
         11    1    3    3    0    0  0.73308959661E+01  0.16940429889E+02 -0.14378438847E+02  0.23397856835E+02  0.51100000000E-03 0. -1.
        -11    1    3    3    0    0  0.10736606080E+02  0.43019625375E+00 -0.17696524044E+02  0.20703302694E+02  0.51100000000E-03 0.  1.
         12    1    3    3    0    0 -0.45456044294E+01 -0.14105157110E+02  0.33832474922E+01  0.15200800647E+02  0.00000000000E+00 0. -1.
</event>
<event>
 7    1  0.3223600E-013  0.5930195E+02  0.7816164E-02  0.1266605E+00
        -11   -1    0    0    0    0  0.00000000000E+00  0.00000000000E+00  0.45593999997E+02  0.45594000000E+02  0.51100000000E-03 0.  1.
         11   -1    0    0    0    0 -0.00000000000E+00 -0.00000000000E+00 -0.45593999997E+02  0.45594000000E+02  0.51100000000E-03 0. -1.
    9900012    2    1    2    0    0 -0.30734853290E+02 -0.78047059780E+01  0.33429980868E+01  0.59301948529E+02  0.50000008210E+02 0.  0.
         12    1    1    2    0    0  0.30734853290E+02  0.78047059780E+01 -0.33429980868E+01  0.31886051471E+02  0.00000000000E+00 0. -1.
         11    1    3    3    0    0 -0.24035834243E+02 -0.93391612294E+01 -0.49036693165E+01  0.26248566308E+02  0.51100000000E-03 0. -1.
        -11    1    3    3    0    0  0.10242095123E+02 -0.71152067095E+01  0.40132724724E+00  0.12477489445E+02  0.51100000000E-03 0.  1.
         12    1    3    3    0    0 -0.16941114170E+02  0.86496619610E+01  0.78453401560E+01  0.20575892776E+02  0.00000000000E+00 0. -1.
</event>
<event>
 7    1  0.3223600E-013  0.5930195E+02  0.7816164E-02  0.1266605E+00
        -11   -1    0    0    0    0  0.00000000000E+00  0.00000000000E+00  0.45593999997E+02  0.45594000000E+02  0.51100000000E-03 0.  1.
         11   -1    0    0    0    0 -0.00000000000E+00 -0.00000000000E+00 -0.45593999997E+02  0.45594000000E+02  0.51100000000E-03 0. -1.
    9900012    2    1    2    0    0 -0.11677725887E+02 -0.50785932678E+01  0.29232835461E+02  0.59301951945E+02  0.50000014440E+02 0.  0.
         12    1    1    2    0    0  0.11677725887E+02  0.50785932678E+01 -0.29232835461E+02  0.31886048055E+02  0.00000000000E+00 0. -1.
         11    1    3    3    0    0 -0.30249594893E+00 -0.61735778614E+01  0.18659881971E+01  0.64565067662E+01  0.51100000000E-03 0. -1.
        -11    1    3    3    0    0 -0.27701256909E+02  0.53332924083E+01  0.19045680705E+02  0.34037355890E+02  0.51100000000E-03 0.  1.
         12    1    3    3    0    0  0.16326026971E+02 -0.42383078148E+01  0.83211665590E+01  0.18808089289E+02  0.00000000000E+00 0. -1.
</event>
<event>
 7    1  0.3223600E-013  0.5930198E+02  0.7816164E-02  0.1266605E+00
        -11   -1    0    0    0    0  0.00000000000E+00  0.00000000000E+00  0.45593999997E+02  0.45594000000E+02  0.51100000000E-03 0.  1.
         11   -1    0    0    0    0 -0.00000000000E+00 -0.00000000000E+00 -0.45593999997E+02  0.45594000000E+02  0.51100000000E-03 0. -1.
    9900012    2    1    2    0    0 -0.19536470594E+02 -0.15901079152E+02  0.19549941077E+02  0.59301981158E+02  0.50000067717E+02 0.  0.
         12    1    1    2    0    0  0.19536470594E+02  0.15901079152E+02 -0.19549941077E+02  0.31886018842E+02  0.00000000000E+00 0. -1.
         11    1    3    3    0    0  0.49882722325E+00 -0.60492247729E+01 -0.12785417722E+02  0.14153051103E+02  0.51100000000E-03 0. -1.
        -11    1    3    3    0    0 -0.38386000308E+01  0.26298301001E+01  0.21518944832E+02  0.22016263159E+02  0.51100000000E-03 0.  1.
        -12    1    3    3    0    0 -0.16196697787E+02 -0.12481684479E+02  0.10816413967E+02  0.23132666896E+02  0.00000000000E+00 0.  1.
</event>
<event>
 7    1  0.3223600E-013  0.5930194E+02  0.7816164E-02  0.1266605E+00
        -11   -1    0    0    0    0  0.00000000000E+00  0.00000000000E+00  0.45593999997E+02  0.45594000000E+02  0.51100000000E-03 0.  1.
         11   -1    0    0    0    0 -0.00000000000E+00 -0.00000000000E+00 -0.45593999997E+02  0.45594000000E+02  0.51100000000E-03 0. -1.
    9900012    2    1    2    0    0  0.18780221958E+01  0.57506420431E+01  0.31306930157E+02  0.59301941493E+02  0.49999995377E+02 0.  0.
         12    1    1    2    0    0 -0.18780221958E+01 -0.57506420431E+01 -0.31306930157E+02  0.31886058507E+02  0.00000000000E+00 0. -1.
         11    1    3    3    0    0 -0.14133801540E+00  0.79402655821E+01  0.11991218533E+02  0.14382528155E+02  0.51100000000E-03 0. -1.
        -11    1    3    3    0    0  0.13941561829E+02 -0.61674488996E+01  0.26404831950E+02  0.30489665835E+02  0.51100000000E-03 0.  1.
         12    1    3    3    0    0 -0.11922201618E+02  0.39778253606E+01 -0.70891203260E+01  0.14429747504E+02  0.00000000000E+00 0. -1.
</event>
<event>
 7    1  0.3223600E-013  0.5930196E+02  0.7816164E-02  0.1266605E+00
        -11   -1    0    0    0    0  0.00000000000E+00  0.00000000000E+00  0.45593999997E+02  0.45594000000E+02  0.51100000000E-03 0.  1.
         11   -1    0    0    0    0 -0.00000000000E+00 -0.00000000000E+00 -0.45593999997E+02  0.45594000000E+02  0.51100000000E-03 0. -1.
    9900012    2    1    2    0    0 -0.81773598808E+01 -0.62232475669E+01  0.30184786902E+02  0.59301962535E+02  0.50000033752E+02 0.  0.
         12    1    1    2    0    0  0.81773598808E+01  0.62232475669E+01 -0.30184786902E+02  0.31886037465E+02  0.00000000000E+00 0. -1.
         11    1    3    3    0    0 -0.78079581010E+01 -0.12564906559E+02 -0.24464285800E+01  0.14994202200E+02  0.51100000000E-03 0. -1.
        -11    1    3    3    0    0  0.54924120210E+00  0.59657795710E+01 -0.42929101080E+01  0.73702964149E+01  0.51100000000E-03 0.  1.
        -12    1    3    3    0    0 -0.91864298189E+00  0.37587942101E+00  0.36924125590E+02  0.36937463920E+02  0.00000000000E+00 0.  1.
</event>
<event>
 7    1  0.3223600E-013  0.5930194E+02  0.7816164E-02  0.1266605E+00
        -11   -1    0    0    0    0  0.00000000000E+00  0.00000000000E+00  0.45593999997E+02  0.45594000000E+02  0.51100000000E-03 0.  1.
         11   -1    0    0    0    0 -0.00000000000E+00 -0.00000000000E+00 -0.45593999997E+02  0.45594000000E+02  0.51100000000E-03 0. -1.
    9900012    2    1    2    0    0  0.19380239427E+02  0.37225951255E+01  0.25045343467E+02  0.59301943109E+02  0.49999998324E+02 0.  0.
         12    1    1    2    0    0 -0.19380239427E+02 -0.37225951255E+01 -0.25045343467E+02  0.31886056891E+02  0.00000000000E+00 0. -1.
         11    1    3    3    0    0 -0.45533937680E+01 -0.38570143217E+01  0.24835135017E+01  0.64635743872E+01  0.51100000000E-03 0. -1.
        -11    1    3    3    0    0 -0.45737896529E+00  0.99574022430E+01  0.26228683091E+02  0.28058917868E+02  0.51100000000E-03 0.  1.
        -12    1    3    3    0    0  0.24391012160E+02 -0.23777927957E+01 -0.36668531260E+01  0.24779450854E+02  0.00000000000E+00 0.  1.
</event>
<event>
 7    1  0.3223600E-013  0.5930195E+02  0.7816164E-02  0.1266605E+00
        -11   -1    0    0    0    0  0.00000000000E+00  0.00000000000E+00  0.45593999997E+02  0.45594000000E+02  0.51100000000E-03 0.  1.
         11   -1    0    0    0    0 -0.00000000000E+00 -0.00000000000E+00 -0.45593999997E+02  0.45594000000E+02  0.51100000000E-03 0. -1.
    9900012    2    1    2    0    0 -0.20867849698E+02 -0.11995297961E+02  0.20913296752E+02  0.59301948109E+02  0.50000007443E+02 0.  0.
         12    1    1    2    0    0  0.20867849698E+02  0.11995297961E+02 -0.20913296752E+02  0.31886051891E+02  0.00000000000E+00 0. -1.
         11    1    3    3    0    0  0.94212564953E+01 -0.33742796637E+01  0.29537449896E+01  0.10434100197E+02  0.51100000000E-03 0. -1.
        -11    1    3    3    0    0 -0.39369168639E+01  0.11558002122E+02  0.58248617267E+01  0.13528331081E+02  0.51100000000E-03 0.  1.
        -12    1    3    3    0    0 -0.26352189329E+02 -0.20179020420E+02  0.12134690036E+02  0.35339516830E+02  0.00000000000E+00 0.  1.
</event>
<event>
 7    1  0.3223600E-013  0.5930193E+02  0.7816164E-02  0.1266605E+00
        -11   -1    0    0    0    0  0.00000000000E+00  0.00000000000E+00  0.45593999997E+02  0.45594000000E+02  0.51100000000E-03 0.  1.
         11   -1    0    0    0    0 -0.00000000000E+00 -0.00000000000E+00 -0.45593999997E+02  0.45594000000E+02  0.51100000000E-03 0. -1.
    9900012    2    1    2    0    0  0.28618768204E+02 -0.37091432692E+01  0.13562068712E+02  0.59301931803E+02  0.49999977704E+02 0.  0.
         12    1    1    2    0    0 -0.28618768204E+02  0.37091432692E+01 -0.13562068712E+02  0.31886068197E+02  0.00000000000E+00 0. -1.
         11    1    3    3    0    0  0.25582510274E+01  0.21137342288E+01  0.15120396544E+01  0.36467499073E+01  0.51100000000E-03 0. -1.
        -11    1    3    3    0    0  0.31933581782E+02 -0.11897480916E+02  0.23521851160E+02  0.41407501492E+02  0.51100000000E-03 0.  1.
         12    1    3    3    0    0 -0.58730646050E+01  0.60746034181E+01 -0.11471822102E+02  0.14247680403E+02  0.00000000000E+00 0. -1.
</event>
<event>
 7    1  0.3223600E-013  0.5930192E+02  0.7816164E-02  0.1266605E+00
        -11   -1    0    0    0    0  0.00000000000E+00  0.00000000000E+00  0.45593999997E+02  0.45594000000E+02  0.51100000000E-03 0.  1.
         11   -1    0    0    0    0 -0.00000000000E+00 -0.00000000000E+00 -0.45593999997E+02  0.45594000000E+02  0.51100000000E-03 0. -1.
    9900012    2    1    2    0    0  0.14562020212E+01 -0.10387531601E+02  0.30111467604E+02  0.59301924382E+02  0.49999964170E+02 0.  0.
         12    1    1    2    0    0 -0.14562020212E+01  0.10387531601E+02 -0.30111467604E+02  0.31886075618E+02  0.00000000000E+00 0. -1.
         11    1    3    3    0    0 -0.17331199825E+02  0.32624927442E+01  0.11986433233E+02  0.21323436126E+02  0.51100000000E-03 0. -1.
        -11    1    3    3    0    0 -0.57315430273E+00  0.19804458329E+00  0.13765923521E+02  0.13779273499E+02  0.51100000000E-03 0.  1.
         12    1    3    3    0    0  0.19360556149E+02 -0.13848068929E+02  0.43591108498E+01  0.24199214757E+02  0.00000000000E+00 0. -1.
</event>
<event>
 7    1  0.3223600E-013  0.5930191E+02  0.7816164E-02  0.1266605E+00
        -11   -1    0    0    0    0  0.00000000000E+00  0.00000000000E+00  0.45593999997E+02  0.45594000000E+02  0.51100000000E-03 0.  1.
         11   -1    0    0    0    0 -0.00000000000E+00 -0.00000000000E+00 -0.45593999997E+02  0.45594000000E+02  0.51100000000E-03 0. -1.
    9900012    2    1    2    0    0 -0.90805869969E+01 -0.21650918546E+02 -0.21575534959E+02  0.59301905180E+02  0.49999929151E+02 0.  0.
         12    1    1    2    0    0  0.90805869969E+01  0.21650918546E+02  0.21575534959E+02  0.31886094820E+02  0.00000000000E+00 0. -1.
         11    1    3    3    0    0 -0.21578722692E+02 -0.24117312291E+02 -0.62222270982E+01  0.32954546507E+02  0.51100000000E-03 0. -1.
        -11    1    3    3    0    0  0.39778025606E+01 -0.25487760887E+01  0.29320953593E+01  0.55602478558E+01  0.51100000000E-03 0.  1.
         12    1    3    3    0    0  0.85203331349E+01  0.50151698335E+01 -0.18285403220E+02  0.20787110817E+02  0.00000000000E+00 0. -1.
</event>
<event>
 7    1  0.3223600E-013  0.5930194E+02  0.7816164E-02  0.1266605E+00
        -11   -1    0    0    0    0  0.00000000000E+00  0.00000000000E+00  0.45593999997E+02  0.45594000000E+02  0.51100000000E-03 0.  1.
         11   -1    0    0    0    0 -0.00000000000E+00 -0.00000000000E+00 -0.45593999997E+02  0.45594000000E+02  0.51100000000E-03 0. -1.
    9900012    2    1    2    0    0  0.95185770476E+01 -0.99147196107E+01  0.28771783639E+02  0.59301944933E+02  0.50000001651E+02 0.  0.
         12    1    1    2    0    0 -0.95185770476E+01  0.99147196107E+01 -0.28771783639E+02  0.31886055067E+02  0.00000000000E+00 0. -1.
         11    1    3    3    0    0  0.51388603480E+01 -0.12761902744E+02  0.84240331235E+01  0.16131905704E+02  0.51100000000E-03 0. -1.
        -11    1    3    3    0    0  0.10966981327E+02 -0.61714522647E+01  0.27267927035E+02  0.30031672406E+02  0.51100000000E-03 0.  1.
        -12    1    3    3    0    0 -0.65872646276E+01  0.90186353977E+01 -0.69201765195E+01  0.13138366823E+02  0.00000000000E+00 0.  1.
</event>
<event>
 7    1  0.3223600E-013  0.5930195E+02  0.7816164E-02  0.1266605E+00
        -11   -1    0    0    0    0  0.00000000000E+00  0.00000000000E+00  0.45593999997E+02  0.45594000000E+02  0.51100000000E-03 0.  1.
         11   -1    0    0    0    0 -0.00000000000E+00 -0.00000000000E+00 -0.45593999997E+02  0.45594000000E+02  0.51100000000E-03 0. -1.
    9900012    2    1    2    0    0  0.19738843357E+02 -0.23174804490E+02  0.94882309010E+01  0.59301952489E+02  0.50000015432E+02 0.  0.
         12    1    1    2    0    0 -0.19738843357E+02  0.23174804490E+02 -0.94882309010E+01  0.31886047511E+02  0.00000000000E+00 0. -1.
         11    1    3    3    0    0 -0.49517692560E+01  0.33772971196E+01 -0.11734228524E+01  0.61076244196E+01  0.51100000000E-03 0. -1.
        -11    1    3    3    0    0 -0.51631420142E+01 -0.16066865354E+02  0.13237105357E+02  0.21448150416E+02  0.51100000000E-03 0.  1.
        -12    1    3    3    0    0  0.29853754627E+02 -0.10485236255E+02 -0.25754516039E+01  0.31746177654E+02  0.00000000000E+00 0.  1.
</event>
<event>
 7    1  0.3223600E-013  0.5930195E+02  0.7816164E-02  0.1266605E+00
        -11   -1    0    0    0    0  0.00000000000E+00  0.00000000000E+00  0.45593999997E+02  0.45594000000E+02  0.51100000000E-03 0.  1.
         11   -1    0    0    0    0 -0.00000000000E+00 -0.00000000000E+00 -0.45593999997E+02  0.45594000000E+02  0.51100000000E-03 0. -1.
    9900012    2    1    2    0    0 -0.31792171762E+02  0.72988245812E+00  0.23335480681E+01  0.59301947244E+02  0.50000005866E+02 0.  0.
         12    1    1    2    0    0  0.31792171762E+02 -0.72988245812E+00 -0.23335480681E+01  0.31886052756E+02  0.00000000000E+00 0. -1.
         11    1    3    3    0    0 -0.23867219512E+02 -0.37430994964E+00 -0.90291868187E+01  0.25520785452E+02  0.51100000000E-03 0. -1.
        -11    1    3    3    0    0 -0.15649133914E+02  0.10497775039E+02  0.31480278463E+01  0.19105202240E+02  0.51100000000E-03 0.  1.
         12    1    3    3    0    0  0.77241816647E+01 -0.93935826314E+01  0.82147070405E+01  0.14675959553E+02  0.00000000000E+00 0. -1.
</event>
<event>
 7    1  0.3223600E-013  0.5930191E+02  0.7816164E-02  0.1266605E+00
        -11   -1    0    0    0    0  0.00000000000E+00  0.00000000000E+00  0.45593999997E+02  0.45594000000E+02  0.51100000000E-03 0.  1.
         11   -1    0    0    0    0 -0.00000000000E+00 -0.00000000000E+00 -0.45593999997E+02  0.45594000000E+02  0.51100000000E-03 0. -1.
    9900012    2    1    2    0    0  0.77835163312E+01 -0.10592940695E+02  0.29050455217E+02  0.59301914204E+02  0.49999945609E+02 0.  0.
         12    1    1    2    0    0 -0.77835163312E+01  0.10592940695E+02 -0.29050455217E+02  0.31886085796E+02  0.00000000000E+00 0. -1.
         11    1    3    3    0    0 -0.13280642804E+01 -0.14235301190E+02  0.15769212437E+01  0.14383818532E+02  0.51100000000E-03 0. -1.
        -11    1    3    3    0    0  0.12083181863E+02 -0.13232494071E+02  0.17724053874E+02  0.25204052635E+02  0.51100000000E-03 0.  1.
        -12    1    3    3    0    0 -0.29716012511E+01  0.16874854566E+02  0.97494800999E+01  0.19714043037E+02  0.00000000000E+00 0.  1.
</event>
<event>
 7    1  0.3223600E-013  0.5930192E+02  0.7816164E-02  0.1266605E+00
        -11   -1    0    0    0    0  0.00000000000E+00  0.00000000000E+00  0.45593999997E+02  0.45594000000E+02  0.51100000000E-03 0.  1.
         11   -1    0    0    0    0 -0.00000000000E+00 -0.00000000000E+00 -0.45593999997E+02  0.45594000000E+02  0.51100000000E-03 0. -1.
    9900012    2    1    2    0    0 -0.40693068493E+01  0.25752550797E+01  0.31520320209E+02  0.59301924935E+02  0.49999965179E+02 0.  0.
         12    1    1    2    0    0  0.40693068493E+01 -0.25752550797E+01 -0.31520320209E+02  0.31886075065E+02  0.00000000000E+00 0. -1.
         11    1    3    3    0    0 -0.87232204414E+01 -0.36022286261E+01 -0.18472324216E+01  0.96168026820E+01  0.51100000000E-03 0. -1.
        -11    1    3    3    0    0 -0.46230416154E+01  0.57778088378E+01 -0.58188898604E+01  0.94135576810E+01  0.51100000000E-03 0.  1.
        -12    1    3    3    0    0  0.92769552075E+01  0.39967486797E+00  0.39186442491E+02  0.40271564572E+02  0.00000000000E+00 0.  1.
</event>
<event>
 7    1  0.3223600E-013  0.5930194E+02  0.7816164E-02  0.1266605E+00
        -11   -1    0    0    0    0  0.00000000000E+00  0.00000000000E+00  0.45593999997E+02  0.45594000000E+02  0.51100000000E-03 0. -1.
         11   -1    0    0    0    0 -0.00000000000E+00 -0.00000000000E+00 -0.45593999997E+02  0.45594000000E+02  0.51100000000E-03 0.  1.
    9900012    2    1    2    0    0 -0.59958729610E+01  0.24387191483E+01 -0.31222156568E+02  0.59301938713E+02  0.49999990307E+02 0.  0.
         12    1    1    2    0    0  0.59958729610E+01 -0.24387191483E+01  0.31222156568E+02  0.31886061287E+02  0.00000000000E+00 0. -1.
         11    1    3    3    0    0  0.26838093388E+01  0.90888531741E+00  0.57101205596E+01  0.63745103461E+01  0.51100000000E-03 0. -1.
        -11    1    3    3    0    0 -0.10976474815E+02  0.12474155457E+02 -0.25977930353E+01  0.16817731198E+02  0.51100000000E-03 0.  1.
        -12    1    3    3    0    0  0.22967925149E+01 -0.10944321626E+02 -0.34334484092E+02  0.36109697169E+02  0.00000000000E+00 0.  1.
</event>
<event>
 7    1  0.3223600E-013  0.5930195E+02  0.7816164E-02  0.1266605E+00
        -11   -1    0    0    0    0  0.00000000000E+00  0.00000000000E+00  0.45593999997E+02  0.45594000000E+02  0.51100000000E-03 0.  1.
         11   -1    0    0    0    0 -0.00000000000E+00 -0.00000000000E+00 -0.45593999997E+02  0.45594000000E+02  0.51100000000E-03 0. -1.
    9900012    2    1    2    0    0  0.21152266077E+02  0.77153327445E+01  0.22578211842E+02  0.59301947101E+02  0.50000005604E+02 0.  0.
         12    1    1    2    0    0 -0.21152266077E+02 -0.77153327445E+01 -0.22578211842E+02  0.31886052899E+02  0.00000000000E+00 0. -1.
         11    1    3    3    0    0 -0.25321567915E+01  0.10386194691E+01  0.13029243599E+02  0.13313592206E+02  0.51100000000E-03 0. -1.
        -11    1    3    3    0    0  0.57970166511E+01 -0.12545264583E+02  0.13636284822E+02  0.19414873925E+02  0.51100000000E-03 0.  1.
         12    1    3    3    0    0  0.17887406217E+02  0.19221977859E+02 -0.40873165797E+01  0.26573480969E+02  0.00000000000E+00 0. -1.
</event>
<event>
 7    1  0.3223600E-013  0.5930193E+02  0.7816164E-02  0.1266605E+00
        -11   -1    0    0    0    0  0.00000000000E+00  0.00000000000E+00  0.45593999997E+02  0.45594000000E+02  0.51100000000E-03 0.  1.
         11   -1    0    0    0    0 -0.00000000000E+00 -0.00000000000E+00 -0.45593999997E+02  0.45594000000E+02  0.51100000000E-03 0. -1.
    9900012    2    1    2    0    0 -0.78021969523E+01  0.12709295257E+02  0.28183696712E+02  0.59301933708E+02  0.49999981180E+02 0.  0.
         12    1    1    2    0    0  0.78021969523E+01 -0.12709295257E+02 -0.28183696712E+02  0.31886066292E+02  0.00000000000E+00 0. -1.
         11    1    3    3    0    0  0.78613143703E+01 -0.15801091029E+00  0.27608821168E+01  0.83335287484E+01  0.51100000000E-03 0.  1.
        -11    1    3    3    0    0  0.86106999289E+01  0.99075636448E+01  0.22885992643E+02  0.26383188400E+02  0.51100000000E-03 0. -1.
        -12    1    3    3    0    0 -0.24274211251E+02  0.29597425221E+01  0.25368219527E+01  0.24585216560E+02  0.00000000000E+00 0.  1.
</event>
<event>
 7    1  0.3223600E-013  0.5930195E+02  0.7816164E-02  0.1266605E+00
        -11   -1    0    0    0    0  0.00000000000E+00  0.00000000000E+00  0.45593999997E+02  0.45594000000E+02  0.51100000000E-03 0.  1.
         11   -1    0    0    0    0 -0.00000000000E+00 -0.00000000000E+00 -0.45593999997E+02  0.45594000000E+02  0.51100000000E-03 0. -1.
    9900012    2    1    2    0    0  0.28950837419E+02 -0.19516318473E+01 -0.13219703446E+02  0.59301946414E+02  0.50000004352E+02 0.  0.
         12    1    1    2    0    0 -0.28950837419E+02  0.19516318473E+01  0.13219703446E+02  0.31886053586E+02  0.00000000000E+00 0. -1.
         11    1    3    3    0    0  0.12173318594E+02 -0.89136299155E+01 -0.95640603977E+01  0.17863754796E+02  0.51100000000E-03 0. -1.
        -11    1    3    3    0    0 -0.45366019538E+01  0.61118637749E+01 -0.15334218137E+02  0.17119400756E+02  0.51100000000E-03 0.  1.
        -12    1    3    3    0    0  0.21314120778E+02  0.85013429327E+00  0.11678575089E+02  0.24318790862E+02  0.00000000000E+00 0.  1.
</event>
<event>
 7    1  0.3223600E-013  0.5930196E+02  0.7816164E-02  0.1266605E+00
        -11   -1    0    0    0    0  0.00000000000E+00  0.00000000000E+00  0.45593999997E+02  0.45594000000E+02  0.51100000000E-03 0. -1.
         11   -1    0    0    0    0 -0.00000000000E+00 -0.00000000000E+00 -0.45593999997E+02  0.45594000000E+02  0.51100000000E-03 0.  1.
    9900012    2    1    2    0    0  0.26286736468E+02  0.17202440287E+02 -0.54592193702E+01  0.59301960075E+02  0.50000029266E+02 0.  0.
         12    1    1    2    0    0 -0.26286736468E+02 -0.17202440287E+02  0.54592193702E+01  0.31886039925E+02  0.00000000000E+00 0. -1.
         11    1    3    3    0    0  0.25604086774E+02 -0.92710024835E-02  0.35616053674E+01  0.25850616598E+02  0.51100000000E-03 0. -1.
        -11    1    3    3    0    0  0.70169832648E+01  0.19227317089E+02  0.20165805557E+01  0.20566827027E+02  0.51100000000E-03 0.  1.
        -12    1    3    3    0    0 -0.63343335702E+01 -0.20156057997E+01 -0.11037405293E+02  0.12884516449E+02  0.00000000000E+00 0.  1.
</event>
<event>
 7    1  0.3223600E-013  0.5930193E+02  0.7816164E-02  0.1266605E+00
        -11   -1    0    0    0    0  0.00000000000E+00  0.00000000000E+00  0.45593999997E+02  0.45594000000E+02  0.51100000000E-03 0.  1.
         11   -1    0    0    0    0 -0.00000000000E+00 -0.00000000000E+00 -0.45593999997E+02  0.45594000000E+02  0.51100000000E-03 0. -1.
    9900012    2    1    2    0    0 -0.11118648259E+02 -0.97729722882E+01  0.28241571212E+02  0.59301926692E+02  0.49999968384E+02 0.  0.
         12    1    1    2    0    0  0.11118648259E+02  0.97729722882E+01 -0.28241571212E+02  0.31886073308E+02  0.00000000000E+00 0. -1.
         11    1    3    3    0    0 -0.48625335571E+01 -0.18273927431E+02 -0.50277246184E+00  0.18916485846E+02  0.51100000000E-03 0. -1.
        -11    1    3    3    0    0 -0.98273796004E+01  0.41562901274E+01 -0.42524708519E+00  0.10678622232E+02  0.51100000000E-03 0.  1.
        -12    1    3    3    0    0  0.35712648988E+01  0.43446650156E+01  0.29169590759E+02  0.29706818614E+02  0.00000000000E+00 0.  1.
</event>
<event>
 7    1  0.3223600E-013  0.5930194E+02  0.7816164E-02  0.1266605E+00
        -11   -1    0    0    0    0  0.00000000000E+00  0.00000000000E+00  0.45593999997E+02  0.45594000000E+02  0.51100000000E-03 0.  1.
         11   -1    0    0    0    0 -0.00000000000E+00 -0.00000000000E+00 -0.45593999997E+02  0.45594000000E+02  0.51100000000E-03 0. -1.
    9900012    2    1    2    0    0 -0.10674645743E+02 -0.30023930615E+02 -0.11559867833E+01  0.59301940715E+02  0.49999993958E+02 0.  0.
         12    1    1    2    0    0  0.10674645743E+02  0.30023930615E+02  0.11559867833E+01  0.31886059285E+02  0.00000000000E+00 0. -1.
         11    1    3    3    0    0  0.93547056323E+01 -0.10383652947E+02 -0.16686081760E+02  0.21765938775E+02  0.51100000000E-03 0. -1.
        -11    1    3    3    0    0 -0.12668864005E+02 -0.12731674923E+02 -0.11948695035E+01  0.18000649292E+02  0.51100000000E-03 0.  1.
        -12    1    3    3    0    0 -0.73604873699E+01 -0.69086027448E+01  0.16724964480E+02  0.19535352648E+02  0.00000000000E+00 0.  1.
</event>
<event>
 7    1  0.3223600E-013  0.5930196E+02  0.7816164E-02  0.1266605E+00
        -11   -1    0    0    0    0  0.00000000000E+00  0.00000000000E+00  0.45593999997E+02  0.45594000000E+02  0.51100000000E-03 0.  1.
         11   -1    0    0    0    0 -0.00000000000E+00 -0.00000000000E+00 -0.45593999997E+02  0.45594000000E+02  0.51100000000E-03 0. -1.
    9900012    2    1    2    0    0 -0.13647126419E+01  0.27892676221E-02  0.31856820631E+02  0.59301961220E+02  0.50000031355E+02 0.  0.
         12    1    1    2    0    0  0.13647126419E+01 -0.27892676221E-02 -0.31856820631E+02  0.31886038780E+02  0.00000000000E+00 0. -1.
         11    1    3    3    0    0 -0.53981101979E+01 -0.42908865390E+00 -0.28523461621E+01  0.61204239781E+01  0.51100000000E-03 0. -1.
        -11    1    3    3    0    0 -0.15248150308E+02 -0.41779766273E+01  0.28174564987E+02  0.32307393720E+02  0.51100000000E-03 0.  1.
         12    1    3    3    0    0  0.19281547864E+02  0.46098545488E+01  0.65346018055E+01  0.20874143522E+02  0.00000000000E+00 0. -1.
</event>
<event>
 7    1  0.3223600E-013  0.5930195E+02  0.7816164E-02  0.1266605E+00
        -11   -1    0    0    0    0  0.00000000000E+00  0.00000000000E+00  0.45593999997E+02  0.45594000000E+02  0.51100000000E-03 0. -1.
         11   -1    0    0    0    0 -0.00000000000E+00 -0.00000000000E+00 -0.45593999997E+02  0.45594000000E+02  0.51100000000E-03 0.  1.
    9900012    2    1    2    0    0  0.74146856215E+01  0.18938227897E+02 -0.24557808134E+02  0.59301953223E+02  0.50000016769E+02 0.  0.
         12    1    1    2    0    0 -0.74146856215E+01 -0.18938227897E+02  0.24557808134E+02  0.31886046777E+02  0.00000000000E+00 0. -1.
         11    1    3    3    0    0  0.64307073696E+01  0.79080692837E+01 -0.12847345197E+02  0.16399568164E+02  0.51100000000E-03 0.  1.
        -11    1    3    3    0    0 -0.70636605235E+01 -0.93419771444E+00  0.12693734076E+02  0.14556747934E+02  0.51100000000E-03 0. -1.
         12    1    3    3    0    0  0.80476387755E+01  0.11964356328E+02 -0.24404197013E+02  0.28345637125E+02  0.00000000000E+00 0. -1.
</event>
<event>
 7    1  0.3223600E-013  0.5930197E+02  0.7816164E-02  0.1266605E+00
        -11   -1    0    0    0    0  0.00000000000E+00  0.00000000000E+00  0.45593999997E+02  0.45594000000E+02  0.51100000000E-03 0. -1.
         11   -1    0    0    0    0 -0.00000000000E+00 -0.00000000000E+00 -0.45593999997E+02  0.45594000000E+02  0.51100000000E-03 0.  1.
    9900012    2    1    2    0    0  0.21995010541E+02  0.20569675268E+02  0.10479833721E+02  0.59301969451E+02  0.50000046366E+02 0.  0.
         12    1    1    2    0    0 -0.21995010541E+02 -0.20569675268E+02 -0.10479833721E+02  0.31886030549E+02  0.00000000000E+00 0. -1.
         11    1    3    3    0    0 -0.33486518672E+01 -0.31447066678E+01 -0.59607966129E+01  0.75255395738E+01  0.51100000000E-03 0. -1.
        -11    1    3    3    0    0  0.97618589731E+01  0.14712587810E+02 -0.96195181641E+01  0.20106945582E+02  0.51100000000E-03 0.  1.
         12    1    3    3    0    0  0.15581803436E+02  0.90017941256E+01  0.26060148498E+02  0.31669484295E+02  0.00000000000E+00 0. -1.
</event>
<event>
 7    1  0.3223600E-013  0.5930200E+02  0.7816164E-02  0.1266605E+00
        -11   -1    0    0    0    0  0.00000000000E+00  0.00000000000E+00  0.45593999997E+02  0.45594000000E+02  0.51100000000E-03 0. -1.
         11   -1    0    0    0    0 -0.00000000000E+00 -0.00000000000E+00 -0.45593999997E+02  0.45594000000E+02  0.51100000000E-03 0.  1.
    9900012    2    1    2    0    0  0.18158503613E+02 -0.26135213766E+02 -0.19840485535E+01  0.59301998358E+02  0.50000099085E+02 0.  0.
         12    1    1    2    0    0 -0.18158503613E+02  0.26135213766E+02  0.19840485535E+01  0.31886001642E+02  0.00000000000E+00 0. -1.
         11    1    3    3    0    0  0.15533842321E+02  0.29063675136E+01 -0.17368599805E+01  0.15898550633E+02  0.51100000000E-03 0.  1.
        -11    1    3    3    0    0 -0.91511981854E+01  0.11465519545E+01 -0.52555371029E+01  0.10615068540E+02  0.51100000000E-03 0. -1.
         12    1    3    3    0    0  0.11775859478E+02 -0.30188133234E+02  0.50083485299E+01  0.32788379185E+02  0.00000000000E+00 0. -1.
</event>
<event>
 7    1  0.3223600E-013  0.5930194E+02  0.7816164E-02  0.1266605E+00
        -11   -1    0    0    0    0  0.00000000000E+00  0.00000000000E+00  0.45593999997E+02  0.45594000000E+02  0.51100000000E-03 0.  1.
         11   -1    0    0    0    0 -0.00000000000E+00 -0.00000000000E+00 -0.45593999997E+02  0.45594000000E+02  0.51100000000E-03 0. -1.
    9900012    2    1    2    0    0 -0.10514949183E+02 -0.30038130953E+02  0.19665698222E+01  0.59301939341E+02  0.49999991453E+02 0.  0.
         12    1    1    2    0    0  0.10514949183E+02  0.30038130953E+02 -0.19665698222E+01  0.31886060659E+02  0.00000000000E+00 0. -1.
         11    1    3    3    0    0 -0.43960351086E+01 -0.31230685995E+01  0.17655384225E+01  0.56741350297E+01  0.51100000000E-03 0. -1.
        -11    1    3    3    0    0 -0.15317577679E+02 -0.50156253672E+01 -0.17659563835E+02  0.23909096153E+02  0.51100000000E-03 0.  1.
         12    1    3    3    0    0  0.91986636051E+01 -0.21899436987E+02  0.17860595234E+02  0.29718708158E+02  0.00000000000E+00 0. -1.
</event>
<event>
 7    1  0.3223600E-013  0.5930193E+02  0.7816164E-02  0.1266605E+00
        -11   -1    0    0    0    0  0.00000000000E+00  0.00000000000E+00  0.45593999997E+02  0.45594000000E+02  0.51100000000E-03 0.  1.
         11   -1    0    0    0    0 -0.00000000000E+00 -0.00000000000E+00 -0.45593999997E+02  0.45594000000E+02  0.51100000000E-03 0. -1.
    9900012    2    1    2    0    0  0.12089052181E+02  0.15343576283E+02  0.25202203480E+02  0.59301928181E+02  0.49999971099E+02 0.  0.
         12    1    1    2    0    0 -0.12089052181E+02 -0.15343576283E+02 -0.25202203480E+02  0.31886071819E+02  0.00000000000E+00 0. -1.
         11    1    3    3    0    0  0.16009469880E+01 -0.10954961874E+02  0.62889865397E+00  0.11089171957E+02  0.51100000000E-03 0. -1.
        -11    1    3    3    0    0  0.38160457689E+01 -0.13582517684E+01 -0.54894688307E+01  0.68221200137E+01  0.51100000000E-03 0.  1.
        -12    1    3    3    0    0  0.66720594244E+01  0.27656789925E+02  0.30062773657E+02  0.41390636210E+02  0.00000000000E+00 0.  1.
</event>
<event>
 7    1  0.3223600E-013  0.5930195E+02  0.7816164E-02  0.1266605E+00
        -11   -1    0    0    0    0  0.00000000000E+00  0.00000000000E+00  0.45593999997E+02  0.45594000000E+02  0.51100000000E-03 0. -1.
         11   -1    0    0    0    0 -0.00000000000E+00 -0.00000000000E+00 -0.45593999997E+02  0.45594000000E+02  0.51100000000E-03 0.  1.
    9900012    2    1    2    0    0 -0.83591095855E+01  0.30363417603E+02  0.49908288784E+01  0.59301949531E+02  0.50000010036E+02 0.  0.
         12    1    1    2    0    0  0.83591095855E+01 -0.30363417603E+02 -0.49908288784E+01  0.31886050469E+02  0.00000000000E+00 0. -1.
         11    1    3    3    0    0 -0.29863299336E+01 -0.45340882613E+01 -0.41961296559E+01  0.68617510290E+01  0.51100000000E-03 0. -1.
        -11    1    3    3    0    0  0.90244274396E+01 -0.24083282537E+01 -0.42413818452E+01  0.10258150701E+02  0.51100000000E-03 0.  1.
        -12    1    3    3    0    0 -0.14397207091E+02  0.37305834118E+02  0.13428340380E+02  0.42182047801E+02  0.00000000000E+00 0.  1.
</event>
<event>
 7    1  0.3223600E-013  0.5930192E+02  0.7816164E-02  0.1266605E+00
        -11   -1    0    0    0    0  0.00000000000E+00  0.00000000000E+00  0.45593999997E+02  0.45594000000E+02  0.51100000000E-03 0.  1.
         11   -1    0    0    0    0 -0.00000000000E+00 -0.00000000000E+00 -0.45593999997E+02  0.45594000000E+02  0.51100000000E-03 0. -1.
    9900012    2    1    2    0    0 -0.18760899597E+02 -0.13056094989E+02  0.22232610787E+02  0.59301922279E+02  0.49999960335E+02 0.  0.
         12    1    1    2    0    0  0.18760899597E+02  0.13056094989E+02 -0.22232610787E+02  0.31886077721E+02  0.00000000000E+00 0. -1.
         11    1    3    3    0    0 -0.21162393886E+02 -0.59631513835E+01  0.21296850099E+02  0.30609833612E+02  0.51100000000E-03 0. -1.
        -11    1    3    3    0    0 -0.50940343091E+00 -0.13627468398E+02  0.10169632998E+02  0.17011432108E+02  0.51100000000E-03 0.  1.
        -12    1    3    3    0    0  0.29108977199E+01  0.65345247928E+01 -0.92338723096E+01  0.11680656558E+02  0.00000000000E+00 0.  1.
</event>
<event>
 7    1  0.3223600E-013  0.5930198E+02  0.7816164E-02  0.1266605E+00
        -11   -1    0    0    0    0  0.00000000000E+00  0.00000000000E+00  0.45593999997E+02  0.45594000000E+02  0.51100000000E-03 0. -1.
         11   -1    0    0    0    0 -0.00000000000E+00 -0.00000000000E+00 -0.45593999997E+02  0.45594000000E+02  0.51100000000E-03 0.  1.
    9900012    2    1    2    0    0  0.98938375955E+01  0.78841818337E+01 -0.29268919633E+02  0.59301984224E+02  0.50000073309E+02 0.  0.
         12    1    1    2    0    0 -0.98938375955E+01 -0.78841818337E+01  0.29268919633E+02  0.31886015776E+02  0.00000000000E+00 0. -1.
         11    1    3    3    0    0 -0.10565590288E+02 -0.22219869152E+01 -0.12488528688E+02  0.16508551513E+02  0.51100000000E-03 0. -1.
        -11    1    3    3    0    0 -0.49297086433E+01  0.12608153009E+02 -0.32793824946E+01  0.13929174398E+02  0.51100000000E-03 0.  1.
         12    1    3    3    0    0  0.25389136527E+02 -0.25019842601E+01 -0.13501008450E+02  0.28864258314E+02  0.00000000000E+00 0. -1.
</event>
<event>
 7    1  0.3223600E-013  0.5930194E+02  0.7816164E-02  0.1266605E+00
        -11   -1    0    0    0    0  0.00000000000E+00  0.00000000000E+00  0.45593999997E+02  0.45594000000E+02  0.51100000000E-03 0. -1.
         11   -1    0    0    0    0 -0.00000000000E+00 -0.00000000000E+00 -0.45593999997E+02  0.45594000000E+02  0.51100000000E-03 0.  1.
    9900012    2    1    2    0    0  0.26169658404E+02  0.28112592914E+00 -0.18215123465E+02  0.59301940732E+02  0.49999993990E+02 0.  0.
         12    1    1    2    0    0 -0.26169658404E+02 -0.28112592914E+00  0.18215123465E+02  0.31886059268E+02  0.00000000000E+00 0. -1.
         11    1    3    3    0    0 -0.32358949778E+01 -0.64111790950E+00  0.49957245995E+01  0.59865944423E+01  0.51100000000E-03 0. -1.
        -11    1    3    3    0    0 -0.40103487763E-01  0.13365207645E+02  0.71810497608E+00  0.13384545517E+02  0.51100000000E-03 0.  1.
        -12    1    3    3    0    0  0.29445656870E+02 -0.12442963806E+02 -0.23928953041E+02  0.39930800773E+02  0.00000000000E+00 0.  1.
</event>
<event>
 7    1  0.3223600E-013  0.5930192E+02  0.7816164E-02  0.1266605E+00
        -11   -1    0    0    0    0  0.00000000000E+00  0.00000000000E+00  0.45593999997E+02  0.45594000000E+02  0.51100000000E-03 0.  1.
         11   -1    0    0    0    0 -0.00000000000E+00 -0.00000000000E+00 -0.45593999997E+02  0.45594000000E+02  0.51100000000E-03 0. -1.
    9900012    2    1    2    0    0  0.26417638984E+02  0.14521575533E+02  0.10390110030E+02  0.59301918524E+02  0.49999953487E+02 0.  0.
         12    1    1    2    0    0 -0.26417638984E+02 -0.14521575533E+02 -0.10390110030E+02  0.31886081476E+02  0.00000000000E+00 0. -1.
         11    1    3    3    0    0 -0.58955015768E+01 -0.10077307412E+01  0.20041673904E+01  0.63078639236E+01  0.51100000000E-03 0. -1.
        -11    1    3    3    0    0 -0.25232235079E+01  0.96081070772E+01  0.14049863675E+02  0.17207005783E+02  0.51100000000E-03 0.  1.
        -12    1    3    3    0    0  0.34836364069E+02  0.59211991973E+01 -0.56639210355E+01  0.35787048816E+02  0.00000000000E+00 0.  1.
</event>
<event>
 7    1  0.3223600E-013  0.5930193E+02  0.7816164E-02  0.1266605E+00
        -11   -1    0    0    0    0  0.00000000000E+00  0.00000000000E+00  0.45593999997E+02  0.45594000000E+02  0.51100000000E-03 0. -1.
         11   -1    0    0    0    0 -0.00000000000E+00 -0.00000000000E+00 -0.45593999997E+02  0.45594000000E+02  0.51100000000E-03 0.  1.
    9900012    2    1    2    0    0 -0.27587220626E+02 -0.96606938944E+00 -0.15960364893E+02  0.59301932832E+02  0.49999979582E+02 0.  0.
         12    1    1    2    0    0  0.27587220626E+02  0.96606938944E+00  0.15960364893E+02  0.31886067168E+02  0.00000000000E+00 0. -1.
         11    1    3    3    0    0  0.64365841157E+01  0.31265507237E+01 -0.98116169761E+00  0.72227150743E+01  0.51100000000E-03 0. -1.
        -11    1    3    3    0    0 -0.10893316063E+02 -0.16048437183E+02 -0.17230612731E+02  0.25944376774E+02  0.51100000000E-03 0.  1.
        -12    1    3    3    0    0 -0.23130488679E+02  0.11955817070E+02  0.22514095356E+01  0.26134840984E+02  0.00000000000E+00 0.  1.
</event>
<event>
 7    1  0.3223600E-013  0.5930195E+02  0.7816164E-02  0.1266605E+00
        -11   -1    0    0    0    0  0.00000000000E+00  0.00000000000E+00  0.45593999997E+02  0.45594000000E+02  0.51100000000E-03 0.  1.
         11   -1    0    0    0    0 -0.00000000000E+00 -0.00000000000E+00 -0.45593999997E+02  0.45594000000E+02  0.51100000000E-03 0. -1.
    9900012    2    1    2    0    0 -0.23886093413E+02  0.52779717982E+01  0.20452818103E+02  0.59301949552E+02  0.50000010074E+02 0.  0.
         12    1    1    2    0    0  0.23886093413E+02 -0.52779717982E+01 -0.20452818103E+02  0.31886050448E+02  0.00000000000E+00 0. -1.
         11    1    3    3    0    0  0.79075566807E+01 -0.18223721202E+01 -0.63774681686E+01  0.10320978311E+02  0.51100000000E-03 0. -1.
        -11    1    3    3    0    0 -0.65756193304E+01  0.14444293054E+01 -0.47010920874E+01  0.82112978677E+01  0.51100000000E-03 0.  1.
        -12    1    3    3    0    0 -0.25218030763E+02  0.56559146131E+01  0.31531378359E+02  0.40769673373E+02  0.00000000000E+00 0.  1.
</event>
<event>
 7    1  0.3223600E-013  0.5930194E+02  0.7816164E-02  0.1266605E+00
        -11   -1    0    0    0    0  0.00000000000E+00  0.00000000000E+00  0.45593999997E+02  0.45594000000E+02  0.51100000000E-03 0.  1.
         11   -1    0    0    0    0 -0.00000000000E+00 -0.00000000000E+00 -0.45593999997E+02  0.45594000000E+02  0.51100000000E-03 0. -1.
    9900012    2    1    2    0    0 -0.17299066271E+02  0.18971359626E+02  0.18909003663E+02  0.59301943495E+02  0.49999999028E+02 0.  0.
         12    1    1    2    0    0  0.17299066271E+02 -0.18971359626E+02 -0.18909003663E+02  0.31886056505E+02  0.00000000000E+00 0. -1.
         11    1    3    3    0    0  0.28585069836E+01  0.98931527395E+00  0.22997360372E+02  0.23195439018E+02  0.51100000000E-03 0. -1.
        -11    1    3    3    0    0  0.49835831580E+01  0.62727392117E+01 -0.22003409732E+01  0.83081200624E+01  0.51100000000E-03 0.  1.
        -12    1    3    3    0    0 -0.25141156413E+02  0.11709305141E+02 -0.18880157357E+01  0.27798384414E+02  0.00000000000E+00 0.  1.
</event>
<event>
 7    1  0.3223600E-013  0.5930196E+02  0.7816164E-02  0.1266605E+00
        -11   -1    0    0    0    0  0.00000000000E+00  0.00000000000E+00  0.45593999997E+02  0.45594000000E+02  0.51100000000E-03 0.  1.
         11   -1    0    0    0    0 -0.00000000000E+00 -0.00000000000E+00 -0.45593999997E+02  0.45594000000E+02  0.51100000000E-03 0. -1.
    9900012    2    1    2    0    0  0.18327150831E+02 -0.62876184883E+01  0.25323919607E+02  0.59301960608E+02  0.50000030238E+02 0.  0.
         12    1    1    2    0    0 -0.18327150831E+02  0.62876184883E+01 -0.25323919607E+02  0.31886039392E+02  0.00000000000E+00 0. -1.
         11    1    3    3    0    0  0.24870308799E+00 -0.11146587218E+01  0.74781281863E+01  0.75648343487E+01  0.51100000000E-03 0. -1.
        -11    1    3    3    0    0  0.23689080643E+02  0.24767149022E+01  0.28716694451E+02  0.37308915810E+02  0.51100000000E-03 0.  1.
         12    1    3    3    0    0 -0.56106329000E+01 -0.76496746687E+01 -0.10870903030E+02  0.14428210449E+02  0.00000000000E+00 0. -1.
</event>
<event>
 7    1  0.3223600E-013  0.5930193E+02  0.7816164E-02  0.1266605E+00
        -11   -1    0    0    0    0  0.00000000000E+00  0.00000000000E+00  0.45593999997E+02  0.45594000000E+02  0.51100000000E-03 0.  1.
         11   -1    0    0    0    0 -0.00000000000E+00 -0.00000000000E+00 -0.45593999997E+02  0.45594000000E+02  0.51100000000E-03 0. -1.
    9900012    2    1    2    0    0 -0.84225336901E+01 -0.16321466113E+02  0.26065148684E+02  0.59301932419E+02  0.49999978829E+02 0.  0.
         12    1    1    2    0    0  0.84225336901E+01  0.16321466113E+02 -0.26065148684E+02  0.31886067581E+02  0.00000000000E+00 0. -1.
         11    1    3    3    0    0  0.91033145397E+01 -0.15199397385E+02 -0.58819422180E+01  0.18667867071E+02  0.51100000000E-03 0. -1.
        -11    1    3    3    0    0 -0.76260286956E+01  0.65926213214E+01  0.57983990705E+01  0.11629290675E+02  0.51100000000E-03 0.  1.
        -12    1    3    3    0    0 -0.98998195341E+01 -0.77146900495E+01  0.26148691832E+02  0.29004774674E+02  0.00000000000E+00 0.  1.
</event>
<event>
 7    1  0.3223600E-013  0.5930193E+02  0.7816164E-02  0.1266605E+00
        -11   -1    0    0    0    0  0.00000000000E+00  0.00000000000E+00  0.45593999997E+02  0.45594000000E+02  0.51100000000E-03 0.  1.
         11   -1    0    0    0    0 -0.00000000000E+00 -0.00000000000E+00 -0.45593999997E+02  0.45594000000E+02  0.51100000000E-03 0. -1.
    9900012    2    1    2    0    0 -0.10029750223E+02  0.85578065546E+01  0.29032554703E+02  0.59301934467E+02  0.49999982564E+02 0.  0.
         12    1    1    2    0    0  0.10029750223E+02 -0.85578065546E+01 -0.29032554703E+02  0.31886065533E+02  0.00000000000E+00 0. -1.
         11    1    3    3    0    0 -0.31469212925E+01 -0.71547108997E+01 -0.20814556132E+01  0.80886005842E+01  0.51100000000E-03 0. -1.
        -11    1    3    3    0    0 -0.94423520425E+01 -0.78654912025E+01  0.23124652325E+02  0.26187277624E+02  0.51100000000E-03 0.  1.
        -12    1    3    3    0    0  0.25595231119E+01  0.23578008657E+02  0.79893579919E+01  0.25026056259E+02  0.00000000000E+00 0.  1.
</event>
<event>
 7    1  0.3223600E-013  0.5930193E+02  0.7816164E-02  0.1266605E+00
        -11   -1    0    0    0    0  0.00000000000E+00  0.00000000000E+00  0.45593999997E+02  0.45594000000E+02  0.51100000000E-03 0.  1.
         11   -1    0    0    0    0 -0.00000000000E+00 -0.00000000000E+00 -0.45593999997E+02  0.45594000000E+02  0.51100000000E-03 0. -1.
    9900012    2    1    2    0    0  0.10248301555E+02  0.13607486470E+02  0.26954217354E+02  0.59301933985E+02  0.49999981684E+02 0.  0.
         12    1    1    2    0    0 -0.10248301555E+02 -0.13607486470E+02 -0.26954217354E+02  0.31886066015E+02  0.00000000000E+00 0. -1.
         11    1    3    3    0    0 -0.11983177519E+02  0.13008425067E+02  0.23215078662E+02  0.29184851272E+02  0.51100000000E-03 0. -1.
        -11    1    3    3    0    0  0.37779389172E+01 -0.84695204916E+01  0.36872267560E+00  0.92812475719E+01  0.51100000000E-03 0.  1.
        -12    1    3    3    0    0  0.18453540157E+02  0.90685818946E+01  0.33704160159E+01  0.20835835141E+02  0.00000000000E+00 0.  1.
</event>
<event>
 7    1  0.3223600E-013  0.5930194E+02  0.7816164E-02  0.1266605E+00
        -11   -1    0    0    0    0  0.00000000000E+00  0.00000000000E+00  0.45593999997E+02  0.45594000000E+02  0.51100000000E-03 0.  1.
         11   -1    0    0    0    0 -0.00000000000E+00 -0.00000000000E+00 -0.45593999997E+02  0.45594000000E+02  0.51100000000E-03 0. -1.
    9900012    2    1    2    0    0 -0.26312085703E+02  0.68135881094E+01  0.16672427457E+02  0.59301942322E+02  0.49999996889E+02 0.  0.
         12    1    1    2    0    0  0.26312085703E+02 -0.68135881094E+01 -0.16672427457E+02  0.31886057678E+02  0.00000000000E+00 0. -1.
         11    1    3    3    0    0  0.11919800463E+01  0.36221411864E+01  0.36691725653E+01  0.52918381287E+01  0.51100000000E-03 0. -1.
        -11    1    3    3    0    0  0.61527898046E+01 -0.59924675435E+01  0.16848638904E+02  0.18911454805E+02  0.51100000000E-03 0.  1.
        -12    1    3    3    0    0 -0.33656855554E+02  0.91839144665E+01 -0.38453840126E+01  0.35098649388E+02  0.00000000000E+00 0.  1.
</event>
<event>
 7    1  0.3223600E-013  0.5930197E+02  0.7816164E-02  0.1266605E+00
        -11   -1    0    0    0    0  0.00000000000E+00  0.00000000000E+00  0.45593999997E+02  0.45594000000E+02  0.51100000000E-03 0. -1.
         11   -1    0    0    0    0 -0.00000000000E+00 -0.00000000000E+00 -0.45593999997E+02  0.45594000000E+02  0.51100000000E-03 0.  1.
    9900012    2    1    2    0    0  0.60451523699E+01 -0.30483573989E+02 -0.71362974224E+01  0.59301970281E+02  0.50000047880E+02 0.  0.
         12    1    1    2    0    0 -0.60451523699E+01  0.30483573989E+02  0.71362974224E+01  0.31886029719E+02  0.00000000000E+00 0. -1.
         11    1    3    3    0    0  0.58342889189E+01  0.92977392211E+01 -0.31210349317E+01  0.11411736990E+02  0.51100000000E-03 0. -1.
        -11    1    3    3    0    0 -0.69254177103E+01 -0.68299547407E+01  0.74788036922E+01  0.12269563853E+02  0.51100000000E-03 0.  1.
        -12    1    3    3    0    0  0.71362811614E+01 -0.32951358470E+02 -0.11494066183E+02  0.35620669438E+02  0.00000000000E+00 0.  1.
</event>
<event>
 7    1  0.3223600E-013  0.5930204E+02  0.7816164E-02  0.1266604E+00
        -11   -1    0    0    0    0  0.00000000000E+00  0.00000000000E+00  0.45593999997E+02  0.45594000000E+02  0.51100000000E-03 0.  1.
         11   -1    0    0    0    0 -0.00000000000E+00 -0.00000000000E+00 -0.45593999997E+02  0.45594000000E+02  0.51100000000E-03 0. -1.
    9900012    2    1    2    0    0 -0.11076340671E+01 -0.20974650617E+02  0.23990657428E+02  0.59302039679E+02  0.50000174446E+02 0.  0.
         12    1    1    2    0    0  0.11076340671E+01  0.20974650617E+02 -0.23990657428E+02  0.31885960321E+02  0.00000000000E+00 0. -1.
         11    1    3    3    0    0  0.78893325432E+01  0.17969186087E+00 -0.99381626688E+01  0.12690190489E+02  0.51100000000E-03 0. -1.
        -11    1    3    3    0    0 -0.31878759348E+01  0.25850407460E+01  0.15413165260E+02  0.15950255554E+02  0.51100000000E-03 0.  1.
        -12    1    3    3    0    0 -0.58090906756E+01 -0.23739383224E+02  0.18515654836E+02  0.30661593637E+02  0.00000000000E+00 0.  1.
</event>
<event>
 7    1  0.3223600E-013  0.5930194E+02  0.7816164E-02  0.1266605E+00
        -11   -1    0    0    0    0  0.00000000000E+00  0.00000000000E+00  0.45593999997E+02  0.45594000000E+02  0.51100000000E-03 0.  1.
         11   -1    0    0    0    0 -0.00000000000E+00 -0.00000000000E+00 -0.45593999997E+02  0.45594000000E+02  0.51100000000E-03 0. -1.
    9900012    2    1    2    0    0 -0.16134591450E+02  0.19779247999E+01  0.27431436367E+02  0.59301938328E+02  0.49999989606E+02 0.  0.
         12    1    1    2    0    0  0.16134591450E+02 -0.19779247999E+01 -0.27431436367E+02  0.31886061672E+02  0.00000000000E+00 0. -1.
         11    1    3    3    0    0  0.12446744298E+01  0.97241290650E+01 -0.48912147578E+01  0.10955906287E+02  0.51100000000E-03 0. -1.
        -11    1    3    3    0    0  0.86628460434E+01 -0.42846462047E+01  0.80435394635E+01  0.12573846748E+02  0.51100000000E-03 0.  1.
        -12    1    3    3    0    0 -0.26042111923E+02 -0.34615580604E+01  0.24279111661E+02  0.35772185294E+02  0.00000000000E+00 0.  1.
</event>
<event>
 7    1  0.3223600E-013  0.5930189E+02  0.7816164E-02  0.1266605E+00
        -11   -1    0    0    0    0  0.00000000000E+00  0.00000000000E+00  0.45593999997E+02  0.45594000000E+02  0.51100000000E-03 0.  1.
         11   -1    0    0    0    0 -0.00000000000E+00 -0.00000000000E+00 -0.45593999997E+02  0.45594000000E+02  0.51100000000E-03 0. -1.
    9900012    2    1    2    0    0  0.31754734621E+02  0.28630551828E+01 -0.40444728289E+00  0.59301892784E+02  0.49999906543E+02 0.  0.
         12    1    1    2    0    0 -0.31754734621E+02 -0.28630551828E+01  0.40444728289E+00  0.31886107216E+02  0.00000000000E+00 0. -1.
         11    1    3    3    0    0  0.12925520638E+02  0.16066265751E+02 -0.19536126786E+02  0.28405179616E+02  0.51100000000E-03 0. -1.
        -11    1    3    3    0    0  0.49562580631E+00 -0.33342694502E+01  0.18970722388E+01  0.38680590801E+01  0.51100000000E-03 0.  1.
        -12    1    3    3    0    0  0.18333588176E+02 -0.98689411181E+01  0.17234607265E+02  0.27028654087E+02  0.00000000000E+00 0.  1.
</event>
<event>
 7    1  0.3223600E-013  0.5930195E+02  0.7816164E-02  0.1266605E+00
        -11   -1    0    0    0    0  0.00000000000E+00  0.00000000000E+00  0.45593999997E+02  0.45594000000E+02  0.51100000000E-03 0.  1.
         11   -1    0    0    0    0 -0.00000000000E+00 -0.00000000000E+00 -0.45593999997E+02  0.45594000000E+02  0.51100000000E-03 0. -1.
    9900012    2    1    2    0    0 -0.19415066525E+02 -0.25153506361E+02 -0.26601921674E+01  0.59301947990E+02  0.50000007227E+02 0.  0.
         12    1    1    2    0    0  0.19415066525E+02  0.25153506361E+02  0.26601921674E+01  0.31886052010E+02  0.00000000000E+00 0. -1.
         11    1    3    3    0    0  0.90232552348E+01 -0.11322228787E+02 -0.51135374107E+01  0.15354486798E+02  0.51100000000E-03 0. -1.
        -11    1    3    3    0    0 -0.11186375392E+02 -0.21459446712E+02 -0.28128719096E+01  0.24362986193E+02  0.51100000000E-03 0.  1.
         12    1    3    3    0    0 -0.17251946368E+02  0.76281691383E+01  0.52662171529E+01  0.19584474999E+02  0.00000000000E+00 0. -1.
</event>
<event>
 7    1  0.3223600E-013  0.5930225E+02  0.7816164E-02  0.1266604E+00
        -11   -1    0    0    0    0  0.00000000000E+00  0.00000000000E+00  0.45593999997E+02  0.45594000000E+02  0.51100000000E-03 0.  1.
         11   -1    0    0    0    0 -0.00000000000E+00 -0.00000000000E+00 -0.45593999997E+02  0.45594000000E+02  0.51100000000E-03 0. -1.
    9900012    2    1    2    0    0  0.15507271239E+02  0.26705994575E+02  0.79382305675E+01  0.59302249074E+02  0.50000556329E+02 0.  0.
         12    1    1    2    0    0 -0.15507271239E+02 -0.26705994575E+02 -0.79382305675E+01  0.31885750926E+02  0.00000000000E+00 0. -1.
         11    1    3    3    0    0  0.27594289872E+01  0.18702636571E+02  0.20625332164E+00  0.18906231875E+02  0.51100000000E-03 0. -1.
        -11    1    3    3    0    0 -0.12357484517E+02 -0.21134880486E+01  0.33472091378E+01  0.12976057359E+02  0.51100000000E-03 0.  1.
         12    1    3    3    0    0  0.25105326769E+02  0.10116846053E+02  0.43847681081E+01  0.27419959840E+02  0.00000000000E+00 0. -1.
</event>
<event>
 7    1  0.3223600E-013  0.5930194E+02  0.7816164E-02  0.1266605E+00
        -11   -1    0    0    0    0  0.00000000000E+00  0.00000000000E+00  0.45593999997E+02  0.45594000000E+02  0.51100000000E-03 0.  1.
         11   -1    0    0    0    0 -0.00000000000E+00 -0.00000000000E+00 -0.45593999997E+02  0.45594000000E+02  0.51100000000E-03 0. -1.
    9900012    2    1    2    0    0 -0.26968710843E+02  0.34233245969E+01  0.16664051356E+02  0.59301935279E+02  0.49999984044E+02 0.  0.
         12    1    1    2    0    0  0.26968710843E+02 -0.34233245969E+01 -0.16664051356E+02  0.31886064721E+02  0.00000000000E+00 0. -1.
         11    1    3    3    0    0 -0.13018128089E+02  0.14026625295E+02 -0.53780530106E+00  0.19144375438E+02  0.51100000000E-03 0. -1.
        -11    1    3    3    0    0 -0.22952632760E+02 -0.34003155102E+01  0.57446016974E+01  0.23903680577E+02  0.51100000000E-03 0.  1.
         12    1    3    3    0    0  0.90020500065E+01 -0.72029851875E+01  0.11457254959E+02  0.16253879264E+02  0.00000000000E+00 0. -1.
</event>
<event>
 7    1  0.3223600E-013  0.5930194E+02  0.7816164E-02  0.1266605E+00
        -11   -1    0    0    0    0  0.00000000000E+00  0.00000000000E+00  0.45593999997E+02  0.45594000000E+02  0.51100000000E-03 0.  1.
         11   -1    0    0    0    0 -0.00000000000E+00 -0.00000000000E+00 -0.45593999997E+02  0.45594000000E+02  0.51100000000E-03 0. -1.
    9900012    2    1    2    0    0  0.29870167117E+01 -0.19207316150E+02 -0.25276030842E+02  0.59301937250E+02  0.49999987640E+02 0.  0.
         12    1    1    2    0    0 -0.29870167117E+01  0.19207316150E+02  0.25276030842E+02  0.31886062750E+02  0.00000000000E+00 0. -1.
         11    1    3    3    0    0  0.19206809320E+01 -0.90178049604E+01 -0.24952695416E+02  0.26601632099E+02  0.51100000000E-03 0. -1.
        -11    1    3    3    0    0 -0.76148969872E+00  0.47557190089E+01 -0.12461783986E+02  0.13360119394E+02  0.51100000000E-03 0.  1.
        -12    1    3    3    0    0  0.18278254784E+01 -0.14945230199E+02  0.12138448560E+02  0.19340185757E+02  0.00000000000E+00 0.  1.
</event>
<event>
 7    1  0.3223600E-013  0.5930195E+02  0.7816164E-02  0.1266605E+00
        -11   -1    0    0    0    0  0.00000000000E+00  0.00000000000E+00  0.45593999997E+02  0.45594000000E+02  0.51100000000E-03 0.  1.
         11   -1    0    0    0    0 -0.00000000000E+00 -0.00000000000E+00 -0.45593999997E+02  0.45594000000E+02  0.51100000000E-03 0. -1.
    9900012    2    1    2    0    0 -0.46085274459E+00  0.13287018341E+02  0.28982112718E+02  0.59301951339E+02  0.50000013333E+02 0.  0.
         12    1    1    2    0    0  0.46085274459E+00 -0.13287018341E+02 -0.28982112718E+02  0.31886048661E+02  0.00000000000E+00 0. -1.
         11    1    3    3    0    0  0.83371411274E+01  0.63195549527E+01  0.18980175144E+02  0.21672372868E+02  0.51100000000E-03 0. -1.
        -11    1    3    3    0    0  0.49167045803E+00  0.39964207339E+01  0.21887361172E+02  0.22254655644E+02  0.51100000000E-03 0.  1.
        -12    1    3    3    0    0 -0.92896643300E+01  0.29710426545E+01 -0.11885423598E+02  0.15374922826E+02  0.00000000000E+00 0.  1.
</event>
<event>
 7    1  0.3223600E-013  0.5930186E+02  0.7816164E-02  0.1266605E+00
        -11   -1    0    0    0    0  0.00000000000E+00  0.00000000000E+00  0.45593999997E+02  0.45594000000E+02  0.51100000000E-03 0. -1.
         11   -1    0    0    0    0 -0.00000000000E+00 -0.00000000000E+00 -0.45593999997E+02  0.45594000000E+02  0.51100000000E-03 0.  1.
    9900012    2    1    2    0    0  0.11999455995E+02 -0.29440526001E+02  0.24483433184E+01  0.59301860372E+02  0.49999847432E+02 0.  0.
         12    1    1    2    0    0 -0.11999455995E+02  0.29440526001E+02 -0.24483433184E+01  0.31886139628E+02  0.00000000000E+00 0. -1.
         11    1    3    3    0    0 -0.32193609599E+01 -0.62785365940E+01  0.83272972436E+01  0.10914585947E+02  0.51100000000E-03 0. -1.
        -11    1    3    3    0    0  0.14072992212E+02 -0.38021803115E+01  0.14285369283E+02  0.20410229316E+02  0.51100000000E-03 0.  1.
        -12    1    3    3    0    0  0.11458247430E+01 -0.19359809095E+02 -0.20164323208E+02  0.27977045108E+02  0.00000000000E+00 0.  1.
</event>
<event>
 7    1  0.3223600E-013  0.5930193E+02  0.7816164E-02  0.1266605E+00
        -11   -1    0    0    0    0  0.00000000000E+00  0.00000000000E+00  0.45593999997E+02  0.45594000000E+02  0.51100000000E-03 0. -1.
         11   -1    0    0    0    0 -0.00000000000E+00 -0.00000000000E+00 -0.45593999997E+02  0.45594000000E+02  0.51100000000E-03 0.  1.
    9900012    2    1    2    0    0 -0.13601099341E+02 -0.13317071010E+02 -0.25580986535E+02  0.59301934773E+02  0.49999983121E+02 0.  0.
         12    1    1    2    0    0  0.13601099341E+02  0.13317071010E+02  0.25580986535E+02  0.31886065227E+02  0.00000000000E+00 0. -1.
         11    1    3    3    0    0  0.64864575760E+01  0.73387463603E+01 -0.20176306916E+01  0.10000108194E+02  0.51100000000E-03 0. -1.
        -11    1    3    3    0    0  0.11918771303E+01 -0.21131602697E+01 -0.20801085867E+02  0.20942091369E+02  0.51100000000E-03 0.  1.
         12    1    3    3    0    0 -0.21279434047E+02 -0.18542657100E+02 -0.27622699769E+01  0.28359735209E+02  0.00000000000E+00 0. -1.
</event>
<event>
 7    1  0.3223600E-013  0.5930194E+02  0.7816164E-02  0.1266605E+00
        -11   -1    0    0    0    0  0.00000000000E+00  0.00000000000E+00  0.45593999997E+02  0.45594000000E+02  0.51100000000E-03 0. -1.
         11   -1    0    0    0    0 -0.00000000000E+00 -0.00000000000E+00 -0.45593999997E+02  0.45594000000E+02  0.51100000000E-03 0.  1.
    9900012    2    1    2    0    0  0.22752500731E+02  0.44188665616E+01 -0.21897899283E+02  0.59301942479E+02  0.49999997176E+02 0.  0.
         12    1    1    2    0    0 -0.22752500731E+02 -0.44188665616E+01  0.21897899283E+02  0.31886057521E+02  0.00000000000E+00 0. -1.
         11    1    3    3    0    0 -0.75628892076E+00  0.13606176882E+02 -0.10076211582E+02  0.16947863062E+02  0.51100000000E-03 0. -1.
        -11    1    3    3    0    0  0.19604067446E+01 -0.14033978529E+01 -0.18368370012E+02  0.18525920687E+02  0.51100000000E-03 0.  1.
         12    1    3    3    0    0  0.21548382907E+02 -0.77839124672E+01  0.65466823105E+01  0.23828158731E+02  0.00000000000E+00 0. -1.
</event>
<event>
 7    1  0.3223600E-013  0.5930192E+02  0.7816164E-02  0.1266605E+00
        -11   -1    0    0    0    0  0.00000000000E+00  0.00000000000E+00  0.45593999997E+02  0.45594000000E+02  0.51100000000E-03 0.  1.
         11   -1    0    0    0    0 -0.00000000000E+00 -0.00000000000E+00 -0.45593999997E+02  0.45594000000E+02  0.51100000000E-03 0. -1.
    9900012    2    1    2    0    0  0.29845610370E+02 -0.23979558268E+01  0.10964108653E+02  0.59301916373E+02  0.49999949565E+02 0.  0.
         12    1    1    2    0    0 -0.29845610370E+02  0.23979558268E+01 -0.10964108653E+02  0.31886083627E+02  0.00000000000E+00 0. -1.
         11    1    3    3    0    0  0.36325067353E+01 -0.52708151079E+01  0.29673537931E+01  0.70556208712E+01  0.51100000000E-03 0. -1.
        -11    1    3    3    0    0 -0.35688573949E+01 -0.12264030897E+02 -0.81392071131E+01  0.15145622788E+02  0.51100000000E-03 0.  1.
         12    1    3    3    0    0  0.29781961029E+02  0.15136890178E+02  0.16135961973E+02  0.37100672714E+02  0.00000000000E+00 0. -1.
</event>
<event>
 7    1  0.3223600E-013  0.5930195E+02  0.7816164E-02  0.1266605E+00
        -11   -1    0    0    0    0  0.00000000000E+00  0.00000000000E+00  0.45593999997E+02  0.45594000000E+02  0.51100000000E-03 0. -1.
         11   -1    0    0    0    0 -0.00000000000E+00 -0.00000000000E+00 -0.45593999997E+02  0.45594000000E+02  0.51100000000E-03 0.  1.
    9900012    2    1    2    0    0  0.10796925889E+02 -0.18890400994E+02 -0.23308784261E+02  0.59301948471E+02  0.50000008104E+02 0.  0.
         12    1    1    2    0    0 -0.10796925889E+02  0.18890400994E+02  0.23308784261E+02  0.31886051529E+02  0.00000000000E+00 0. -1.
         11    1    3    3    0    0 -0.81561687499E+01 -0.89738170908E+01 -0.86022540643E+01  0.14867792610E+02  0.51100000000E-03 0. -1.
        -11    1    3    3    0    0  0.15104653068E+02 -0.19934358092E+02 -0.20409641753E+02  0.32281305017E+02  0.51100000000E-03 0.  1.
         12    1    3    3    0    0  0.38484415701E+01  0.10017774188E+02  0.57031115570E+01  0.12152850844E+02  0.00000000000E+00 0. -1.
</event>
<event>
 7    1  0.3223600E-013  0.5930195E+02  0.7816164E-02  0.1266605E+00
        -11   -1    0    0    0    0  0.00000000000E+00  0.00000000000E+00  0.45593999997E+02  0.45594000000E+02  0.51100000000E-03 0.  1.
         11   -1    0    0    0    0 -0.00000000000E+00 -0.00000000000E+00 -0.45593999997E+02  0.45594000000E+02  0.51100000000E-03 0. -1.
    9900012    2    1    2    0    0 -0.37453895270E+01 -0.64321495979E+01  0.31005160022E+02  0.59301946009E+02  0.50000003613E+02 0.  0.
         12    1    1    2    0    0  0.37453895270E+01  0.64321495979E+01 -0.31005160022E+02  0.31886053991E+02  0.00000000000E+00 0. -1.
         11    1    3    3    0    0  0.30532876743E+00 -0.12113461708E+02 -0.70579849688E-01  0.12117514679E+02  0.51100000000E-03 0. -1.
        -11    1    3    3    0    0  0.56942159264E+01 -0.13093578796E+02  0.11037128874E+02  0.18046720333E+02  0.51100000000E-03 0.  1.
         12    1    3    3    0    0 -0.97449342209E+01  0.18774890906E+02  0.20038610997E+02  0.29137710998E+02  0.00000000000E+00 0. -1.
</event>
<event>
 7    1  0.3223600E-013  0.5930198E+02  0.7816164E-02  0.1266605E+00
        -11   -1    0    0    0    0  0.00000000000E+00  0.00000000000E+00  0.45593999997E+02  0.45594000000E+02  0.51100000000E-03 0.  1.
         11   -1    0    0    0    0 -0.00000000000E+00 -0.00000000000E+00 -0.45593999997E+02  0.45594000000E+02  0.51100000000E-03 0. -1.
    9900012    2    1    2    0    0  0.54670961317E+01  0.15350201131E+02  0.27408035569E+02  0.59301980671E+02  0.50000066829E+02 0.  0.
         12    1    1    2    0    0 -0.54670961317E+01 -0.15350201131E+02 -0.27408035569E+02  0.31886019329E+02  0.00000000000E+00 0. -1.
         11    1    3    3    0    0  0.25226975305E+01  0.27396672486E+02  0.10684605232E+02  0.29514444860E+02  0.51100000000E-03 0. -1.
        -11    1    3    3    0    0 -0.17826674955E+01  0.39504837470E+01  0.11528950644E+02  0.12316693081E+02  0.51100000000E-03 0.  1.
         12    1    3    3    0    0  0.47270660967E+01 -0.15996955102E+02  0.51944796932E+01  0.17470842731E+02  0.00000000000E+00 0. -1.
</event>
<event>
 7    1  0.3223600E-013  0.5930190E+02  0.7816164E-02  0.1266605E+00
        -11   -1    0    0    0    0  0.00000000000E+00  0.00000000000E+00  0.45593999997E+02  0.45594000000E+02  0.51100000000E-03 0. -1.
         11   -1    0    0    0    0 -0.00000000000E+00 -0.00000000000E+00 -0.45593999997E+02  0.45594000000E+02  0.51100000000E-03 0.  1.
    9900012    2    1    2    0    0 -0.12089387702E+02  0.17827664792E+02 -0.23510519329E+02  0.59301898858E+02  0.49999917621E+02 0.  0.
         12    1    1    2    0    0  0.12089387702E+02 -0.17827664792E+02  0.23510519329E+02  0.31886101142E+02  0.00000000000E+00 0. -1.
         11    1    3    3    0    0 -0.20319207517E+02  0.80019383853E+01 -0.61567223553E+01  0.22689346453E+02  0.51100000000E-03 0. -1.
        -11    1    3    3    0    0 -0.70983629576E+01  0.24767127512E+01 -0.18098001648E+02  0.19597411223E+02  0.51100000000E-03 0.  1.
        -12    1    3    3    0    0  0.15328182773E+02  0.73490136552E+01  0.74420467461E+00  0.17015141181E+02  0.00000000000E+00 0.  1.
</event>
<event>
 7    1  0.3223600E-013  0.5930196E+02  0.7816164E-02  0.1266605E+00
        -11   -1    0    0    0    0  0.00000000000E+00  0.00000000000E+00  0.45593999997E+02  0.45594000000E+02  0.51100000000E-03 0.  1.
         11   -1    0    0    0    0 -0.00000000000E+00 -0.00000000000E+00 -0.45593999997E+02  0.45594000000E+02  0.51100000000E-03 0. -1.
    9900012    2    1    2    0    0  0.19114718915E+02 -0.16540182788E+02  0.19436298124E+02  0.59301955864E+02  0.50000021587E+02 0.  0.
         12    1    1    2    0    0 -0.19114718915E+02  0.16540182788E+02 -0.19436298124E+02  0.31886044136E+02  0.00000000000E+00 0. -1.
         11    1    3    3    0    0 -0.10773938556E+02 -0.71067669492E+01 -0.66213682472E+00  0.12923711306E+02  0.51100000000E-03 0. -1.
        -11    1    3    3    0    0  0.32241189105E+01 -0.73353868830E+01 -0.52083100086E+01  0.95566383671E+01  0.51100000000E-03 0.  1.
        -12    1    3    3    0    0  0.26664538561E+02 -0.20980289559E+01  0.25306744957E+02  0.36821606191E+02  0.00000000000E+00 0.  1.
</event>
<event>
 7    1  0.3223600E-013  0.5930193E+02  0.7816164E-02  0.1266605E+00
        -11   -1    0    0    0    0  0.00000000000E+00  0.00000000000E+00  0.45593999997E+02  0.45594000000E+02  0.51100000000E-03 0.  1.
         11   -1    0    0    0    0 -0.00000000000E+00 -0.00000000000E+00 -0.45593999997E+02  0.45594000000E+02  0.51100000000E-03 0. -1.
    9900012    2    1    2    0    0 -0.20672830411E+02  0.23123587933E+02  0.73929174020E+01  0.59301929941E+02  0.49999974309E+02 0.  0.
         12    1    1    2    0    0  0.20672830411E+02 -0.23123587933E+02 -0.73929174020E+01  0.31886070059E+02  0.00000000000E+00 0. -1.
         11    1    3    3    0    0 -0.33953118158E+01  0.35772279690E+01  0.11805415857E+02  0.12794238785E+02  0.51100000000E-03 0. -1.
        -11    1    3    3    0    0 -0.26019733948E+02  0.24786836901E+02 -0.50787179963E+01  0.36293349460E+02  0.51100000000E-03 0.  1.
         12    1    3    3    0    0  0.87422153530E+01 -0.52404769372E+01  0.66621954127E+00  0.10214341696E+02  0.00000000000E+00 0. -1.
</event>
<event>
 7    1  0.3223600E-013  0.5930198E+02  0.7816164E-02  0.1266605E+00
        -11   -1    0    0    0    0  0.00000000000E+00  0.00000000000E+00  0.45593999997E+02  0.45594000000E+02  0.51100000000E-03 0.  1.
         11   -1    0    0    0    0 -0.00000000000E+00 -0.00000000000E+00 -0.45593999997E+02  0.45594000000E+02  0.51100000000E-03 0. -1.
    9900012    2    1    2    0    0  0.13177338622E+01 -0.15107701760E+02  0.28048868111E+02  0.59301983044E+02  0.50000071156E+02 0.  0.
         12    1    1    2    0    0 -0.13177338622E+01  0.15107701760E+02 -0.28048868111E+02  0.31886016956E+02  0.00000000000E+00 0. -1.
         11    1    3    3    0    0  0.17967231208E+02 -0.18915952672E+02  0.16321902978E+02  0.30774001688E+02  0.51100000000E-03 0. -1.
        -11    1    3    3    0    0 -0.34492376004E+01 -0.74140408431E+01  0.12267288349E+01  0.82686217438E+01  0.51100000000E-03 0.  1.
        -12    1    3    3    0    0 -0.13200259746E+02  0.11222291755E+02  0.10500236298E+02  0.20259359612E+02  0.00000000000E+00 0.  1.
</event>
<event>
 7    1  0.3223600E-013  0.5930188E+02  0.7816164E-02  0.1266605E+00
        -11   -1    0    0    0    0  0.00000000000E+00  0.00000000000E+00  0.45593999997E+02  0.45594000000E+02  0.51100000000E-03 0. -1.
         11   -1    0    0    0    0 -0.00000000000E+00 -0.00000000000E+00 -0.45593999997E+02  0.45594000000E+02  0.51100000000E-03 0.  1.
    9900012    2    1    2    0    0  0.99543450177E+01  0.16004436075E+02 -0.25719517532E+02  0.59301881690E+02  0.49999886311E+02 0.  0.
         12    1    1    2    0    0 -0.99543450177E+01 -0.16004436075E+02  0.25719517532E+02  0.31886118310E+02  0.00000000000E+00 0. -1.
         11    1    3    3    0    0  0.16817588054E+02  0.10595041487E+02 -0.69241539573E+01  0.21048279748E+02  0.51100000000E-03 0. -1.
        -11    1    3    3    0    0  0.72857413453E+01  0.11134602122E+02 -0.18747907296E+02  0.22990115694E+02  0.51100000000E-03 0.  1.
         12    1    3    3    0    0 -0.14148984382E+02 -0.57252075342E+01 -0.47456278511E-01  0.15263486248E+02  0.00000000000E+00 0. -1.
</event>
<event>
 7    1  0.3223600E-013  0.5930193E+02  0.7816164E-02  0.1266605E+00
        -11   -1    0    0    0    0  0.00000000000E+00  0.00000000000E+00  0.45593999997E+02  0.45594000000E+02  0.51100000000E-03 0. -1.
         11   -1    0    0    0    0 -0.00000000000E+00 -0.00000000000E+00 -0.45593999997E+02  0.45594000000E+02  0.51100000000E-03 0.  1.
    9900012    2    1    2    0    0  0.25583471771E+02  0.14222423313E+02 -0.12646353224E+02  0.59301927764E+02  0.49999970339E+02 0.  0.
         12    1    1    2    0    0 -0.25583471771E+02 -0.14222423313E+02  0.12646353224E+02  0.31886072236E+02  0.00000000000E+00 0. -1.
         11    1    3    3    0    0  0.14200419450E+02 -0.58522492778E+01 -0.16477503591E+01  0.15447194427E+02  0.51100000000E-03 0. -1.
        -11    1    3    3    0    0  0.10120541988E+02  0.68285918708E+01 -0.22933214472E+02  0.25980518920E+02  0.51100000000E-03 0.  1.
        -12    1    3    3    0    0  0.12625103336E+01  0.13246080720E+02  0.11934611608E+02  0.17874214417E+02  0.00000000000E+00 0.  1.
</event>
<event>
 7    1  0.3361786E-013  0.5930193E+02  0.7816164E-02  0.1266605E+00
        -11   -1    0    0    0    0  0.00000000000E+00  0.00000000000E+00  0.45593999997E+02  0.45594000000E+02  0.51100000000E-03 0. -1.
         11   -1    0    0    0    0 -0.00000000000E+00 -0.00000000000E+00 -0.45593999997E+02  0.45594000000E+02  0.51100000000E-03 0.  1.
    9900012    2    1    2    0    0  0.12659893838E+02  0.16089005430E+02 -0.24445699618E+02  0.59301933489E+02  0.49999980779E+02 0.  0.
         12    1    1    2    0    0 -0.12659893838E+02 -0.16089005430E+02  0.24445699618E+02  0.31886066511E+02  0.00000000000E+00 0. -1.
         11    1    3    3    0    0  0.43104088936E+01  0.80898670850E+01  0.49340842199E+01  0.10410127839E+02  0.51100000000E-03 0. -1.
        -11    1    3    3    0    0 -0.38091480783E+01  0.79404655344E+00  0.80181624610E+01  0.89124098045E+01  0.51100000000E-03 0.  1.
        -12    1    3    3    0    0  0.12158633023E+02  0.72050917916E+01 -0.37397946299E+02  0.39979395845E+02  0.00000000000E+00 0.  1.
</event>
<event>
 7    1  0.3223600E-013  0.5930193E+02  0.7816164E-02  0.1266605E+00
        -11   -1    0    0    0    0  0.00000000000E+00  0.00000000000E+00  0.45593999997E+02  0.45594000000E+02  0.51100000000E-03 0.  1.
         11   -1    0    0    0    0 -0.00000000000E+00 -0.00000000000E+00 -0.45593999997E+02  0.45594000000E+02  0.51100000000E-03 0. -1.
    9900012    2    1    2    0    0 -0.29251984246E+02  0.57047557742E+01  0.11335711702E+02  0.59301934383E+02  0.49999982410E+02 0.  0.
         12    1    1    2    0    0  0.29251984246E+02 -0.57047557742E+01 -0.11335711702E+02  0.31886065617E+02  0.00000000000E+00 0. -1.
         11    1    3    3    0    0  0.65169945371E+01  0.62693810971E+01  0.13630946340E+01  0.91451836712E+01  0.51100000000E-03 0. -1.
        -11    1    3    3    0    0 -0.39058893608E+01  0.13291574302E+02 -0.51432564935E+00  0.13863132772E+02  0.51100000000E-03 0.  1.
         12    1    3    3    0    0 -0.31863089422E+02 -0.13856199625E+02  0.10486942717E+02  0.36293617939E+02  0.00000000000E+00 0. -1.
</event>
<event>
 7    1  0.3223600E-013  0.5930194E+02  0.7816164E-02  0.1266605E+00
        -11   -1    0    0    0    0  0.00000000000E+00  0.00000000000E+00  0.45593999997E+02  0.45594000000E+02  0.51100000000E-03 0.  1.
         11   -1    0    0    0    0 -0.00000000000E+00 -0.00000000000E+00 -0.45593999997E+02  0.45594000000E+02  0.51100000000E-03 0. -1.
    9900012    2    1    2    0    0  0.20047787954E+02  0.22452018779E+02 -0.10522061261E+02  0.59301941568E+02  0.49999995515E+02 0.  0.
         12    1    1    2    0    0 -0.20047787954E+02 -0.22452018779E+02  0.10522061261E+02  0.31886058432E+02  0.00000000000E+00 0. -1.
         11    1    3    3    0    0 -0.50595905775E+01 -0.49814479986E+01  0.43845135686E+01  0.83449529938E+01  0.51100000000E-03 0. -1.
        -11    1    3    3    0    0 -0.32276000402E+01 -0.10481774285E+01 -0.99063389234E+01  0.10471467379E+02  0.51100000000E-03 0.  1.
        -12    1    3    3    0    0  0.28334978572E+02  0.28481644206E+02 -0.50002359064E+01  0.40485521196E+02  0.00000000000E+00 0.  1.
</event>
<event>
 7    1  0.3223600E-013  0.5930200E+02  0.7816164E-02  0.1266605E+00
        -11   -1    0    0    0    0  0.00000000000E+00  0.00000000000E+00  0.45593999997E+02  0.45594000000E+02  0.51100000000E-03 0. -1.
         11   -1    0    0    0    0 -0.00000000000E+00 -0.00000000000E+00 -0.45593999997E+02  0.45594000000E+02  0.51100000000E-03 0.  1.
    9900012    2    1    2    0    0 -0.28022264849E+02 -0.15155899778E+02 -0.13297888943E+01  0.59302000504E+02  0.50000102999E+02 0.  0.
         12    1    1    2    0    0  0.28022264849E+02  0.15155899778E+02  0.13297888943E+01  0.31885999496E+02  0.00000000000E+00 0. -1.
         11    1    3    3    0    0  0.92111355011E+01 -0.10203607527E+02  0.92499819631E+00  0.13777309088E+02  0.51100000000E-03 0. -1.
        -11    1    3    3    0    0 -0.12115314919E+02 -0.85355742342E+01  0.94562021198E+01  0.17580006879E+02  0.51100000000E-03 0.  1.
         12    1    3    3    0    0 -0.25118085432E+02  0.35832819835E+01 -0.11710989210E+02  0.27944684536E+02  0.00000000000E+00 0. -1.
</event>
<event>
 7    1  0.3223600E-013  0.5930206E+02  0.7816164E-02  0.1266604E+00
        -11   -1    0    0    0    0  0.00000000000E+00  0.00000000000E+00  0.45593999997E+02  0.45594000000E+02  0.51100000000E-03 0. -1.
         11   -1    0    0    0    0 -0.00000000000E+00 -0.00000000000E+00 -0.45593999997E+02  0.45594000000E+02  0.51100000000E-03 0.  1.
    9900012    2    1    2    0    0  0.69411500270E+01  0.30252626609E+02 -0.73015112345E+01  0.59302061928E+02  0.50000215021E+02 0.  0.
         12    1    1    2    0    0 -0.69411500270E+01 -0.30252626609E+02  0.73015112345E+01  0.31885938072E+02  0.00000000000E+00 0. -1.
         11    1    3    3    0    0  0.44662934042E+01  0.90751083881E+01  0.62690067215E+01  0.11899824140E+02  0.51100000000E-03 0. -1.
        -11    1    3    3    0    0  0.12362627502E+02 -0.69331758947E+01  0.10439844682E+01  0.14212437883E+02  0.51100000000E-03 0.  1.
        -12    1    3    3    0    0 -0.98877708792E+01  0.28110694116E+02 -0.14614502424E+02  0.33189799905E+02  0.00000000000E+00 0.  1.
</event>
<event>
 7    1  0.3223600E-013  0.5930195E+02  0.7816164E-02  0.1266605E+00
        -11   -1    0    0    0    0  0.00000000000E+00  0.00000000000E+00  0.45593999997E+02  0.45594000000E+02  0.51100000000E-03 0.  1.
         11   -1    0    0    0    0 -0.00000000000E+00 -0.00000000000E+00 -0.45593999997E+02  0.45594000000E+02  0.51100000000E-03 0. -1.
    9900012    2    1    2    0    0  0.19715960346E+02  0.20230442175E+02  0.14789526690E+02  0.59301953167E+02  0.50000016667E+02 0.  0.
         12    1    1    2    0    0 -0.19715960346E+02 -0.20230442175E+02 -0.14789526690E+02  0.31886046833E+02  0.00000000000E+00 0. -1.
         11    1    3    3    0    0 -0.35623483828E+01  0.26914384250E+00  0.58703827260E+01  0.68719835578E+01  0.51100000000E-03 0. -1.
        -11    1    3    3    0    0 -0.48413974110E+01  0.22446930304E+02  0.75310320017E+01  0.24166510966E+02  0.51100000000E-03 0.  1.
         12    1    3    3    0    0  0.28119706139E+02 -0.24856319719E+01  0.13881119621E+01  0.28263458643E+02  0.00000000000E+00 0. -1.
</event>
<event>
 7    1  0.3223600E-013  0.5930195E+02  0.7816164E-02  0.1266605E+00
        -11   -1    0    0    0    0  0.00000000000E+00  0.00000000000E+00  0.45593999997E+02  0.45594000000E+02  0.51100000000E-03 0. -1.
         11   -1    0    0    0    0 -0.00000000000E+00 -0.00000000000E+00 -0.45593999997E+02  0.45594000000E+02  0.51100000000E-03 0.  1.
    9900012    2    1    2    0    0  0.15842612630E+00  0.29828363149E+02 -0.11267833300E+02  0.59301946399E+02  0.50000004325E+02 0.  0.
         12    1    1    2    0    0 -0.15842612630E+00 -0.29828363149E+02  0.11267833300E+02  0.31886053601E+02  0.00000000000E+00 0. -1.
         11    1    3    3    0    0  0.23382315878E+01 -0.39674176193E+01  0.34486616077E+01  0.57533465626E+01  0.51100000000E-03 0. -1.
        -11    1    3    3    0    0 -0.19381270087E+02  0.13152651589E+02 -0.11587793160E+01  0.23451410273E+02  0.51100000000E-03 0.  1.
        -12    1    3    3    0    0  0.17201464626E+02  0.20643129179E+02 -0.13557715591E+02  0.30097189564E+02  0.00000000000E+00 0.  1.
</event>
<event>
 7    1  0.3223600E-013  0.5930196E+02  0.7816164E-02  0.1266605E+00
        -11   -1    0    0    0    0  0.00000000000E+00  0.00000000000E+00  0.45593999997E+02  0.45594000000E+02  0.51100000000E-03 0.  1.
         11   -1    0    0    0    0 -0.00000000000E+00 -0.00000000000E+00 -0.45593999997E+02  0.45594000000E+02  0.51100000000E-03 0. -1.
    9900012    2    1    2    0    0 -0.23763972629E+02  0.13427581171E+02  0.16483112516E+02  0.59301963409E+02  0.50000035348E+02 0.  0.
         12    1    1    2    0    0  0.23763972629E+02 -0.13427581171E+02 -0.16483112516E+02  0.31886036591E+02  0.00000000000E+00 0. -1.
         11    1    3    3    0    0 -0.23114760690E+02  0.67231084108E+01  0.14560158408E-01  0.24072651718E+02  0.51100000000E-03 0. -1.
        -11    1    3    3    0    0  0.79932247337E+01 -0.92065412135E+01  0.27137609501E+01  0.12490658170E+02  0.51100000000E-03 0.  1.
         12    1    3    3    0    0 -0.86424366729E+01  0.15911013974E+02  0.13754791408E+02  0.22738653522E+02  0.00000000000E+00 0. -1.
</event>
<event>
 7    1  0.3223600E-013  0.5930193E+02  0.7816164E-02  0.1266605E+00
        -11   -1    0    0    0    0  0.00000000000E+00  0.00000000000E+00  0.45593999997E+02  0.45594000000E+02  0.51100000000E-03 0.  1.
         11   -1    0    0    0    0 -0.00000000000E+00 -0.00000000000E+00 -0.45593999997E+02  0.45594000000E+02  0.51100000000E-03 0. -1.
    9900012    2    1    2    0    0  0.19890218810E+02  0.21245292530E+02  0.13028351082E+02  0.59301934220E+02  0.49999982114E+02 0.  0.
         12    1    1    2    0    0 -0.19890218810E+02 -0.21245292530E+02 -0.13028351082E+02  0.31886065780E+02  0.00000000000E+00 0. -1.
         11    1    3    3    0    0  0.10637792661E+02  0.16893379289E+02  0.78826879528E+01  0.21463589311E+02  0.51100000000E-03 0. -1.
        -11    1    3    3    0    0  0.18606011612E+02  0.13492033265E+02 -0.17579334378E+01  0.23050140129E+02  0.51100000000E-03 0.  1.
        -12    1    3    3    0    0 -0.93535854624E+01 -0.91401200247E+01  0.69035965673E+01  0.14788204781E+02  0.00000000000E+00 0.  1.
</event>
<event>
 7    1  0.3223600E-013  0.5930198E+02  0.7816164E-02  0.1266605E+00
        -11   -1    0    0    0    0  0.00000000000E+00  0.00000000000E+00  0.45593999997E+02  0.45594000000E+02  0.51100000000E-03 0. -1.
         11   -1    0    0    0    0 -0.00000000000E+00 -0.00000000000E+00 -0.45593999997E+02  0.45594000000E+02  0.51100000000E-03 0.  1.
    9900012    2    1    2    0    0  0.27953550411E+01  0.31584488819E+02  0.33651985721E+01  0.59301976335E+02  0.50000058920E+02 0.  0.
         12    1    1    2    0    0 -0.27953550411E+01 -0.31584488819E+02 -0.33651985721E+01  0.31886023665E+02  0.00000000000E+00 0. -1.
         11    1    3    3    0    0  0.90421562067E+00 -0.47380730466E+01 -0.13828196236E+02  0.14645338968E+02  0.51100000000E-03 0. -1.
        -11    1    3    3    0    0 -0.19382343936E+01  0.21362424849E+01  0.87812943596E+01  0.92429116305E+01  0.51100000000E-03 0.  1.
        -12    1    3    3    0    0  0.38293738140E+01  0.34186319381E+02  0.84121004482E+01  0.35413725737E+02  0.00000000000E+00 0.  1.
</event>
<event>
 7    1  0.3223600E-013  0.5930197E+02  0.7816164E-02  0.1266605E+00
        -11   -1    0    0    0    0  0.00000000000E+00  0.00000000000E+00  0.45593999997E+02  0.45594000000E+02  0.51100000000E-03 0.  1.
         11   -1    0    0    0    0 -0.00000000000E+00 -0.00000000000E+00 -0.45593999997E+02  0.45594000000E+02  0.51100000000E-03 0. -1.
    9900012    2    1    2    0    0 -0.21011088296E+02  0.10457936863E+02  0.21584355948E+02  0.59301973334E+02  0.50000053448E+02 0.  0.
         12    1    1    2    0    0  0.21011088296E+02 -0.10457936863E+02 -0.21584355948E+02  0.31886026666E+02  0.00000000000E+00 0. -1.
         11    1    3    3    0    0  0.11097745809E+00  0.11860099255E+02  0.38368668357E+01  0.12465785884E+02  0.51100000000E-03 0. -1.
        -11    1    3    3    0    0 -0.71336289313E+01  0.74984789698E+00 -0.11950659513E+02  0.13938048524E+02  0.51100000000E-03 0.  1.
         12    1    3    3    0    0 -0.13988436823E+02 -0.21520102885E+01  0.29698148626E+02  0.32898138926E+02  0.00000000000E+00 0. -1.
</event>
<event>
 7    1  0.3223600E-013  0.5930196E+02  0.7816164E-02  0.1266605E+00
        -11   -1    0    0    0    0  0.00000000000E+00  0.00000000000E+00  0.45593999997E+02  0.45594000000E+02  0.51100000000E-03 0.  1.
         11   -1    0    0    0    0 -0.00000000000E+00 -0.00000000000E+00 -0.45593999997E+02  0.45594000000E+02  0.51100000000E-03 0. -1.
    9900012    2    1    2    0    0 -0.12349528234E+02  0.17693370334E+02  0.23476655873E+02  0.59301959600E+02  0.50000028401E+02 0.  0.
         12    1    1    2    0    0  0.12349528234E+02 -0.17693370334E+02 -0.23476655873E+02  0.31886040400E+02  0.00000000000E+00 0. -1.
         11    1    3    3    0    0 -0.24333665999E+02  0.71891883593E+01  0.98929967839E+01  0.27233859731E+02  0.51100000000E-03 0. -1.
        -11    1    3    3    0    0  0.76807121194E+01  0.17423607367E+02  0.39435007810E+01  0.19445478421E+02  0.51100000000E-03 0.  1.
        -12    1    3    3    0    0  0.43034256453E+01 -0.69194253920E+01  0.96401583080E+01  0.12622621449E+02  0.00000000000E+00 0.  1.
</event>
<event>
 7    1  0.3223600E-013  0.5930194E+02  0.7816164E-02  0.1266605E+00
        -11   -1    0    0    0    0  0.00000000000E+00  0.00000000000E+00  0.45593999997E+02  0.45594000000E+02  0.51100000000E-03 0.  1.
         11   -1    0    0    0    0 -0.00000000000E+00 -0.00000000000E+00 -0.45593999997E+02  0.45594000000E+02  0.51100000000E-03 0. -1.
    9900012    2    1    2    0    0 -0.11017022518E+02 -0.10451418337E+02  0.28037725026E+02  0.59301937918E+02  0.49999988858E+02 0.  0.
         12    1    1    2    0    0  0.11017022518E+02  0.10451418337E+02 -0.28037725026E+02  0.31886062082E+02  0.00000000000E+00 0. -1.
         11    1    3    3    0    0 -0.59696916863E+01  0.23568855877E+01 -0.11455523019E+02  0.13130922908E+02  0.51100000000E-03 0. -1.
        -11    1    3    3    0    0  0.31253220720E+01  0.35684642728E+01  0.14045533356E+02  0.14824931124E+02  0.51100000000E-03 0.  1.
         12    1    3    3    0    0 -0.81726529034E+01 -0.16376768198E+02  0.25447714690E+02  0.31346083887E+02  0.00000000000E+00 0. -1.
</event>
<event>
 7    1  0.3223600E-013  0.5930195E+02  0.7816164E-02  0.1266605E+00
        -11   -1    0    0    0    0  0.00000000000E+00  0.00000000000E+00  0.45593999997E+02  0.45594000000E+02  0.51100000000E-03 0. -1.
         11   -1    0    0    0    0 -0.00000000000E+00 -0.00000000000E+00 -0.45593999997E+02  0.45594000000E+02  0.51100000000E-03 0.  1.
    9900012    2    1    2    0    0  0.73561462527E+01 -0.30359525472E+02 -0.63958309464E+01  0.59301947751E+02  0.50000006790E+02 0.  0.
         12    1    1    2    0    0 -0.73561462527E+01  0.30359525472E+02  0.63958309464E+01  0.31886052249E+02  0.00000000000E+00 0. -1.
         11    1    3    3    0    0 -0.29216669123E+01  0.67030693652E+01 -0.10500101315E+02  0.12795288366E+02  0.51100000000E-03 0. -1.
        -11    1    3    3    0    0  0.21216635236E+01 -0.90414558708E-01  0.81573250416E+01  0.84292101050E+01  0.51100000000E-03 0.  1.
        -12    1    3    3    0    0  0.81561496414E+01 -0.36972180278E+02 -0.40530546725E+01  0.38077449280E+02  0.00000000000E+00 0.  1.
</event>
<event>
 7    1  0.3223600E-013  0.5930195E+02  0.7816164E-02  0.1266605E+00
        -11   -1    0    0    0    0  0.00000000000E+00  0.00000000000E+00  0.45593999997E+02  0.45594000000E+02  0.51100000000E-03 0.  1.
         11   -1    0    0    0    0 -0.00000000000E+00 -0.00000000000E+00 -0.45593999997E+02  0.45594000000E+02  0.51100000000E-03 0. -1.
    9900012    2    1    2    0    0 -0.12243685501E+02  0.28778685710E+02  0.62128497076E+01  0.59301951525E+02  0.50000013674E+02 0.  0.
         12    1    1    2    0    0  0.12243685501E+02 -0.28778685710E+02 -0.62128497076E+01  0.31886048475E+02  0.00000000000E+00 0. -1.
         11    1    3    3    0    0  0.10190925915E+02 -0.13589169633E+01  0.71359935340E+01  0.12514952269E+02  0.51100000000E-03 0.  1.
        -11    1    3    3    0    0  0.45416720629E+01  0.20476425867E+01 -0.56761394291E+01  0.75523628336E+01  0.51100000000E-03 0. -1.
         12    1    3    3    0    0 -0.26976283479E+02  0.28089960086E+02  0.47529956027E+01  0.39234636423E+02  0.00000000000E+00 0. -1.
</event>
<event>
 7    1  0.3223600E-013  0.5930196E+02  0.7816164E-02  0.1266605E+00
        -11   -1    0    0    0    0  0.00000000000E+00  0.00000000000E+00  0.45593999997E+02  0.45594000000E+02  0.51100000000E-03 0.  1.
         11   -1    0    0    0    0 -0.00000000000E+00 -0.00000000000E+00 -0.45593999997E+02  0.45594000000E+02  0.51100000000E-03 0. -1.
    9900012    2    1    2    0    0 -0.27027674260E+02 -0.16323591449E+02  0.44457868796E+01  0.59301955488E+02  0.50000020900E+02 0.  0.
         12    1    1    2    0    0  0.27027674260E+02  0.16323591449E+02 -0.44457868796E+01  0.31886044512E+02  0.00000000000E+00 0. -1.
         11    1    3    3    0    0 -0.12609934630E+02 -0.11292875236E+02  0.16687474463E+02  0.23769966064E+02  0.51100000000E-03 0. -1.
        -11    1    3    3    0    0 -0.82051798824E+01 -0.17382712030E+02 -0.47235937380E+01  0.19793837235E+02  0.51100000000E-03 0.  1.
         12    1    3    3    0    0 -0.62125597469E+01  0.12351995816E+02 -0.75180938452E+01  0.15738152189E+02  0.00000000000E+00 0. -1.
</event>
<event>
 7    1  0.3223600E-013  0.5930197E+02  0.7816164E-02  0.1266605E+00
        -11   -1    0    0    0    0  0.00000000000E+00  0.00000000000E+00  0.45593999997E+02  0.45594000000E+02  0.51100000000E-03 0.  1.
         11   -1    0    0    0    0 -0.00000000000E+00 -0.00000000000E+00 -0.45593999997E+02  0.45594000000E+02  0.51100000000E-03 0. -1.
    9900012    2    1    2    0    0 -0.15517534746E+02  0.10445961299E+02  0.25822605409E+02  0.59301969483E+02  0.50000046424E+02 0.  0.
         12    1    1    2    0    0  0.15517534746E+02 -0.10445961299E+02 -0.25822605409E+02  0.31886030517E+02  0.00000000000E+00 0. -1.
         11    1    3    3    0    0 -0.16585179804E+02  0.45830724845E+01  0.14214318765E+02  0.22318593162E+02  0.51100000000E-03 0. -1.
        -11    1    3    3    0    0  0.74738431365E+01 -0.10691040300E+02  0.13927498178E+02  0.19082239902E+02  0.51100000000E-03 0.  1.
         12    1    3    3    0    0 -0.64061980779E+01  0.16553929114E+02 -0.23192115336E+01  0.17901136418E+02  0.00000000000E+00 0. -1.
</event>
<event>
 7    1  0.3223600E-013  0.5930194E+02  0.7816164E-02  0.1266605E+00
        -11   -1    0    0    0    0  0.00000000000E+00  0.00000000000E+00  0.45593999997E+02  0.45594000000E+02  0.51100000000E-03 0.  1.
         11   -1    0    0    0    0 -0.00000000000E+00 -0.00000000000E+00 -0.45593999997E+02  0.45594000000E+02  0.51100000000E-03 0. -1.
    9900012    2    1    2    0    0  0.22904386030E+02 -0.21706782637E+02 -0.45744079959E+01  0.59301944735E+02  0.50000001289E+02 0.  0.
         12    1    1    2    0    0 -0.22904386030E+02  0.21706782637E+02  0.45744079959E+01  0.31886055265E+02  0.00000000000E+00 0. -1.
         11    1    3    3    0    0 -0.34872556039E+01  0.35500651393E+01  0.12462125228E+02  0.13418959706E+02  0.51100000000E-03 0. -1.
        -11    1    3    3    0    0  0.69391003493E+01  0.24684922135E+01  0.11274513040E+01  0.74508868043E+01  0.51100000000E-03 0.  1.
         12    1    3    3    0    0  0.19452541285E+02 -0.27725339990E+02 -0.18163984528E+02  0.38432098224E+02  0.00000000000E+00 0. -1.
</event>
<event>
 7    1  0.3223600E-013  0.5930193E+02  0.7816164E-02  0.1266605E+00
        -11   -1    0    0    0    0  0.00000000000E+00  0.00000000000E+00  0.45593999997E+02  0.45594000000E+02  0.51100000000E-03 0. -1.
         11   -1    0    0    0    0 -0.00000000000E+00 -0.00000000000E+00 -0.45593999997E+02  0.45594000000E+02  0.51100000000E-03 0.  1.
    9900012    2    1    2    0    0  0.57854136502E+01  0.24694572733E+02 -0.19324297781E+02  0.59301930655E+02  0.49999975611E+02 0.  0.
         12    1    1    2    0    0 -0.57854136502E+01 -0.24694572733E+02  0.19324297781E+02  0.31886069345E+02  0.00000000000E+00 0. -1.
         11    1    3    3    0    0  0.13623314245E+02  0.22402645879E+02  0.25076727507E+01  0.26339355654E+02  0.51100000000E-03 0. -1.
        -11    1    3    3    0    0  0.74565995758E+01  0.16629042851E+01 -0.19760761287E+01  0.78911979460E+01  0.51100000000E-03 0.  1.
        -12    1    3    3    0    0 -0.15294500170E+02  0.62902256837E+00 -0.19855894403E+02  0.25071377054E+02  0.00000000000E+00 0.  1.
</event>
<event>
 7    1  0.3223600E-013  0.5930193E+02  0.7816164E-02  0.1266605E+00
        -11   -1    0    0    0    0  0.00000000000E+00  0.00000000000E+00  0.45593999997E+02  0.45594000000E+02  0.51100000000E-03 0. -1.
         11   -1    0    0    0    0 -0.00000000000E+00 -0.00000000000E+00 -0.45593999997E+02  0.45594000000E+02  0.51100000000E-03 0.  1.
    9900012    2    1    2    0    0 -0.19942043610E+01 -0.12635570162E+02 -0.29207647274E+02  0.59301934961E+02  0.49999983465E+02 0.  0.
         12    1    1    2    0    0  0.19942043610E+01  0.12635570162E+02  0.29207647274E+02  0.31886065039E+02  0.00000000000E+00 0. -1.
         11    1    3    3    0    0  0.12491182722E+02  0.43881236305E+01  0.20014796605E+01  0.13389966239E+02  0.51100000000E-03 0. -1.
        -11    1    3    3    0    0  0.31998413917E+01  0.33063197345E+01  0.10239617401E+00  0.46023059825E+01  0.51100000000E-03 0.  1.
        -12    1    3    3    0    0 -0.17685228475E+02 -0.20330013527E+02 -0.31311523109E+02  0.41309662739E+02  0.00000000000E+00 0.  1.
</event>
<event>
 7    1  0.3223600E-013  0.5930193E+02  0.7816164E-02  0.1266605E+00
        -11   -1    0    0    0    0  0.00000000000E+00  0.00000000000E+00  0.45593999997E+02  0.45594000000E+02  0.51100000000E-03 0.  1.
         11   -1    0    0    0    0 -0.00000000000E+00 -0.00000000000E+00 -0.45593999997E+02  0.45594000000E+02  0.51100000000E-03 0. -1.
    9900012    2    1    2    0    0 -0.26541349936E+02  0.13706328876E+02 -0.11154132682E+02  0.59301931199E+02  0.49999976603E+02 0.  0.
         12    1    1    2    0    0  0.26541349936E+02 -0.13706328876E+02  0.11154132682E+02  0.31886068801E+02  0.00000000000E+00 0. -1.
         11    1    3    3    0    0 -0.46796054426E+01  0.11216485904E+01 -0.92255286192E+01  0.10405151668E+02  0.51100000000E-03 0. -1.
        -11    1    3    3    0    0 -0.33290272560E+02  0.15901669678E+02 -0.25436238237E+01  0.36980743206E+02  0.51100000000E-03 0.  1.
        -12    1    3    3    0    0  0.11428528067E+02 -0.33169893923E+01  0.61501976049E+00  0.11916036325E+02  0.00000000000E+00 0.  1.
</event>
<event>
 7    1  0.3223600E-013  0.5930194E+02  0.7816164E-02  0.1266605E+00
        -11   -1    0    0    0    0  0.00000000000E+00  0.00000000000E+00  0.45593999997E+02  0.45594000000E+02  0.51100000000E-03 0.  1.
         11   -1    0    0    0    0 -0.00000000000E+00 -0.00000000000E+00 -0.45593999997E+02  0.45594000000E+02  0.51100000000E-03 0. -1.
    9900012    2    1    2    0    0  0.17196084085E+02  0.80789164202E+01  0.25607547742E+02  0.59301941923E+02  0.49999996161E+02 0.  0.
         12    1    1    2    0    0 -0.17196084085E+02 -0.80789164202E+01 -0.25607547742E+02  0.31886058077E+02  0.00000000000E+00 0. -1.
         11    1    3    3    0    0  0.17130156703E+02 -0.14746235752E+02  0.11665026616E+02  0.25435537811E+02  0.51100000000E-03 0. -1.
        -11    1    3    3    0    0  0.60066483644E+01  0.48099824421E+01  0.12708742522E+02  0.14856913960E+02  0.51100000000E-03 0.  1.
         12    1    3    3    0    0 -0.59407209827E+01  0.18015169730E+02  0.12337786042E+01  0.19009490152E+02  0.00000000000E+00 0. -1.
</event>
<event>
 7    1  0.3223600E-013  0.5930196E+02  0.7816164E-02  0.1266605E+00
        -11   -1    0    0    0    0  0.00000000000E+00  0.00000000000E+00  0.45593999997E+02  0.45594000000E+02  0.51100000000E-03 0. -1.
         11   -1    0    0    0    0 -0.00000000000E+00 -0.00000000000E+00 -0.45593999997E+02  0.45594000000E+02  0.51100000000E-03 0.  1.
    9900012    2    1    2    0    0  0.24618915600E+02 -0.16928672200E+02  0.11137698406E+02  0.59301964286E+02  0.50000036946E+02 0.  0.
         12    1    1    2    0    0 -0.24618915600E+02  0.16928672200E+02 -0.11137698406E+02  0.31886035714E+02  0.00000000000E+00 0. -1.
         11    1    3    3    0    0  0.13858342161E+02 -0.19699654755E+02  0.15334353411E+02  0.28552976022E+02  0.51100000000E-03 0. -1.
        -11    1    3    3    0    0 -0.67922590827E+00 -0.87659366808E+01  0.68129881646E+01  0.11122940336E+02  0.51100000000E-03 0.  1.
         12    1    3    3    0    0  0.11439799347E+02  0.11536919236E+02 -0.11009643169E+02  0.19626047928E+02  0.00000000000E+00 0. -1.
</event>
<event>
 7    1  0.3223600E-013  0.5930195E+02  0.7816164E-02  0.1266605E+00
        -11   -1    0    0    0    0  0.00000000000E+00  0.00000000000E+00  0.45593999997E+02  0.45594000000E+02  0.51100000000E-03 0. -1.
         11   -1    0    0    0    0 -0.00000000000E+00 -0.00000000000E+00 -0.45593999997E+02  0.45594000000E+02  0.51100000000E-03 0.  1.
    9900012    2    1    2    0    0 -0.12425449739E+02 -0.29223544509E+02  0.28832083652E+01  0.59301949048E+02  0.50000009155E+02 0.  0.
         12    1    1    2    0    0  0.12425449739E+02  0.29223544509E+02 -0.28832083652E+01  0.31886050952E+02  0.00000000000E+00 0. -1.
         11    1    3    3    0    0 -0.15627845227E+02 -0.68974071790E+00  0.29013788316E+01  0.15909848776E+02  0.51100000000E-03 0.  1.
        -11    1    3    3    0    0  0.52534467542E+01 -0.32778724708E+02 -0.79767658132E+01  0.34141943257E+02  0.51100000000E-03 0. -1.
         12    1    3    3    0    0 -0.20510512658E+01  0.42449209174E+01  0.79585953468E+01  0.92501570140E+01  0.00000000000E+00 0. -1.
</event>
<event>
 7    1  0.3223600E-013  0.5930201E+02  0.7816164E-02  0.1266605E+00
        -11   -1    0    0    0    0  0.00000000000E+00  0.00000000000E+00  0.45593999997E+02  0.45594000000E+02  0.51100000000E-03 0. -1.
         11   -1    0    0    0    0 -0.00000000000E+00 -0.00000000000E+00 -0.45593999997E+02  0.45594000000E+02  0.51100000000E-03 0.  1.
    9900012    2    1    2    0    0 -0.72679497986E+01 -0.21275334304E+02 -0.22610910933E+02  0.59302011898E+02  0.50000123779E+02 0.  0.
         12    1    1    2    0    0  0.72679497986E+01  0.21275334304E+02  0.22610910933E+02  0.31885988102E+02  0.00000000000E+00 0. -1.
         11    1    3    3    0    0 -0.18236007616E+01 -0.41809605166E+01 -0.13869717363E+02  0.14600514051E+02  0.51100000000E-03 0. -1.
        -11    1    3    3    0    0  0.16339186367E+02 -0.13893385108E+02 -0.72255875106E+01  0.22631930453E+02  0.51100000000E-03 0.  1.
         12    1    3    3    0    0 -0.21783535404E+02 -0.32009886792E+01 -0.15156060600E+01  0.22069567394E+02  0.00000000000E+00 0. -1.
</event>
<event>
 7    1  0.3223600E-013  0.5930202E+02  0.7816164E-02  0.1266605E+00
        -11   -1    0    0    0    0  0.00000000000E+00  0.00000000000E+00  0.45593999997E+02  0.45594000000E+02  0.51100000000E-03 0.  1.
         11   -1    0    0    0    0 -0.00000000000E+00 -0.00000000000E+00 -0.45593999997E+02  0.45594000000E+02  0.51100000000E-03 0. -1.
    9900012    2    1    2    0    0  0.13986244683E+02  0.10508087914E+02  0.26658599181E+02  0.59302017778E+02  0.50000134503E+02 0.  0.
         12    1    1    2    0    0 -0.13986244683E+02 -0.10508087914E+02 -0.26658599181E+02  0.31885982222E+02  0.00000000000E+00 0. -1.
         11    1    3    3    0    0  0.15671990286E+02  0.16868887220E+02  0.92221906217E+01  0.24803617391E+02  0.51100000000E-03 0. -1.
        -11    1    3    3    0    0  0.48740640708E+01 -0.21081894065E+01 -0.70317365574E+01  0.88117127968E+01  0.51100000000E-03 0.  1.
        -12    1    3    3    0    0 -0.65598096733E+01 -0.42526098986E+01  0.24468145117E+02  0.25686687590E+02  0.00000000000E+00 0.  1.
</event>
<event>
 7    1  0.3223600E-013  0.5930198E+02  0.7816164E-02  0.1266605E+00
        -11   -1    0    0    0    0  0.00000000000E+00  0.00000000000E+00  0.45593999997E+02  0.45594000000E+02  0.51100000000E-03 0. -1.
         11   -1    0    0    0    0 -0.00000000000E+00 -0.00000000000E+00 -0.45593999997E+02  0.45594000000E+02  0.51100000000E-03 0.  1.
    9900012    2    1    2    0    0 -0.26573624211E+02 -0.17157493271E+02  0.40226209556E+01  0.59301975500E+02  0.50000057398E+02 0.  0.
         12    1    1    2    0    0  0.26573624211E+02  0.17157493271E+02 -0.40226209556E+01  0.31886024500E+02  0.00000000000E+00 0. -1.
         11    1    3    3    0    0  0.35600809881E+01  0.34005495133E+01  0.15609004420E+02  0.16367007451E+02  0.51100000000E-03 0. -1.
        -11    1    3    3    0    0 -0.23192248194E+02 -0.81226472770E+01  0.32654440678E-02  0.24573517982E+02  0.51100000000E-03 0.  1.
        -12    1    3    3    0    0 -0.69414570053E+01 -0.12435395507E+02 -0.11589648909E+02  0.18361450068E+02  0.00000000000E+00 0.  1.
</event>
<event>
 7    1  0.3223600E-013  0.5930193E+02  0.7816164E-02  0.1266605E+00
        -11   -1    0    0    0    0  0.00000000000E+00  0.00000000000E+00  0.45593999997E+02  0.45594000000E+02  0.51100000000E-03 0.  1.
         11   -1    0    0    0    0 -0.00000000000E+00 -0.00000000000E+00 -0.45593999997E+02  0.45594000000E+02  0.51100000000E-03 0. -1.
    9900012    2    1    2    0    0 -0.17502598559E+02 -0.26504098269E+02  0.28130173931E+01  0.59301933322E+02  0.49999980475E+02 0.  0.
         12    1    1    2    0    0  0.17502598559E+02  0.26504098269E+02 -0.28130173931E+01  0.31886066678E+02  0.00000000000E+00 0. -1.
         11    1    3    3    0    0 -0.16338413185E+01  0.18681852025E+01 -0.45941055216E+01  0.52216241927E+01  0.51100000000E-03 0. -1.
        -11    1    3    3    0    0  0.11438343802E+02 -0.57254455192E+01 -0.83361203303E+01  0.15267853082E+02  0.51100000000E-03 0.  1.
        -12    1    3    3    0    0 -0.27307101042E+02 -0.22646837952E+02  0.15743243245E+02  0.38812456047E+02  0.00000000000E+00 0.  1.
</event>
<event>
 7    1  0.3223600E-013  0.5930193E+02  0.7816164E-02  0.1266605E+00
        -11   -1    0    0    0    0  0.00000000000E+00  0.00000000000E+00  0.45593999997E+02  0.45594000000E+02  0.51100000000E-03 0. -1.
         11   -1    0    0    0    0 -0.00000000000E+00 -0.00000000000E+00 -0.45593999997E+02  0.45594000000E+02  0.51100000000E-03 0.  1.
    9900012    2    1    2    0    0 -0.25146958573E+01 -0.26413585743E+01 -0.31676822150E+02  0.59301928873E+02  0.49999972362E+02 0.  0.
         12    1    1    2    0    0  0.25146958573E+01  0.26413585743E+01  0.31676822150E+02  0.31886071127E+02  0.00000000000E+00 0. -1.
         11    1    3    3    0    0  0.13065443616E+02  0.38095267978E+01 -0.28552207400E+01  0.13905775672E+02  0.51100000000E-03 0. -1.
        -11    1    3    3    0    0  0.90231451602E+01 -0.49713656562E+01 -0.10273157397E+02  0.14548862094E+02  0.51100000000E-03 0.  1.
        -12    1    3    3    0    0 -0.24603284633E+02 -0.14795197159E+01 -0.18548444013E+02  0.30847291107E+02  0.00000000000E+00 0.  1.
</event>
<event>
 7    1  0.3223600E-013  0.5930197E+02  0.7816164E-02  0.1266605E+00
        -11   -1    0    0    0    0  0.00000000000E+00  0.00000000000E+00  0.45593999997E+02  0.45594000000E+02  0.51100000000E-03 0. -1.
         11   -1    0    0    0    0 -0.00000000000E+00 -0.00000000000E+00 -0.45593999997E+02  0.45594000000E+02  0.51100000000E-03 0.  1.
    9900012    2    1    2    0    0 -0.20392420165E+02  0.24497408802E+02 -0.86322015325E+00  0.59301968776E+02  0.50000045135E+02 0.  0.
         12    1    1    2    0    0  0.20392420165E+02 -0.24497408802E+02  0.86322015325E+00  0.31886031224E+02  0.00000000000E+00 0. -1.
         11    1    3    3    0    0  0.18337127445E+01  0.11649962512E+02  0.61048394079E+01  0.13279803968E+02  0.51100000000E-03 0. -1.
        -11    1    3    3    0    0 -0.45400020239E+01  0.23932554925E+02 -0.13032838026E+01  0.24394207356E+02  0.51100000000E-03 0.  1.
         12    1    3    3    0    0 -0.17686130885E+02 -0.11085108635E+02 -0.56647757585E+01  0.21627957452E+02  0.00000000000E+00 0. -1.
</event>
<event>
 7    1  0.3223600E-013  0.5930195E+02  0.7816164E-02  0.1266605E+00
        -11   -1    0    0    0    0  0.00000000000E+00  0.00000000000E+00  0.45593999997E+02  0.45594000000E+02  0.51100000000E-03 0.  1.
         11   -1    0    0    0    0 -0.00000000000E+00 -0.00000000000E+00 -0.45593999997E+02  0.45594000000E+02  0.51100000000E-03 0. -1.
    9900012    2    1    2    0    0 -0.11798092272E+02 -0.39538970869E+01  0.29357992656E+02  0.59301952640E+02  0.50000015707E+02 0.  0.
         12    1    1    2    0    0  0.11798092272E+02  0.39538970869E+01 -0.29357992656E+02  0.31886047360E+02  0.00000000000E+00 0. -1.
         11    1    3    3    0    0 -0.35944176541E+01 -0.16144674264E+01 -0.10163528595E+02  0.10900626455E+02  0.51100000000E-03 0. -1.
        -11    1    3    3    0    0 -0.98093243684E+01 -0.21983744749E+01  0.12891222850E+01  0.10134965783E+02  0.51100000000E-03 0.  1.
        -12    1    3    3    0    0  0.16056497503E+01 -0.14105518556E+00  0.38232398966E+02  0.38266360402E+02  0.00000000000E+00 0.  1.
</event>
<event>
 7    1  0.3223600E-013  0.5930196E+02  0.7816164E-02  0.1266605E+00
        -11   -1    0    0    0    0  0.00000000000E+00  0.00000000000E+00  0.45593999997E+02  0.45594000000E+02  0.51100000000E-03 0.  1.
         11   -1    0    0    0    0 -0.00000000000E+00 -0.00000000000E+00 -0.45593999997E+02  0.45594000000E+02  0.51100000000E-03 0. -1.
    9900012    2    1    2    0    0  0.18717365606E+02  0.95453947843E+01  0.23984690847E+02  0.59301957099E+02  0.50000023839E+02 0.  0.
         12    1    1    2    0    0 -0.18717365606E+02 -0.95453947843E+01 -0.23984690847E+02  0.31886042901E+02  0.00000000000E+00 0. -1.
         11    1    3    3    0    0  0.23102944012E+02  0.44104198552E+01  0.26663004571E+02  0.35554375798E+02  0.51100000000E-03 0.  1.
        -11    1    3    3    0    0  0.88823522083E+01  0.48283255131E+01  0.42253440380E+00  0.10118668074E+02  0.51100000000E-03 0. -1.
         12    1    3    3    0    0 -0.13267930614E+02  0.30664941600E+00 -0.31008481278E+01  0.13628913227E+02  0.00000000000E+00 0. -1.
</event>
<event>
 7    1  0.3223600E-013  0.5930195E+02  0.7816164E-02  0.1266605E+00
        -11   -1    0    0    0    0  0.00000000000E+00  0.00000000000E+00  0.45593999997E+02  0.45594000000E+02  0.51100000000E-03 0.  1.
         11   -1    0    0    0    0 -0.00000000000E+00 -0.00000000000E+00 -0.45593999997E+02  0.45594000000E+02  0.51100000000E-03 0. -1.
    9900012    2    1    2    0    0 -0.19449425008E+02 -0.17367697774E+01  0.25207611689E+02  0.59301949924E+02  0.50000010754E+02 0.  0.
         12    1    1    2    0    0  0.19449425008E+02  0.17367697774E+01 -0.25207611689E+02  0.31886050076E+02  0.00000000000E+00 0. -1.
         11    1    3    3    0    0  0.18297780306E+01 -0.53563128803E+01  0.94194817702E+00  0.57380695309E+01  0.51100000000E-03 0. -1.
        -11    1    3    3    0    0  0.35635154126E+01  0.97613008628E+01 -0.74685843399E+01  0.12796928887E+02  0.51100000000E-03 0.  1.
        -12    1    3    3    0    0 -0.24842718451E+02 -0.61417577599E+01  0.31734247852E+02  0.40766951506E+02  0.00000000000E+00 0.  1.
</event>
<event>
 7    1  0.3223600E-013  0.5930195E+02  0.7816164E-02  0.1266605E+00
        -11   -1    0    0    0    0  0.00000000000E+00  0.00000000000E+00  0.45593999997E+02  0.45594000000E+02  0.51100000000E-03 0. -1.
         11   -1    0    0    0    0 -0.00000000000E+00 -0.00000000000E+00 -0.45593999997E+02  0.45594000000E+02  0.51100000000E-03 0.  1.
    9900012    2    1    2    0    0  0.22885138568E+02 -0.16578822291E+02  0.14769333923E+02  0.59301950694E+02  0.50000012158E+02 0.  0.
         12    1    1    2    0    0 -0.22885138568E+02  0.16578822291E+02 -0.14769333923E+02  0.31886049306E+02  0.00000000000E+00 0. -1.
         11    1    3    3    0    0 -0.22602974696E+01 -0.22432641127E+00  0.15134638008E+01  0.27294394895E+01  0.51100000000E-03 0. -1.
        -11    1    3    3    0    0 -0.72098770538E+01 -0.50642052121E+01 -0.11362087077E+02  0.14377952725E+02  0.51100000000E-03 0.  1.
         12    1    3    3    0    0  0.32355313091E+02 -0.11290290667E+02  0.24617957200E+02  0.42194558479E+02  0.00000000000E+00 0. -1.
</event>
<event>
 7    1  0.3223600E-013  0.5930188E+02  0.7816164E-02  0.1266605E+00
        -11   -1    0    0    0    0  0.00000000000E+00  0.00000000000E+00  0.45593999997E+02  0.45594000000E+02  0.51100000000E-03 0.  1.
         11   -1    0    0    0    0 -0.00000000000E+00 -0.00000000000E+00 -0.45593999997E+02  0.45594000000E+02  0.51100000000E-03 0. -1.
    9900012    2    1    2    0    0  0.19262862771E+02  0.16532158941E+02  0.19296486079E+02  0.59301881760E+02  0.49999886439E+02 0.  0.
         12    1    1    2    0    0 -0.19262862771E+02 -0.16532158941E+02 -0.19296486079E+02  0.31886118240E+02  0.00000000000E+00 0. -1.
         11    1    3    3    0    0 -0.32668641115E+01  0.68600639470E+01  0.18697794848E+02  0.20182676010E+02  0.51100000000E-03 0. -1.
        -11    1    3    3    0    0  0.47676507064E+01  0.12134479294E+02  0.12123394727E+02  0.17803167723E+02  0.51100000000E-03 0.  1.
         12    1    3    3    0    0  0.17762076176E+02 -0.24623842996E+01 -0.11524703496E+02  0.21316038028E+02  0.00000000000E+00 0. -1.
</event>
<event>
 7    1  0.3223600E-013  0.5930195E+02  0.7816164E-02  0.1266605E+00
        -11   -1    0    0    0    0  0.00000000000E+00  0.00000000000E+00  0.45593999997E+02  0.45594000000E+02  0.51100000000E-03 0.  1.
         11   -1    0    0    0    0 -0.00000000000E+00 -0.00000000000E+00 -0.45593999997E+02  0.45594000000E+02  0.51100000000E-03 0. -1.
    9900012    2    1    2    0    0 -0.18927274263E+02 -0.22903937698E+02 -0.11571005547E+02  0.59301949093E+02  0.50000009237E+02 0.  0.
         12    1    1    2    0    0  0.18927274263E+02  0.22903937698E+02  0.11571005547E+02  0.31886050907E+02  0.00000000000E+00 0. -1.
         11    1    3    3    0    0 -0.62640689309E+01 -0.23234669655E+01 -0.24610514921E+02  0.25501264738E+02  0.51100000000E-03 0. -1.
        -11    1    3    3    0    0 -0.10190389098E+02  0.45039406936E-01  0.24354937861E+01  0.10477484849E+02  0.51100000000E-03 0.  1.
        -12    1    3    3    0    0 -0.24728162344E+01 -0.20625510139E+02  0.10604015587E+02  0.23323199506E+02  0.00000000000E+00 0.  1.
</event>
<event>
 7    1  0.3223600E-013  0.5930197E+02  0.7816164E-02  0.1266605E+00
        -11   -1    0    0    0    0  0.00000000000E+00  0.00000000000E+00  0.45593999997E+02  0.45594000000E+02  0.51100000000E-03 0.  1.
         11   -1    0    0    0    0 -0.00000000000E+00 -0.00000000000E+00 -0.45593999997E+02  0.45594000000E+02  0.51100000000E-03 0. -1.
    9900012    2    1    2    0    0 -0.26831975403E+02 -0.16276459486E+02  0.56427451139E+01  0.59301974693E+02  0.50000055926E+02 0.  0.
         12    1    1    2    0    0  0.26831975403E+02  0.16276459486E+02 -0.56427451139E+01  0.31886025307E+02  0.00000000000E+00 0. -1.
         11    1    3    3    0    0  0.19827228950E+01 -0.14197943469E+01 -0.13956799228E+00  0.24426390547E+01  0.51100000000E-03 0. -1.
        -11    1    3    3    0    0 -0.20076322746E+02 -0.31736878290E+02  0.35700332159E+01  0.37723113816E+02  0.51100000000E-03 0.  1.
        -12    1    3    3    0    0 -0.87383755524E+01  0.16880213151E+02  0.22122798904E+01  0.19136221822E+02  0.00000000000E+00 0.  1.
</event>
<event>
 7    1  0.3223600E-013  0.5930192E+02  0.7816164E-02  0.1266605E+00
        -11   -1    0    0    0    0  0.00000000000E+00  0.00000000000E+00  0.45593999997E+02  0.45594000000E+02  0.51100000000E-03 0. -1.
         11   -1    0    0    0    0 -0.00000000000E+00 -0.00000000000E+00 -0.45593999997E+02  0.45594000000E+02  0.51100000000E-03 0.  1.
    9900012    2    1    2    0    0  0.22580574263E+02 -0.18783551143E+02 -0.12410390029E+02  0.59301922971E+02  0.49999961598E+02 0.  0.
         12    1    1    2    0    0 -0.22580574263E+02  0.18783551143E+02  0.12410390029E+02  0.31886077029E+02  0.00000000000E+00 0. -1.
         11    1    3    3    0    0 -0.57857817010E+01  0.68229612893E+01  0.41853654528E+01  0.98765051957E+01  0.51100000000E-03 0. -1.
        -11    1    3    3    0    0  0.76936208232E+01  0.73187752837E+00  0.53431559772E+01  0.93955714113E+01  0.51100000000E-03 0.  1.
        -12    1    3    3    0    0  0.20672735141E+02 -0.26338389961E+02 -0.21938911459E+02  0.40029846364E+02  0.00000000000E+00 0.  1.
</event>
<event>
 7    1  0.3223600E-013  0.5930195E+02  0.7816164E-02  0.1266605E+00
        -11   -1    0    0    0    0  0.00000000000E+00  0.00000000000E+00  0.45593999997E+02  0.45594000000E+02  0.51100000000E-03 0. -1.
         11   -1    0    0    0    0 -0.00000000000E+00 -0.00000000000E+00 -0.45593999997E+02  0.45594000000E+02  0.51100000000E-03 0.  1.
    9900012    2    1    2    0    0 -0.10458853900E+01  0.22599293946E+02 -0.22469944912E+02  0.59301946819E+02  0.50000005090E+02 0.  0.
         12    1    1    2    0    0  0.10458853900E+01 -0.22599293946E+02  0.22469944912E+02  0.31886053181E+02  0.00000000000E+00 0. -1.
         11    1    3    3    0    0 -0.32830408059E+01  0.26702588967E+01 -0.14549794697E+02  0.15152727989E+02  0.51100000000E-03 0. -1.
        -11    1    3    3    0    0  0.12320055248E+02  0.21863280370E+02 -0.17107513979E+02  0.30371924941E+02  0.51100000000E-03 0.  1.
        -12    1    3    3    0    0 -0.10082899832E+02 -0.19342453203E+01  0.91873637638E+01  0.13777293889E+02  0.00000000000E+00 0.  1.
</event>
<event>
 7    1  0.3223600E-013  0.5930200E+02  0.7816164E-02  0.1266605E+00
        -11   -1    0    0    0    0  0.00000000000E+00  0.00000000000E+00  0.45593999997E+02  0.45594000000E+02  0.51100000000E-03 0.  1.
         11   -1    0    0    0    0 -0.00000000000E+00 -0.00000000000E+00 -0.45593999997E+02  0.45594000000E+02  0.51100000000E-03 0. -1.
    9900012    2    1    2    0    0 -0.13109565003E+02 -0.28808353681E+02  0.38645534420E+01  0.59302004489E+02  0.50000110267E+02 0.  0.
         12    1    1    2    0    0  0.13109565003E+02  0.28808353681E+02 -0.38645534420E+01  0.31885995511E+02  0.00000000000E+00 0. -1.
         11    1    3    3    0    0 -0.15242781360E+02 -0.17408385271E+02  0.47643762464E+01  0.23624003526E+02  0.51100000000E-03 0. -1.
        -11    1    3    3    0    0 -0.15153736314E+02 -0.66881174596E+01  0.41235008656E+01  0.17069560600E+02  0.51100000000E-03 0.  1.
         12    1    3    3    0    0  0.17286952671E+02 -0.47118509513E+01 -0.50233236701E+01  0.18608440363E+02  0.00000000000E+00 0. -1.
</event>
<event>
 7    1  0.3223600E-013  0.5930219E+02  0.7816164E-02  0.1266604E+00
        -11   -1    0    0    0    0  0.00000000000E+00  0.00000000000E+00  0.45593999997E+02  0.45594000000E+02  0.51100000000E-03 0. -1.
         11   -1    0    0    0    0 -0.00000000000E+00 -0.00000000000E+00 -0.45593999997E+02  0.45594000000E+02  0.51100000000E-03 0.  1.
    9900012    2    1    2    0    0  0.13697698285E+02 -0.20449266424E+02 -0.20270808907E+02  0.59302186080E+02  0.50000441444E+02 0.  0.
         12    1    1    2    0    0 -0.13697698285E+02  0.20449266424E+02  0.20270808907E+02  0.31885813920E+02  0.00000000000E+00 0. -1.
         11    1    3    3    0    0  0.15740490084E+02 -0.49545781389E+01  0.41836563551E+01  0.17023920036E+02  0.51100000000E-03 0. -1.
        -11    1    3    3    0    0 -0.59547864963E+01 -0.24103933459E+02 -0.15594132719E+02  0.29319550917E+02  0.51100000000E-03 0.  1.
         12    1    3    3    0    0  0.39119946975E+01  0.86092451748E+01 -0.88603325431E+01  0.12958715128E+02  0.00000000000E+00 0. -1.
</event>
<event>
 7    1  0.3223600E-013  0.5930195E+02  0.7816164E-02  0.1266605E+00
        -11   -1    0    0    0    0  0.00000000000E+00  0.00000000000E+00  0.45593999997E+02  0.45594000000E+02  0.51100000000E-03 0. -1.
         11   -1    0    0    0    0 -0.00000000000E+00 -0.00000000000E+00 -0.45593999997E+02  0.45594000000E+02  0.51100000000E-03 0.  1.
    9900012    2    1    2    0    0  0.24092254217E+02  0.20798790393E+02  0.19219497805E+01  0.59301948409E+02  0.50000007991E+02 0.  0.
         12    1    1    2    0    0 -0.24092254217E+02 -0.20798790393E+02 -0.19219497805E+01  0.31886051591E+02  0.00000000000E+00 0. -1.
         11    1    3    3    0    0  0.69914419702E+01  0.10944489460E+02  0.18590682770E+01  0.13119384341E+02  0.51100000000E-03 0.  1.
        -11    1    3    3    0    0  0.28868316687E+02  0.91171083210E+01  0.87779724258E+01  0.31520694355E+02  0.51100000000E-03 0. -1.
         12    1    3    3    0    0 -0.11767504440E+02  0.73719261181E+00 -0.87150909223E+01  0.14661869713E+02  0.00000000000E+00 0. -1.
</event>
<event>
 7    1  0.3223600E-013  0.5930201E+02  0.7816164E-02  0.1266605E+00
        -11   -1    0    0    0    0  0.00000000000E+00  0.00000000000E+00  0.45593999997E+02  0.45594000000E+02  0.51100000000E-03 0.  1.
         11   -1    0    0    0    0 -0.00000000000E+00 -0.00000000000E+00 -0.45593999997E+02  0.45594000000E+02  0.51100000000E-03 0. -1.
    9900012    2    1    2    0    0  0.20377293526E+02  0.24207655547E+02  0.39334315453E+01  0.59302006801E+02  0.50000114484E+02 0.  0.
         12    1    1    2    0    0 -0.20377293526E+02 -0.24207655547E+02 -0.39334315453E+01  0.31885993199E+02  0.00000000000E+00 0. -1.
         11    1    3    3    0    0  0.51223547336E+01  0.55988369833E+00  0.16732205460E+02  0.17507675106E+02  0.51100000000E-03 0. -1.
        -11    1    3    3    0    0  0.80746332533E+01  0.14435127835E+02  0.76665227633E+01  0.18230419340E+02  0.51100000000E-03 0.  1.
         12    1    3    3    0    0  0.71803055389E+01  0.92126440143E+01 -0.20465296678E+02  0.23563912356E+02  0.00000000000E+00 0. -1.
</event>
<event>
 7    1  0.3223600E-013  0.5930195E+02  0.7816164E-02  0.1266605E+00
        -11   -1    0    0    0    0  0.00000000000E+00  0.00000000000E+00  0.45593999997E+02  0.45594000000E+02  0.51100000000E-03 0.  1.
         11   -1    0    0    0    0 -0.00000000000E+00 -0.00000000000E+00 -0.45593999997E+02  0.45594000000E+02  0.51100000000E-03 0. -1.
    9900012    2    1    2    0    0 -0.24995122478E+02 -0.82159065184E+00  0.19781021980E+02  0.59301953060E+02  0.50000016474E+02 0.  0.
         12    1    1    2    0    0  0.24995122478E+02  0.82159065184E+00 -0.19781021980E+02  0.31886046940E+02  0.00000000000E+00 0. -1.
         11    1    3    3    0    0 -0.73014646660E-01 -0.59083377717E+01 -0.12281342261E+02  0.13628835400E+02  0.51100000000E-03 0. -1.
        -11    1    3    3    0    0  0.23553600204E+01 -0.31205102002E+01  0.53169568192E+01  0.65996465673E+01  0.51100000000E-03 0.  1.
        -12    1    3    3    0    0 -0.27277467851E+02  0.82072573201E+01  0.26745407422E+02  0.39073471093E+02  0.00000000000E+00 0.  1.
</event>
<event>
 7    1  0.3223600E-013  0.5930192E+02  0.7816164E-02  0.1266605E+00
        -11   -1    0    0    0    0  0.00000000000E+00  0.00000000000E+00  0.45593999997E+02  0.45594000000E+02  0.51100000000E-03 0. -1.
         11   -1    0    0    0    0 -0.00000000000E+00 -0.00000000000E+00 -0.45593999997E+02  0.45594000000E+02  0.51100000000E-03 0.  1.
    9900012    2    1    2    0    0  0.16382890353E+02  0.76707044784E+01 -0.26258010425E+02  0.59301922866E+02  0.49999961406E+02 0.  0.
         12    1    1    2    0    0 -0.16382890353E+02 -0.76707044784E+01  0.26258010425E+02  0.31886077134E+02  0.00000000000E+00 0. -1.
         11    1    3    3    0    0  0.83077764203E+01  0.13511353154E+02  0.27742419225E+01  0.16101932543E+02  0.51100000000E-03 0. -1.
        -11    1    3    3    0    0 -0.10250452911E+02 -0.17063026955E+00 -0.18910626251E+02  0.21510757426E+02  0.51100000000E-03 0.  1.
         12    1    3    3    0    0  0.18325566843E+02 -0.56700184063E+01 -0.10121626097E+02  0.21689232898E+02  0.00000000000E+00 0. -1.
</event>
<event>
 7    1  0.3223600E-013  0.5930190E+02  0.7816164E-02  0.1266605E+00
        -11   -1    0    0    0    0  0.00000000000E+00  0.00000000000E+00  0.45593999997E+02  0.45594000000E+02  0.51100000000E-03 0. -1.
         11   -1    0    0    0    0 -0.00000000000E+00 -0.00000000000E+00 -0.45593999997E+02  0.45594000000E+02  0.51100000000E-03 0.  1.
    9900012    2    1    2    0    0 -0.25243402985E+01  0.10704184816E+02 -0.29929437746E+02  0.59301904122E+02  0.49999927222E+02 0.  0.
         12    1    1    2    0    0  0.25243402985E+01 -0.10704184816E+02  0.29929437746E+02  0.31886095878E+02  0.00000000000E+00 0. -1.
         11    1    3    3    0    0  0.35412866389E+01 -0.15229782089E+01  0.38514908160E+01  0.54492343912E+01  0.51100000000E-03 0. -1.
        -11    1    3    3    0    0 -0.11873057884E+02 -0.10555474672E+02 -0.49279553473E+01  0.16633469068E+02  0.51100000000E-03 0.  1.
        -12    1    3    3    0    0  0.58074309468E+01  0.22782637697E+02 -0.28852973215E+02  0.37219200663E+02  0.00000000000E+00 0.  1.
</event>
<event>
 7    1  0.3223600E-013  0.5930185E+02  0.7816164E-02  0.1266605E+00
        -11   -1    0    0    0    0  0.00000000000E+00  0.00000000000E+00  0.45593999997E+02  0.45594000000E+02  0.51100000000E-03 0.  1.
         11   -1    0    0    0    0 -0.00000000000E+00 -0.00000000000E+00 -0.45593999997E+02  0.45594000000E+02  0.51100000000E-03 0. -1.
    9900012    2    1    2    0    0  0.92881983149E+00 -0.29681161713E+02  0.11614333096E+02  0.59301846262E+02  0.49999821699E+02 0.  0.
         12    1    1    2    0    0 -0.92881983149E+00  0.29681161713E+02 -0.11614333096E+02  0.31886153738E+02  0.00000000000E+00 0. -1.
         11    1    3    3    0    0  0.15135977269E+02 -0.12235900720E+02  0.98509699522E+00  0.19488085864E+02  0.51100000000E-03 0. -1.
        -11    1    3    3    0    0  0.40580558910E+01 -0.88286016122E+01  0.16176250664E+02  0.18870164542E+02  0.51100000000E-03 0.  1.
        -12    1    3    3    0    0 -0.18265213328E+02 -0.86166593811E+01 -0.55470145638E+01  0.20943595856E+02  0.00000000000E+00 0.  1.
</event>
<event>
 7    1  0.3223600E-013  0.5930196E+02  0.7816164E-02  0.1266605E+00
        -11   -1    0    0    0    0  0.00000000000E+00  0.00000000000E+00  0.45593999997E+02  0.45594000000E+02  0.51100000000E-03 0.  1.
         11   -1    0    0    0    0 -0.00000000000E+00 -0.00000000000E+00 -0.45593999997E+02  0.45594000000E+02  0.51100000000E-03 0. -1.
    9900012    2    1    2    0    0  0.16966331962E+02 -0.26758547131E+02  0.35837510081E+01  0.59301960169E+02  0.50000029438E+02 0.  0.
         12    1    1    2    0    0 -0.16966331962E+02  0.26758547131E+02 -0.35837510081E+01  0.31886039831E+02  0.00000000000E+00 0. -1.
         11    1    3    3    0    0 -0.97122555041E+01 -0.28010358571E+01  0.51986356393E+01  0.11366596748E+02  0.51100000000E-03 0. -1.
        -11    1    3    3    0    0  0.25049721077E+02 -0.12641307713E+02  0.11687058649E+02  0.30395370155E+02  0.51100000000E-03 0.  1.
         12    1    3    3    0    0  0.16288663896E+01 -0.11316203561E+02 -0.13301943281E+02  0.17539993266E+02  0.00000000000E+00 0. -1.
</event>
<event>
 7    1  0.3223600E-013  0.5930193E+02  0.7816164E-02  0.1266605E+00
        -11   -1    0    0    0    0  0.00000000000E+00  0.00000000000E+00  0.45593999997E+02  0.45594000000E+02  0.51100000000E-03 0. -1.
         11   -1    0    0    0    0 -0.00000000000E+00 -0.00000000000E+00 -0.45593999997E+02  0.45594000000E+02  0.51100000000E-03 0.  1.
    9900012    2    1    2    0    0 -0.16293795267E+02 -0.70488475699E+01 -0.26486735398E+02  0.59301934575E+02  0.49999982760E+02 0.  0.
         12    1    1    2    0    0  0.16293795267E+02  0.70488475699E+01  0.26486735398E+02  0.31886065425E+02  0.00000000000E+00 0. -1.
         11    1    3    3    0    0 -0.76264517208E+00  0.14531236777E+02 -0.21475959208E+01  0.14708862581E+02  0.51100000000E-03 0. -1.
        -11    1    3    3    0    0 -0.32014397878E+01  0.29219674559E+01 -0.15005759837E+02  0.15619216981E+02  0.51100000000E-03 0.  1.
        -12    1    3    3    0    0 -0.12329710307E+02 -0.24502051803E+02 -0.93333796401E+01  0.28973855013E+02  0.00000000000E+00 0.  1.
</event>
<event>
 7    1  0.3223600E-013  0.5930195E+02  0.7816164E-02  0.1266605E+00
        -11   -1    0    0    0    0  0.00000000000E+00  0.00000000000E+00  0.45593999997E+02  0.45594000000E+02  0.51100000000E-03 0. -1.
         11   -1    0    0    0    0 -0.00000000000E+00 -0.00000000000E+00 -0.45593999997E+02  0.45594000000E+02  0.51100000000E-03 0.  1.
    9900012    2    1    2    0    0 -0.34065661907E+01 -0.50746259680E+01 -0.31294785975E+02  0.59301950525E+02  0.50000011849E+02 0.  0.
         12    1    1    2    0    0  0.34065661907E+01  0.50746259680E+01  0.31294785975E+02  0.31886049475E+02  0.00000000000E+00 0. -1.
         11    1    3    3    0    0  0.29680247354E+01 -0.70674945436E+01 -0.31913843270E+02  0.32821517979E+02  0.51100000000E-03 0. -1.
        -11    1    3    3    0    0 -0.12128711456E+02 -0.95511978816E-01 -0.89828482687E+01  0.15093254367E+02  0.51100000000E-03 0.  1.
         12    1    3    3    0    0  0.57541205295E+01  0.20883805544E+01  0.96019055635E+01  0.11387178178E+02  0.00000000000E+00 0. -1.
</event>
<event>
 7    1  0.3223600E-013  0.5930194E+02  0.7816164E-02  0.1266605E+00
        -11   -1    0    0    0    0  0.00000000000E+00  0.00000000000E+00  0.45593999997E+02  0.45594000000E+02  0.51100000000E-03 0. -1.
         11   -1    0    0    0    0 -0.00000000000E+00 -0.00000000000E+00 -0.45593999997E+02  0.45594000000E+02  0.51100000000E-03 0.  1.
    9900012    2    1    2    0    0 -0.28702763446E+01  0.19107000542E+02 -0.25365421471E+02  0.59301944076E+02  0.50000000088E+02 0.  0.
         12    1    1    2    0    0  0.28702763446E+01 -0.19107000542E+02  0.25365421471E+02  0.31886055924E+02  0.00000000000E+00 0. -1.
         11    1    3    3    0    0 -0.29581324868E+01 -0.31303823899E+01  0.64603083066E+01  0.77643689631E+01  0.51100000000E-03 0. -1.
        -11    1    3    3    0    0  0.45154146694E+01 -0.64208390291E+01 -0.17529587248E+02  0.19206836617E+02  0.51100000000E-03 0.  1.
         12    1    3    3    0    0 -0.44275585271E+01  0.28658221961E+02 -0.14296142530E+02  0.32330738496E+02  0.00000000000E+00 0. -1.
</event>
<event>
 7    1  0.3223600E-013  0.5930200E+02  0.7816164E-02  0.1266605E+00
        -11   -1    0    0    0    0  0.00000000000E+00  0.00000000000E+00  0.45593999997E+02  0.45594000000E+02  0.51100000000E-03 0. -1.
         11   -1    0    0    0    0 -0.00000000000E+00 -0.00000000000E+00 -0.45593999997E+02  0.45594000000E+02  0.51100000000E-03 0.  1.
    9900012    2    1    2    0    0 -0.31088928145E+02 -0.67976329316E+01 -0.19970014572E+01  0.59301995523E+02  0.50000093916E+02 0.  0.
         12    1    1    2    0    0  0.31088928145E+02  0.67976329316E+01  0.19970014572E+01  0.31886004477E+02  0.00000000000E+00 0. -1.
         11    1    3    3    0    0  0.36094938479E+01  0.70570527989E+01  0.29637590512E+01  0.84625237381E+01  0.51100000000E-03 0. -1.
        -11    1    3    3    0    0 -0.20712757307E+02  0.99481738156E+01 -0.17153136250E+01  0.23041848420E+02  0.51100000000E-03 0.  1.
        -12    1    3    3    0    0 -0.13985664685E+02 -0.23802859546E+02 -0.32454468834E+01  0.27797623365E+02  0.00000000000E+00 0.  1.
</event>
<event>
 7    1  0.3223600E-013  0.5930191E+02  0.7816164E-02  0.1266605E+00
        -11   -1    0    0    0    0  0.00000000000E+00  0.00000000000E+00  0.45593999997E+02  0.45594000000E+02  0.51100000000E-03 0. -1.
         11   -1    0    0    0    0 -0.00000000000E+00 -0.00000000000E+00 -0.45593999997E+02  0.45594000000E+02  0.51100000000E-03 0.  1.
    9900012    2    1    2    0    0 -0.26967772867E+02 -0.13232693671E+02 -0.10693821038E+02  0.59301909559E+02  0.49999937138E+02 0.  0.
         12    1    1    2    0    0  0.26967772867E+02  0.13232693671E+02  0.10693821038E+02  0.31886090441E+02  0.00000000000E+00 0. -1.
         11    1    3    3    0    0 -0.21156587772E+01 -0.50619769997E+01 -0.35834437296E+01  0.65529148043E+01  0.51100000000E-03 0. -1.
        -11    1    3    3    0    0 -0.30533581986E+02 -0.21516925212E+02 -0.21355326995E+01  0.37414411658E+02  0.51100000000E-03 0.  1.
        -12    1    3    3    0    0  0.56814678963E+01  0.13346208542E+02 -0.49748446085E+01  0.15334583097E+02  0.00000000000E+00 0.  1.
</event>
<event>
 7    1  0.3223600E-013  0.5930186E+02  0.7816164E-02  0.1266605E+00
        -11   -1    0    0    0    0  0.00000000000E+00  0.00000000000E+00  0.45593999997E+02  0.45594000000E+02  0.51100000000E-03 0. -1.
         11   -1    0    0    0    0 -0.00000000000E+00 -0.00000000000E+00 -0.45593999997E+02  0.45594000000E+02  0.51100000000E-03 0.  1.
    9900012    2    1    2    0    0  0.90110034913E+01 -0.37777963392E+01 -0.30352195712E+02  0.59301863300E+02  0.49999852772E+02 0.  0.
         12    1    1    2    0    0 -0.90110034913E+01  0.37777963392E+01  0.30352195712E+02  0.31886136700E+02  0.00000000000E+00 0. -1.
         11    1    3    3    0    0 -0.16316871990E+01 -0.19707426198E+02 -0.37562440742E+01  0.20128448034E+02  0.51100000000E-03 0. -1.
        -11    1    3    3    0    0 -0.54373980415E+01  0.63113014963E+00 -0.15099783184E+01  0.56783498933E+01  0.51100000000E-03 0.  1.
        -12    1    3    3    0    0  0.16080088732E+02  0.15298499709E+02 -0.25085973319E+02  0.33495065373E+02  0.00000000000E+00 0.  1.
</event>
<event>
 7    1  0.3223600E-013  0.5930172E+02  0.7816164E-02  0.1266606E+00
        -11   -1    0    0    0    0  0.00000000000E+00  0.00000000000E+00  0.45593999997E+02  0.45594000000E+02  0.51100000000E-03 0.  1.
         11   -1    0    0    0    0 -0.00000000000E+00 -0.00000000000E+00 -0.45593999997E+02  0.45594000000E+02  0.51100000000E-03 0. -1.
    9900012    2    1    2    0    0 -0.40703010808E+00  0.21700318087E+02  0.23359474918E+02  0.59301724786E+02  0.49999600154E+02 0.  0.
         12    1    1    2    0    0  0.40703010808E+00 -0.21700318087E+02 -0.23359474918E+02  0.31886275214E+02  0.00000000000E+00 0. -1.
         11    1    3    3    0    0  0.13217723837E+02  0.94421635836E+01  0.84580783812E+00  0.16265855887E+02  0.51100000000E-03 0. -1.
        -11    1    3    3    0    0 -0.21660309183E+02  0.13859126156E+02  0.90226091588E+01  0.27251639364E+02  0.51100000000E-03 0.  1.
         12    1    3    3    0    0  0.80355552376E+01 -0.16009716529E+01  0.13491057921E+02  0.15784229536E+02  0.00000000000E+00 0. -1.
</event>
<event>
 7    1  0.3223600E-013  0.5930202E+02  0.7816164E-02  0.1266604E+00
        -11   -1    0    0    0    0  0.00000000000E+00  0.00000000000E+00  0.45593999997E+02  0.45594000000E+02  0.51100000000E-03 0. -1.
         11   -1    0    0    0    0 -0.00000000000E+00 -0.00000000000E+00 -0.45593999997E+02  0.45594000000E+02  0.51100000000E-03 0.  1.
    9900012    2    1    2    0    0  0.74246542732E+01  0.30977107481E+02 -0.14173080996E+01  0.59302024380E+02  0.50000146544E+02 0.  0.
         12    1    1    2    0    0 -0.74246542732E+01 -0.30977107481E+02  0.14173080996E+01  0.31885975620E+02  0.00000000000E+00 0. -1.
         11    1    3    3    0    0  0.12514564190E+02  0.24304683011E+02  0.61199674289E+01  0.28014031033E+02  0.51100000000E-03 0. -1.
        -11    1    3    3    0    0  0.64747080720E+01  0.78552686860E+01 -0.14515610422E+02  0.17729355232E+02  0.51100000000E-03 0.  1.
         12    1    3    3    0    0 -0.11564617989E+02 -0.11828442160E+01  0.69783348935E+01  0.13558638116E+02  0.00000000000E+00 0. -1.
</event>
<event>
 7    1  0.3223600E-013  0.5930193E+02  0.7816164E-02  0.1266605E+00
        -11   -1    0    0    0    0  0.00000000000E+00  0.00000000000E+00  0.45593999997E+02  0.45594000000E+02  0.51100000000E-03 0. -1.
         11   -1    0    0    0    0 -0.00000000000E+00 -0.00000000000E+00 -0.45593999997E+02  0.45594000000E+02  0.51100000000E-03 0.  1.
    9900012    2    1    2    0    0 -0.68704405372E+01  0.55598961029E+01 -0.30636678386E+02  0.59301929995E+02  0.49999974408E+02 0.  0.
         12    1    1    2    0    0  0.68704405372E+01 -0.55598961029E+01  0.30636678386E+02  0.31886070005E+02  0.00000000000E+00 0. -1.
         11    1    3    3    0    0 -0.12221487503E+02 -0.12281337182E+01 -0.74978218385E+01  0.14390635907E+02  0.51100000000E-03 0.  1.
        -11    1    3    3    0    0 -0.88303560601E+01 -0.10568074973E+02 -0.16589582930E+02  0.21560928988E+02  0.51100000000E-03 0. -1.
         12    1    3    3    0    0  0.14181403026E+02  0.17356104794E+02 -0.65492736168E+01  0.23350365100E+02  0.00000000000E+00 0. -1.
</event>
<event>
 7    1  0.3223600E-013  0.5930195E+02  0.7816164E-02  0.1266605E+00
        -11   -1    0    0    0    0  0.00000000000E+00  0.00000000000E+00  0.45593999997E+02  0.45594000000E+02  0.51100000000E-03 0.  1.
         11   -1    0    0    0    0 -0.00000000000E+00 -0.00000000000E+00 -0.45593999997E+02  0.45594000000E+02  0.51100000000E-03 0. -1.
    9900012    2    1    2    0    0 -0.22637069370E+01 -0.98876113095E+01  0.30229634327E+02  0.59301952612E+02  0.50000015655E+02 0.  0.
         12    1    1    2    0    0  0.22637069370E+01  0.98876113095E+01 -0.30229634327E+02  0.31886047388E+02  0.00000000000E+00 0. -1.
         11    1    3    3    0    0 -0.16581035920E+01 -0.64657540715E+01 -0.63078305184E+01  0.91838994630E+01  0.51100000000E-03 0. -1.
        -11    1    3    3    0    0 -0.13311537062E+02  0.51527345163E+01  0.51269027082E+01  0.15166833011E+02  0.51100000000E-03 0.  1.
        -12    1    3    3    0    0  0.12705933717E+02 -0.85745917542E+01  0.31410562137E+02  0.34951220138E+02  0.00000000000E+00 0.  1.
</event>
<event>
 7    1  0.3223600E-013  0.5930188E+02  0.7816164E-02  0.1266605E+00
        -11   -1    0    0    0    0  0.00000000000E+00  0.00000000000E+00  0.45593999997E+02  0.45594000000E+02  0.51100000000E-03 0. -1.
         11   -1    0    0    0    0 -0.00000000000E+00 -0.00000000000E+00 -0.45593999997E+02  0.45594000000E+02  0.51100000000E-03 0.  1.
    9900012    2    1    2    0    0 -0.30389979703E+02 -0.14977043922E+00  0.96514819551E+01  0.59301883876E+02  0.49999890298E+02 0.  0.
         12    1    1    2    0    0  0.30389979703E+02  0.14977043922E+00 -0.96514819551E+01  0.31886116124E+02  0.00000000000E+00 0. -1.
         11    1    3    3    0    0 -0.40126963505E+01 -0.92397097571E+01  0.44096061700E+01  0.10996299161E+02  0.51100000000E-03 0. -1.
        -11    1    3    3    0    0 -0.23767516685E+02  0.18475285346E+02  0.15751526882E+02  0.33975603267E+02  0.51100000000E-03 0.  1.
         12    1    3    3    0    0 -0.26097666672E+01 -0.93853460279E+01 -0.10509651097E+02  0.14329981448E+02  0.00000000000E+00 0. -1.
</event>
<event>
 7    1  0.3223600E-013  0.5930210E+02  0.7816164E-02  0.1266604E+00
        -11   -1    0    0    0    0  0.00000000000E+00  0.00000000000E+00  0.45593999997E+02  0.45594000000E+02  0.51100000000E-03 0.  1.
         11   -1    0    0    0    0 -0.00000000000E+00 -0.00000000000E+00 -0.45593999997E+02  0.45594000000E+02  0.51100000000E-03 0. -1.
    9900012    2    1    2    0    0  0.23932989514E+02 -0.19246013432E+02  0.85739903158E+01  0.59302104528E+02  0.50000292713E+02 0.  0.
         12    1    1    2    0    0 -0.23932989514E+02  0.19246013432E+02 -0.85739903158E+01  0.31885895472E+02  0.00000000000E+00 0. -1.
         11    1    3    3    0    0  0.30564846488E+01  0.20627254816E+00  0.16227137786E+02  0.16513771457E+02  0.51100000000E-03 0. -1.
        -11    1    3    3    0    0  0.83886850493E+01 -0.10141064715E+02  0.11931460431E+02  0.17764317569E+02  0.51100000000E-03 0.  1.
        -12    1    3    3    0    0  0.12487819816E+02 -0.93112212653E+01 -0.19584607901E+02  0.25024015502E+02  0.00000000000E+00 0.  1.
</event>
<event>
 7    1  0.3223600E-013  0.5930201E+02  0.7816164E-02  0.1266605E+00
        -11   -1    0    0    0    0  0.00000000000E+00  0.00000000000E+00  0.45593999997E+02  0.45594000000E+02  0.51100000000E-03 0.  1.
         11   -1    0    0    0    0 -0.00000000000E+00 -0.00000000000E+00 -0.45593999997E+02  0.45594000000E+02  0.51100000000E-03 0. -1.
    9900012    2    1    2    0    0  0.31330425469E+02  0.59187100333E+01  0.29947882281E+00  0.59302009721E+02  0.50000119808E+02 0.  0.
         12    1    1    2    0    0 -0.31330425469E+02 -0.59187100333E+01 -0.29947882281E+00  0.31885990279E+02  0.00000000000E+00 0. -1.
         11    1    3    3    0    0  0.55886842850E+00  0.51749383384E+01 -0.45180884980E+01  0.68924193621E+01  0.51100000000E-03 0. -1.
        -11    1    3    3    0    0  0.29121494152E+02  0.16680921347E+02 -0.45220016575E+01  0.33863890176E+02  0.51100000000E-03 0.  1.
         12    1    3    3    0    0  0.16500628880E+01 -0.15937149652E+02  0.93395689783E+01  0.18545700182E+02  0.00000000000E+00 0. -1.
</event>
<event>
 7    1  0.3223600E-013  0.5930196E+02  0.7816164E-02  0.1266605E+00
        -11   -1    0    0    0    0  0.00000000000E+00  0.00000000000E+00  0.45593999997E+02  0.45594000000E+02  0.51100000000E-03 0. -1.
         11   -1    0    0    0    0 -0.00000000000E+00 -0.00000000000E+00 -0.45593999997E+02  0.45594000000E+02  0.51100000000E-03 0.  1.
    9900012    2    1    2    0    0 -0.74554197707E+01 -0.69637160779E+01 -0.30209981139E+02  0.59301959386E+02  0.50000028010E+02 0.  0.
         12    1    1    2    0    0  0.74554197707E+01  0.69637160779E+01  0.30209981139E+02  0.31886040614E+02  0.00000000000E+00 0. -1.
         11    1    3    3    0    0 -0.10537803343E+02  0.76732045823E+01 -0.40687091886E+01  0.13655686089E+02  0.51100000000E-03 0. -1.
        -11    1    3    3    0    0 -0.14515736400E+00  0.10239105474E+02 -0.12643632757E+01  0.10317895441E+02  0.51100000000E-03 0.  1.
         12    1    3    3    0    0  0.32275409358E+01 -0.24876026134E+02 -0.24876908675E+02  0.35328377856E+02  0.00000000000E+00 0. -1.
</event>
<event>
 7    1  0.3223600E-013  0.5930193E+02  0.7816164E-02  0.1266605E+00
        -11   -1    0    0    0    0  0.00000000000E+00  0.00000000000E+00  0.45593999997E+02  0.45594000000E+02  0.51100000000E-03 0.  1.
         11   -1    0    0    0    0 -0.00000000000E+00 -0.00000000000E+00 -0.45593999997E+02  0.45594000000E+02  0.51100000000E-03 0. -1.
    9900012    2    1    2    0    0  0.67399069738E+01 -0.22989652718E+02  0.21042120646E+02  0.59301932206E+02  0.49999978439E+02 0.  0.
         12    1    1    2    0    0 -0.67399069738E+01  0.22989652718E+02 -0.21042120646E+02  0.31886067794E+02  0.00000000000E+00 0. -1.
         11    1    3    3    0    0  0.18304051433E+02  0.76294133187E+01  0.64132285903E+00  0.19840804966E+02  0.51100000000E-03 0. -1.
        -11    1    3    3    0    0 -0.27276162784E+01 -0.15951976783E+02  0.66359569725E+01  0.17491180036E+02  0.51100000000E-03 0.  1.
        -12    1    3    3    0    0 -0.88365281806E+01 -0.14667089254E+02  0.13764840814E+02  0.21969947203E+02  0.00000000000E+00 0.  1.
</event>
<event>
 7    1  0.3223600E-013  0.5930194E+02  0.7816164E-02  0.1266605E+00
        -11   -1    0    0    0    0  0.00000000000E+00  0.00000000000E+00  0.45593999997E+02  0.45594000000E+02  0.51100000000E-03 0.  1.
         11   -1    0    0    0    0 -0.00000000000E+00 -0.00000000000E+00 -0.45593999997E+02  0.45594000000E+02  0.51100000000E-03 0. -1.
    9900012    2    1    2    0    0  0.21469887988E+02 -0.11746876561E+02  0.20439567587E+02  0.59301935296E+02  0.49999984075E+02 0.  0.
         12    1    1    2    0    0 -0.21469887988E+02  0.11746876561E+02 -0.20439567587E+02  0.31886064704E+02  0.00000000000E+00 0. -1.
         11    1    3    3    0    0  0.52329243922E+01 -0.12860533057E+02 -0.54791076205E+01  0.14926400396E+02  0.51100000000E-03 0. -1.
        -11    1    3    3    0    0  0.18561042737E+02 -0.11455419351E+02  0.22063257919E+02  0.31024607817E+02  0.51100000000E-03 0.  1.
        -12    1    3    3    0    0 -0.23240791404E+01  0.12569075847E+02  0.38554172890E+01  0.13350927083E+02  0.00000000000E+00 0.  1.
</event>
<event>
 7    1  0.3223600E-013  0.5930194E+02  0.7816164E-02  0.1266605E+00
        -11   -1    0    0    0    0  0.00000000000E+00  0.00000000000E+00  0.45593999997E+02  0.45594000000E+02  0.51100000000E-03 0. -1.
         11   -1    0    0    0    0 -0.00000000000E+00 -0.00000000000E+00 -0.45593999997E+02  0.45594000000E+02  0.51100000000E-03 0.  1.
    9900012    2    1    2    0    0  0.24854650836E+02 -0.70956248664E+01  0.18671350532E+02  0.59301938921E+02  0.49999990687E+02 0.  0.
         12    1    1    2    0    0 -0.24854650836E+02  0.70956248664E+01 -0.18671350532E+02  0.31886061079E+02  0.00000000000E+00 0. -1.
         11    1    3    3    0    0 -0.47431391685E+01 -0.73587050908E+01  0.15983504818E+02  0.18224169016E+02  0.51100000000E-03 0. -1.
        -11    1    3    3    0    0  0.95124356990E+01  0.13803018761E+02  0.13610497595E+01  0.16818508155E+02  0.51100000000E-03 0.  1.
         12    1    3    3    0    0  0.20085354306E+02 -0.13539938537E+02  0.13267959543E+01  0.24259261750E+02  0.00000000000E+00 0. -1.
</event>
<event>
 7    1  0.3223600E-013  0.5930197E+02  0.7816164E-02  0.1266605E+00
        -11   -1    0    0    0    0  0.00000000000E+00  0.00000000000E+00  0.45593999997E+02  0.45594000000E+02  0.51100000000E-03 0.  1.
         11   -1    0    0    0    0 -0.00000000000E+00 -0.00000000000E+00 -0.45593999997E+02  0.45594000000E+02  0.51100000000E-03 0. -1.
    9900012    2    1    2    0    0 -0.13065555658E+02 -0.26049518974E+01 -0.28969368268E+02  0.59301971447E+02  0.50000050007E+02 0.  0.
         12    1    1    2    0    0  0.13065555658E+02  0.26049518974E+01  0.28969368268E+02  0.31886028553E+02  0.00000000000E+00 0. -1.
         11    1    3    3    0    0 -0.42984125251E+01 -0.87398590456E+00 -0.66599181950E+01  0.79746292843E+01  0.51100000000E-03 0. -1.
        -11    1    3    3    0    0 -0.21247018824E+02  0.14479836748E+02 -0.13667642926E+02  0.29118824574E+02  0.51100000000E-03 0.  1.
        -12    1    3    3    0    0  0.12479875691E+02 -0.16210802741E+02 -0.86418071467E+01  0.22208517589E+02  0.00000000000E+00 0.  1.
</event>
<event>
 7    1  0.3223600E-013  0.5930194E+02  0.7816164E-02  0.1266605E+00
        -11   -1    0    0    0    0  0.00000000000E+00  0.00000000000E+00  0.45593999997E+02  0.45594000000E+02  0.51100000000E-03 0. -1.
         11   -1    0    0    0    0 -0.00000000000E+00 -0.00000000000E+00 -0.45593999997E+02  0.45594000000E+02  0.51100000000E-03 0.  1.
    9900012    2    1    2    0    0  0.31877973272E+02 -0.45906969850E+00 -0.55220734983E+00  0.59301939442E+02  0.49999991637E+02 0.  0.
         12    1    1    2    0    0 -0.31877973272E+02  0.45906969850E+00  0.55220734983E+00  0.31886060558E+02  0.00000000000E+00 0. -1.
         11    1    3    3    0    0  0.18919237988E+02 -0.56312362615E+01 -0.10093635792E+02  0.22170472968E+02  0.51100000000E-03 0. -1.
        -11    1    3    3    0    0  0.15544488079E+02 -0.10133854453E+02  0.10948037094E+02  0.21544967676E+02  0.51100000000E-03 0.  1.
         12    1    3    3    0    0 -0.25857527942E+01  0.15306021016E+02 -0.14066086511E+01  0.15586498797E+02  0.00000000000E+00 0. -1.
</event>
<event>
 7    1  0.3223600E-013  0.5930192E+02  0.7816164E-02  0.1266605E+00
        -11   -1    0    0    0    0  0.00000000000E+00  0.00000000000E+00  0.45593999997E+02  0.45594000000E+02  0.51100000000E-03 0.  1.
         11   -1    0    0    0    0 -0.00000000000E+00 -0.00000000000E+00 -0.45593999997E+02  0.45594000000E+02  0.51100000000E-03 0. -1.
    9900012    2    1    2    0    0 -0.97733549933E+01 -0.18695260399E+02  0.23910053024E+02  0.59301923653E+02  0.49999962840E+02 0.  0.
         12    1    1    2    0    0  0.97733549933E+01  0.18695260399E+02 -0.23910053024E+02  0.31886076347E+02  0.00000000000E+00 0. -1.
         11    1    3    3    0    0 -0.16811805652E+02 -0.10564744676E+02 -0.15030242785E+01  0.19912551860E+02  0.51100000000E-03 0. -1.
        -11    1    3    3    0    0 -0.93853236000E+01 -0.23406771555E+01  0.18057881499E+02  0.20485364364E+02  0.51100000000E-03 0.  1.
         12    1    3    3    0    0  0.16423774259E+02 -0.57898385676E+01  0.73551958037E+01  0.18904007428E+02  0.00000000000E+00 0. -1.
</event>
<event>
 7    1  0.3223600E-013  0.5930195E+02  0.7816164E-02  0.1266605E+00
        -11   -1    0    0    0    0  0.00000000000E+00  0.00000000000E+00  0.45593999997E+02  0.45594000000E+02  0.51100000000E-03 0. -1.
         11   -1    0    0    0    0 -0.00000000000E+00 -0.00000000000E+00 -0.45593999997E+02  0.45594000000E+02  0.51100000000E-03 0.  1.
    9900012    2    1    2    0    0 -0.13540627404E+02  0.19350908552E+02  0.21422283763E+02  0.59301945150E+02  0.50000002047E+02 0.  0.
         12    1    1    2    0    0  0.13540627404E+02 -0.19350908552E+02 -0.21422283763E+02  0.31886054850E+02  0.00000000000E+00 0. -1.
         11    1    3    3    0    0  0.55767072966E+01  0.11651211305E+02 -0.47097816903E+01  0.13748906610E+02  0.51100000000E-03 0. -1.
        -11    1    3    3    0    0  0.19315850105E+01  0.94128343504E+01 -0.25436961051E+01  0.99399628418E+01  0.51100000000E-03 0.  1.
         12    1    3    3    0    0 -0.21048919711E+02 -0.17131371033E+01  0.28675761558E+02  0.35613075698E+02  0.00000000000E+00 0. -1.
</event>
<event>
 7    1  0.3223600E-013  0.5930193E+02  0.7816164E-02  0.1266605E+00
        -11   -1    0    0    0    0  0.00000000000E+00  0.00000000000E+00  0.45593999997E+02  0.45594000000E+02  0.51100000000E-03 0. -1.
         11   -1    0    0    0    0 -0.00000000000E+00 -0.00000000000E+00 -0.45593999997E+02  0.45594000000E+02  0.51100000000E-03 0.  1.
    9900012    2    1    2    0    0 -0.22873312249E+02  0.11652285976E+02 -0.18914466608E+02  0.59301933626E+02  0.49999981031E+02 0.  0.
         12    1    1    2    0    0  0.22873312249E+02 -0.11652285976E+02  0.18914466608E+02  0.31886066374E+02  0.00000000000E+00 0. -1.
         11    1    3    3    0    0 -0.10354493190E+02  0.74306844203E+01  0.90878184000E+01  0.15653084159E+02  0.51100000000E-03 0. -1.
        -11    1    3    3    0    0 -0.25625415365E+01 -0.74884999325E+01  0.34558989876E+01  0.86364048329E+01  0.51100000000E-03 0.  1.
        -12    1    3    3    0    0 -0.99562775232E+01  0.11710101488E+02 -0.31458183995E+02  0.35012444634E+02  0.00000000000E+00 0.  1.
</event>
<event>
 7    1  0.3223600E-013  0.5930195E+02  0.7816164E-02  0.1266605E+00
        -11   -1    0    0    0    0  0.00000000000E+00  0.00000000000E+00  0.45593999997E+02  0.45594000000E+02  0.51100000000E-03 0. -1.
         11   -1    0    0    0    0 -0.00000000000E+00 -0.00000000000E+00 -0.45593999997E+02  0.45594000000E+02  0.51100000000E-03 0.  1.
    9900012    2    1    2    0    0  0.12523997627E+02  0.56788998678E+01 -0.28768377984E+02  0.59301953019E+02  0.50000016398E+02 0.  0.
         12    1    1    2    0    0 -0.12523997627E+02 -0.56788998678E+01  0.28768377984E+02  0.31886046981E+02  0.00000000000E+00 0. -1.
         11    1    3    3    0    0 -0.29629061525E+01  0.10554072013E+02 -0.19826976121E+02  0.22655600440E+02  0.51100000000E-03 0. -1.
        -11    1    3    3    0    0  0.49978105701E+01  0.67820849192E+00 -0.19877626545E+02  0.20507513613E+02  0.51100000000E-03 0.  1.
         12    1    3    3    0    0  0.10489093210E+02 -0.55533806367E+01  0.10936224683E+02  0.16138838966E+02  0.00000000000E+00 0. -1.
</event>
<event>
 7    1  0.3223600E-013  0.5930193E+02  0.7816164E-02  0.1266605E+00
        -11   -1    0    0    0    0  0.00000000000E+00  0.00000000000E+00  0.45593999997E+02  0.45594000000E+02  0.51100000000E-03 0.  1.
         11   -1    0    0    0    0 -0.00000000000E+00 -0.00000000000E+00 -0.45593999997E+02  0.45594000000E+02  0.51100000000E-03 0. -1.
    9900012    2    1    2    0    0 -0.29460934422E+02 -0.12109031132E+02  0.14649870515E+01  0.59301929702E+02  0.49999973873E+02 0.  0.
         12    1    1    2    0    0  0.29460934422E+02  0.12109031132E+02 -0.14649870515E+01  0.31886070298E+02  0.00000000000E+00 0. -1.
         11    1    3    3    0    0 -0.12113365166E+02  0.64586180258E+01  0.40046628814E+01  0.14299814247E+02  0.51100000000E-03 0. -1.
        -11    1    3    3    0    0  0.16390761108E+01  0.74423294569E+01  0.80672751337E+01  0.11097556785E+02  0.51100000000E-03 0.  1.
         12    1    3    3    0    0 -0.18986645367E+02 -0.26009978615E+02 -0.10606950964E+02  0.33904558670E+02  0.00000000000E+00 0. -1.
</event>
<event>
 7    1  0.3223600E-013  0.5930190E+02  0.7816164E-02  0.1266605E+00
        -11   -1    0    0    0    0  0.00000000000E+00  0.00000000000E+00  0.45593999997E+02  0.45594000000E+02  0.51100000000E-03 0. -1.
         11   -1    0    0    0    0 -0.00000000000E+00 -0.00000000000E+00 -0.45593999997E+02  0.45594000000E+02  0.51100000000E-03 0.  1.
    9900012    2    1    2    0    0  0.30768920534E+02 -0.72170249729E+01 -0.42322290978E+01  0.59301895135E+02  0.49999910832E+02 0.  0.
         12    1    1    2    0    0 -0.30768920534E+02  0.72170249729E+01  0.42322290978E+01  0.31886104865E+02  0.00000000000E+00 0. -1.
         11    1    3    3    0    0  0.15204899414E+02 -0.82949666204E+01  0.17046777208E+02  0.24302017424E+02  0.51100000000E-03 0. -1.
        -11    1    3    3    0    0  0.11319651107E+02  0.75303610090E+00  0.18394133624E+01  0.11492824124E+02  0.51100000000E-03 0.  1.
        -12    1    3    3    0    0  0.42443700126E+01  0.32490554657E+00 -0.23118419668E+02  0.23507053588E+02  0.00000000000E+00 0.  1.
</event>
<event>
 7    1  0.3223600E-013  0.5930196E+02  0.7816164E-02  0.1266605E+00
        -11   -1    0    0    0    0  0.00000000000E+00  0.00000000000E+00  0.45593999997E+02  0.45594000000E+02  0.51100000000E-03 0.  1.
         11   -1    0    0    0    0 -0.00000000000E+00 -0.00000000000E+00 -0.45593999997E+02  0.45594000000E+02  0.51100000000E-03 0. -1.
    9900012    2    1    2    0    0  0.48985224701E+01 -0.26838820133E+02  0.16504607540E+02  0.59301955113E+02  0.50000020216E+02 0.  0.
         12    1    1    2    0    0 -0.48985224701E+01  0.26838820133E+02 -0.16504607540E+02  0.31886044887E+02  0.00000000000E+00 0. -1.
         11    1    3    3    0    0 -0.42910558128E+01  0.64794282784E+00 -0.74078367794E+01  0.85853966657E+01  0.51100000000E-03 0. -1.
        -11    1    3    3    0    0 -0.11022106626E+02 -0.17830057000E+02  0.53729299937E+01  0.21639458036E+02  0.51100000000E-03 0.  1.
        -12    1    3    3    0    0  0.20211684909E+02 -0.96567059607E+01  0.18539514326E+02  0.29077100411E+02  0.00000000000E+00 0.  1.
</event>
<event>
 7    1  0.3223600E-013  0.5930195E+02  0.7816164E-02  0.1266605E+00
        -11   -1    0    0    0    0  0.00000000000E+00  0.00000000000E+00  0.45593999997E+02  0.45594000000E+02  0.51100000000E-03 0. -1.
         11   -1    0    0    0    0 -0.00000000000E+00 -0.00000000000E+00 -0.45593999997E+02  0.45594000000E+02  0.51100000000E-03 0.  1.
    9900012    2    1    2    0    0  0.18720144454E+02  0.36896587491E+01 -0.25547259851E+02  0.59301954840E+02  0.50000019719E+02 0.  0.
         12    1    1    2    0    0 -0.18720144454E+02 -0.36896587491E+01  0.25547259851E+02  0.31886045160E+02  0.00000000000E+00 0. -1.
         11    1    3    3    0    0 -0.32705094271E+01  0.59709923341E+01 -0.36742405424E+01  0.77362151722E+01  0.51100000000E-03 0. -1.
        -11    1    3    3    0    0  0.93447208793E+01  0.18754847529E+02 -0.43310769334E+01  0.21396876917E+02  0.51100000000E-03 0.  1.
         12    1    3    3    0    0  0.12645933002E+02 -0.21036181114E+02 -0.17541942375E+02  0.30168862750E+02  0.00000000000E+00 0. -1.
</event>
<event>
 7    1  0.3223600E-013  0.5930194E+02  0.7816164E-02  0.1266605E+00
        -11   -1    0    0    0    0  0.00000000000E+00  0.00000000000E+00  0.45593999997E+02  0.45594000000E+02  0.51100000000E-03 0.  1.
         11   -1    0    0    0    0 -0.00000000000E+00 -0.00000000000E+00 -0.45593999997E+02  0.45594000000E+02  0.51100000000E-03 0. -1.
    9900012    2    1    2    0    0  0.19635185968E+02 -0.25117490053E+02  0.54015213015E+00  0.59301943503E+02  0.49999999044E+02 0.  0.
         12    1    1    2    0    0 -0.19635185968E+02  0.25117490053E+02 -0.54015213015E+00  0.31886056497E+02  0.00000000000E+00 0. -1.
         11    1    3    3    0    0  0.42969240282E+01 -0.94622428947E+01  0.47713920409E+01  0.11435199122E+02  0.51100000000E-03 0. -1.
        -11    1    3    3    0    0  0.26120710688E+02 -0.94765990544E+01  0.94823085963E+01  0.29360034623E+02  0.51100000000E-03 0.  1.
         12    1    3    3    0    0 -0.10782448748E+02 -0.61786481043E+01 -0.13713548507E+02  0.18506709758E+02  0.00000000000E+00 0. -1.
</event>
<event>
 7    1  0.3223600E-013  0.5930194E+02  0.7816164E-02  0.1266605E+00
        -11   -1    0    0    0    0  0.00000000000E+00  0.00000000000E+00  0.45593999997E+02  0.45594000000E+02  0.51100000000E-03 0.  1.
         11   -1    0    0    0    0 -0.00000000000E+00 -0.00000000000E+00 -0.45593999997E+02  0.45594000000E+02  0.51100000000E-03 0. -1.
    9900012    2    1    2    0    0 -0.21534463451E+02 -0.22911923534E+02  0.52944586722E+01  0.59301942721E+02  0.49999997617E+02 0.  0.
         12    1    1    2    0    0  0.21534463451E+02  0.22911923534E+02 -0.52944586722E+01  0.31886057279E+02  0.00000000000E+00 0. -1.
         11    1    3    3    0    0 -0.15139867347E+02  0.81866312712E+01 -0.89799293968E+01  0.19413285324E+02  0.51100000000E-03 0. -1.
        -11    1    3    3    0    0 -0.10493887337E+02 -0.66313197648E+01  0.54568652825E+01  0.13559994552E+02  0.51100000000E-03 0.  1.
        -12    1    3    3    0    0  0.40992912331E+01 -0.24467235041E+02  0.88175227865E+01  0.26328662846E+02  0.00000000000E+00 0.  1.
</event>
<event>
 7    1  0.3223600E-013  0.5930192E+02  0.7816164E-02  0.1266605E+00
        -11   -1    0    0    0    0  0.00000000000E+00  0.00000000000E+00  0.45593999997E+02  0.45594000000E+02  0.51100000000E-03 0.  1.
         11   -1    0    0    0    0 -0.00000000000E+00 -0.00000000000E+00 -0.45593999997E+02  0.45594000000E+02  0.51100000000E-03 0. -1.
    9900012    2    1    2    0    0 -0.31032356502E+02  0.73023653499E+01 -0.62469990128E+00  0.59301922478E+02  0.49999960698E+02 0.  0.
         12    1    1    2    0    0  0.31032356502E+02 -0.73023653499E+01  0.62469990128E+00  0.31886077522E+02  0.00000000000E+00 0. -1.
         11    1    3    3    0    0 -0.20547502372E+02  0.91889001705E+01 -0.19302567776E+02  0.29651726140E+02  0.51100000000E-03 0. -1.
        -11    1    3    3    0    0  0.18091610351E+01  0.35743950135E+01 -0.23817944529E+01  0.46607197341E+01  0.51100000000E-03 0.  1.
        -12    1    3    3    0    0 -0.12294015166E+02 -0.54609298342E+01  0.21059662328E+02  0.24989476604E+02  0.00000000000E+00 0.  1.
</event>
<event>
 7    1  0.3223600E-013  0.5930187E+02  0.7816164E-02  0.1266605E+00
        -11   -1    0    0    0    0  0.00000000000E+00  0.00000000000E+00  0.45593999997E+02  0.45594000000E+02  0.51100000000E-03 0.  1.
         11   -1    0    0    0    0 -0.00000000000E+00 -0.00000000000E+00 -0.45593999997E+02  0.45594000000E+02  0.51100000000E-03 0. -1.
    9900012    2    1    2    0    0 -0.22658291019E+02  0.17822875260E+02  0.13626157982E+02  0.59301871107E+02  0.49999867010E+02 0.  0.
         12    1    1    2    0    0  0.22658291019E+02 -0.17822875260E+02 -0.13626157982E+02  0.31886128893E+02  0.00000000000E+00 0. -1.
         11    1    3    3    0    0 -0.55523082029E+01  0.19433144945E+02 -0.66461555927E+01  0.21275493725E+02  0.51100000000E-03 0.  1.
        -11    1    3    3    0    0 -0.56698145839E+01 -0.35007055929E+01 -0.62161425285E+01  0.91127474046E+01  0.51100000000E-03 0. -1.
         12    1    3    3    0    0 -0.11436168232E+02  0.18904359081E+01  0.26488456103E+02  0.28913629977E+02  0.00000000000E+00 0. -1.
</event>
<event>
 7    1  0.3223600E-013  0.5930193E+02  0.7816164E-02  0.1266605E+00
        -11   -1    0    0    0    0  0.00000000000E+00  0.00000000000E+00  0.45593999997E+02  0.45594000000E+02  0.51100000000E-03 0. -1.
         11   -1    0    0    0    0 -0.00000000000E+00 -0.00000000000E+00 -0.45593999997E+02  0.45594000000E+02  0.51100000000E-03 0.  1.
    9900012    2    1    2    0    0 -0.68680192823E+01 -0.27743993042E+02 -0.14135851957E+02  0.59301934873E+02  0.49999983303E+02 0.  0.
         12    1    1    2    0    0  0.68680192823E+01  0.27743993042E+02  0.14135851957E+02  0.31886065127E+02  0.00000000000E+00 0. -1.
         11    1    3    3    0    0 -0.11519418552E+01  0.31792407531E+01 -0.10408719241E+02  0.10944221229E+02  0.51100000000E-03 0. -1.
        -11    1    3    3    0    0  0.70781465635E+01 -0.74907976679E+01 -0.15954082653E+02  0.18993287289E+02  0.51100000000E-03 0.  1.
         12    1    3    3    0    0 -0.12794223991E+02 -0.23432436127E+02  0.12226949938E+02  0.29364426355E+02  0.00000000000E+00 0. -1.
</event>
<event>
 7    1  0.3223600E-013  0.5930195E+02  0.7816164E-02  0.1266605E+00
        -11   -1    0    0    0    0  0.00000000000E+00  0.00000000000E+00  0.45593999997E+02  0.45594000000E+02  0.51100000000E-03 0.  1.
         11   -1    0    0    0    0 -0.00000000000E+00 -0.00000000000E+00 -0.45593999997E+02  0.45594000000E+02  0.51100000000E-03 0. -1.
    9900012    2    1    2    0    0 -0.21203720334E+02  0.21096866504E+02  0.11047375429E+02  0.59301952328E+02  0.50000015138E+02 0.  0.
         12    1    1    2    0    0  0.21203720334E+02 -0.21096866504E+02 -0.11047375429E+02  0.31886047672E+02  0.00000000000E+00 0. -1.
         11    1    3    3    0    0 -0.16970057478E+02  0.12867600573E+01  0.27020482643E+01  0.17231937422E+02  0.51100000000E-03 0. -1.
        -11    1    3    3    0    0 -0.27224998073E+01 -0.10253825139E+02  0.51680258917E+01  0.11800907891E+02  0.51100000000E-03 0.  1.
         12    1    3    3    0    0 -0.15111630488E+01  0.30063931585E+02  0.31773012735E+01  0.30269107015E+02  0.00000000000E+00 0. -1.
</event>
<event>
 7    1  0.3223600E-013  0.5930195E+02  0.7816164E-02  0.1266605E+00
        -11   -1    0    0    0    0  0.00000000000E+00  0.00000000000E+00  0.45593999997E+02  0.45594000000E+02  0.51100000000E-03 0. -1.
         11   -1    0    0    0    0 -0.00000000000E+00 -0.00000000000E+00 -0.45593999997E+02  0.45594000000E+02  0.51100000000E-03 0.  1.
    9900012    2    1    2    0    0 -0.21997949661E+02  0.16265872971E+02 -0.16377778651E+02  0.59301952168E+02  0.50000014846E+02 0.  0.
         12    1    1    2    0    0  0.21997949661E+02 -0.16265872971E+02  0.16377778651E+02  0.31886047832E+02  0.00000000000E+00 0. -1.
         11    1    3    3    0    0 -0.97389774471E+01  0.12201922101E+02  0.13757797488E+02  0.20808930214E+02  0.51100000000E-03 0. -1.
        -11    1    3    3    0    0 -0.72696487091E+01  0.91192358867E+01 -0.55754873300E+01  0.12926496615E+02  0.51100000000E-03 0.  1.
         12    1    3    3    0    0 -0.49893235052E+01 -0.50552850163E+01 -0.24560088808E+02  0.25566525339E+02  0.00000000000E+00 0. -1.
</event>
<event>
 7    1  0.3223600E-013  0.5930195E+02  0.7816164E-02  0.1266605E+00
        -11   -1    0    0    0    0  0.00000000000E+00  0.00000000000E+00  0.45593999997E+02  0.45594000000E+02  0.51100000000E-03 0. -1.
         11   -1    0    0    0    0 -0.00000000000E+00 -0.00000000000E+00 -0.45593999997E+02  0.45594000000E+02  0.51100000000E-03 0.  1.
    9900012    2    1    2    0    0  0.26017699526E+02 -0.18252670502E+02 -0.25767862378E+01  0.59301945111E+02  0.50000001975E+02 0.  0.
         12    1    1    2    0    0 -0.26017699526E+02  0.18252670502E+02  0.25767862378E+01  0.31886054889E+02  0.00000000000E+00 0. -1.
         11    1    3    3    0    0  0.16026481877E+02 -0.19448072201E+02  0.52489630467E+01  0.25741547098E+02  0.51100000000E-03 0. -1.
        -11    1    3    3    0    0 -0.10610549381E+02 -0.40269303122E+00  0.17916277312E+01  0.10768279809E+02  0.51100000000E-03 0.  1.
        -12    1    3    3    0    0  0.20601767031E+02  0.15980947297E+01 -0.96173770157E+01  0.22792118204E+02  0.00000000000E+00 0.  1.
</event>
<event>
 7    1  0.3223600E-013  0.5930194E+02  0.7816164E-02  0.1266605E+00
        -11   -1    0    0    0    0  0.00000000000E+00  0.00000000000E+00  0.45593999997E+02  0.45594000000E+02  0.51100000000E-03 0.  1.
         11   -1    0    0    0    0 -0.00000000000E+00 -0.00000000000E+00 -0.45593999997E+02  0.45594000000E+02  0.51100000000E-03 0. -1.
    9900012    2    1    2    0    0 -0.23762411624E+02 -0.16990905869E+02  0.12781938497E+02  0.59301936584E+02  0.49999986424E+02 0.  0.
         12    1    1    2    0    0  0.23762411624E+02  0.16990905869E+02 -0.12781938497E+02  0.31886063416E+02  0.00000000000E+00 0. -1.
         11    1    3    3    0    0 -0.21690697600E+02  0.13192368861E+01 -0.68277205894E+00  0.21741502393E+02  0.51100000000E-03 0. -1.
        -11    1    3    3    0    0 -0.14043778998E+02 -0.15763107638E+02  0.27440251171E+01  0.21289268777E+02  0.51100000000E-03 0.  1.
        -12    1    3    3    0    0  0.11972064975E+02 -0.25470351172E+01  0.10720685439E+02  0.16271165414E+02  0.00000000000E+00 0.  1.
</event>
<event>
 7    1  0.3223600E-013  0.5930193E+02  0.7816164E-02  0.1266605E+00
        -11   -1    0    0    0    0  0.00000000000E+00  0.00000000000E+00  0.45593999997E+02  0.45594000000E+02  0.51100000000E-03 0.  1.
         11   -1    0    0    0    0 -0.00000000000E+00 -0.00000000000E+00 -0.45593999997E+02  0.45594000000E+02  0.51100000000E-03 0. -1.
    9900012    2    1    2    0    0 -0.83966609694E+01  0.21579350481E+02  0.21921426310E+02  0.59301933857E+02  0.49999981451E+02 0.  0.
         12    1    1    2    0    0  0.83966609694E+01 -0.21579350481E+02 -0.21921426310E+02  0.31886066143E+02  0.00000000000E+00 0. -1.
         11    1    3    3    0    0 -0.10656135312E+02  0.22748131185E+02 -0.47198396484E+01  0.25559882213E+02  0.51100000000E-03 0. -1.
        -11    1    3    3    0    0  0.26038916101E+01  0.42149462990E+01 -0.14303710220E+01  0.51567417370E+01  0.51100000000E-03 0.  1.
        -12    1    3    3    0    0 -0.34441726765E+00 -0.53837270031E+01  0.28071636980E+02  0.28585309907E+02  0.00000000000E+00 0.  1.
</event>
<event>
 7    1  0.3223600E-013  0.5930192E+02  0.7816164E-02  0.1266605E+00
        -11   -1    0    0    0    0  0.00000000000E+00  0.00000000000E+00  0.45593999997E+02  0.45594000000E+02  0.51100000000E-03 0. -1.
         11   -1    0    0    0    0 -0.00000000000E+00 -0.00000000000E+00 -0.45593999997E+02  0.45594000000E+02  0.51100000000E-03 0.  1.
    9900012    2    1    2    0    0  0.99440798529E+01  0.20886230183E+02 -0.21945448505E+02  0.59301920820E+02  0.49999957675E+02 0.  0.
         12    1    1    2    0    0 -0.99440798529E+01 -0.20886230183E+02  0.21945448505E+02  0.31886079180E+02  0.00000000000E+00 0. -1.
         11    1    3    3    0    0  0.22132266689E+02  0.30599387774E+00 -0.20902637280E+02  0.30444229446E+02  0.51100000000E-03 0. -1.
        -11    1    3    3    0    0  0.72774394803E+00 -0.22237269103E+01 -0.12425786845E+01  0.26492592689E+01  0.51100000000E-03 0.  1.
        -12    1    3    3    0    0 -0.12915930785E+02  0.22803963216E+02  0.19976745915E+00  0.26208432105E+02  0.00000000000E+00 0.  1.
</event>
<event>
 7    1  0.3223600E-013  0.5930195E+02  0.7816164E-02  0.1266605E+00
        -11   -1    0    0    0    0  0.00000000000E+00  0.00000000000E+00  0.45593999997E+02  0.45594000000E+02  0.51100000000E-03 0.  1.
         11   -1    0    0    0    0 -0.00000000000E+00 -0.00000000000E+00 -0.45593999997E+02  0.45594000000E+02  0.51100000000E-03 0. -1.
    9900012    2    1    2    0    0  0.24792120858E+02 -0.18480449167E+02 -0.77809846126E+01  0.59301953215E+02  0.50000016755E+02 0.  0.
         12    1    1    2    0    0 -0.24792120858E+02  0.18480449167E+02  0.77809846126E+01  0.31886046785E+02  0.00000000000E+00 0. -1.
         11    1    3    3    0    0  0.56099328837E+01 -0.14812010681E+02 -0.16583570125E+02  0.22932112980E+02  0.51100000000E-03 0. -1.
        -11    1    3    3    0    0  0.21551417473E+02 -0.79648035906E+01 -0.33921097505E+01  0.23225160928E+02  0.51100000000E-03 0.  1.
         12    1    3    3    0    0 -0.23692294984E+01  0.42963651047E+01  0.12194695263E+02  0.13144679307E+02  0.00000000000E+00 0. -1.
</event>
<event>
 7    1  0.3223600E-013  0.5930194E+02  0.7816164E-02  0.1266605E+00
        -11   -1    0    0    0    0  0.00000000000E+00  0.00000000000E+00  0.45593999997E+02  0.45594000000E+02  0.51100000000E-03 0.  1.
         11   -1    0    0    0    0 -0.00000000000E+00 -0.00000000000E+00 -0.45593999997E+02  0.45594000000E+02  0.51100000000E-03 0. -1.
    9900012    2    1    2    0    0  0.25022826289E+02 -0.15354947215E+02 -0.12442037099E+02  0.59301944637E+02  0.50000001111E+02 0.  0.
         12    1    1    2    0    0 -0.25022826289E+02  0.15354947215E+02  0.12442037099E+02  0.31886055363E+02  0.00000000000E+00 0. -1.
         11    1    3    3    0    0 -0.83519220846E+01  0.26623714713E+01  0.44139731923E+01  0.98145801725E+01  0.51100000000E-03 0. -1.
        -11    1    3    3    0    0  0.26051616555E+02  0.10248087193E+01 -0.82632675769E+01  0.27349927776E+02  0.51100000000E-03 0.  1.
         12    1    3    3    0    0  0.73231318183E+01 -0.19042127406E+02 -0.85927427142E+01  0.22137436688E+02  0.00000000000E+00 0. -1.
</event>
<event>
 7    1  0.3223600E-013  0.5930192E+02  0.7816164E-02  0.1266605E+00
        -11   -1    0    0    0    0  0.00000000000E+00  0.00000000000E+00  0.45593999997E+02  0.45594000000E+02  0.51100000000E-03 0. -1.
         11   -1    0    0    0    0 -0.00000000000E+00 -0.00000000000E+00 -0.45593999997E+02  0.45594000000E+02  0.51100000000E-03 0.  1.
    9900012    2    1    2    0    0 -0.13864098086E+02  0.26682314090E+02  0.10609561502E+02  0.59301923160E+02  0.49999961943E+02 0.  0.
         12    1    1    2    0    0  0.13864098086E+02 -0.26682314090E+02 -0.10609561502E+02  0.31886076840E+02  0.00000000000E+00 0. -1.
         11    1    3    3    0    0  0.92161611234E+00  0.87110676422E+01  0.24279218619E+01  0.90899329235E+01  0.51100000000E-03 0. -1.
        -11    1    3    3    0    0 -0.23466501099E+02  0.12381459609E+02 -0.10766210698E+02  0.28633695342E+02  0.51100000000E-03 0.  1.
         12    1    3    3    0    0  0.86807869008E+01  0.55897868395E+01  0.18947850338E+02  0.21578294895E+02  0.00000000000E+00 0. -1.
</event>
<event>
 7    1  0.3223600E-013  0.5930193E+02  0.7816164E-02  0.1266605E+00
        -11   -1    0    0    0    0  0.00000000000E+00  0.00000000000E+00  0.45593999997E+02  0.45594000000E+02  0.51100000000E-03 0.  1.
         11   -1    0    0    0    0 -0.00000000000E+00 -0.00000000000E+00 -0.45593999997E+02  0.45594000000E+02  0.51100000000E-03 0. -1.
    9900012    2    1    2    0    0 -0.27354859799E+02  0.17702805384E+01  0.16287999949E+02  0.59301934232E+02  0.49999982136E+02 0.  0.
         12    1    1    2    0    0  0.27354859799E+02 -0.17702805384E+01 -0.16287999949E+02  0.31886065768E+02  0.00000000000E+00 0. -1.
         11    1    3    3    0    0  0.97595478785E+01 -0.27408831909E+01  0.85136863671E+01  0.13237978368E+02  0.51100000000E-03 0. -1.
        -11    1    3    3    0    0 -0.25196722744E+02  0.34494445857E+01  0.17310217146E+02  0.30763893169E+02  0.51100000000E-03 0.  1.
        -12    1    3    3    0    0 -0.11917684933E+02  0.10617191436E+01 -0.95359035640E+01  0.15300062695E+02  0.00000000000E+00 0.  1.
</event>
<event>
 7    1  0.3223600E-013  0.5930200E+02  0.7816164E-02  0.1266605E+00
        -11   -1    0    0    0    0  0.00000000000E+00  0.00000000000E+00  0.45593999997E+02  0.45594000000E+02  0.51100000000E-03 0.  1.
         11   -1    0    0    0    0 -0.00000000000E+00 -0.00000000000E+00 -0.45593999997E+02  0.45594000000E+02  0.51100000000E-03 0. -1.
    9900012    2    1    2    0    0 -0.11554130148E+02 -0.22117541865E+02  0.19850267067E+02  0.59302004888E+02  0.50000110995E+02 0.  0.
         12    1    1    2    0    0  0.11554130148E+02  0.22117541865E+02 -0.19850267067E+02  0.31885995112E+02  0.00000000000E+00 0. -1.
         11    1    3    3    0    0  0.10148463587E+02  0.14808747398E+01  0.68099332323E+01  0.12310950169E+02  0.51100000000E-03 0. -1.
        -11    1    3    3    0    0 -0.37549092907E+01 -0.25048493077E+02  0.14035813533E+02  0.28957389575E+02  0.51100000000E-03 0.  1.
        -12    1    3    3    0    0 -0.17947684445E+02  0.14500764718E+01 -0.99547969776E+00  0.18033665144E+02  0.00000000000E+00 0.  1.
</event>
<event>
 7    1  0.3223600E-013  0.5930192E+02  0.7816164E-02  0.1266605E+00
        -11   -1    0    0    0    0  0.00000000000E+00  0.00000000000E+00  0.45593999997E+02  0.45594000000E+02  0.51100000000E-03 0.  1.
         11   -1    0    0    0    0 -0.00000000000E+00 -0.00000000000E+00 -0.45593999997E+02  0.45594000000E+02  0.51100000000E-03 0. -1.
    9900012    2    1    2    0    0 -0.18969341498E+02 -0.24765987825E+02  0.65978756504E+01  0.59301921017E+02  0.49999958034E+02 0.  0.
         12    1    1    2    0    0  0.18969341498E+02  0.24765987825E+02 -0.65978756504E+01  0.31886078983E+02  0.00000000000E+00 0. -1.
         11    1    3    3    0    0 -0.51125035915E+01 -0.10154412555E+02 -0.15395977773E+01  0.11472582485E+02  0.51100000000E-03 0. -1.
        -11    1    3    3    0    0  0.10758470950E+02 -0.17137162265E+02  0.10810064900E+02  0.22940892116E+02  0.51100000000E-03 0.  1.
         12    1    3    3    0    0 -0.24615308857E+02  0.25255869954E+01 -0.26725914721E+01  0.24888446415E+02  0.00000000000E+00 0. -1.
</event>
<event>
 7    1  0.3223600E-013  0.5930193E+02  0.7816164E-02  0.1266605E+00
        -11   -1    0    0    0    0  0.00000000000E+00  0.00000000000E+00  0.45593999997E+02  0.45594000000E+02  0.51100000000E-03 0.  1.
         11   -1    0    0    0    0 -0.00000000000E+00 -0.00000000000E+00 -0.45593999997E+02  0.45594000000E+02  0.51100000000E-03 0. -1.
    9900012    2    1    2    0    0 -0.93549851315E+00 -0.18054694021E+02  0.26265455701E+02  0.59301932559E+02  0.49999979084E+02 0.  0.
         12    1    1    2    0    0  0.93549851315E+00  0.18054694021E+02 -0.26265455701E+02  0.31886067441E+02  0.00000000000E+00 0. -1.
         11    1    3    3    0    0  0.62315435703E+01 -0.52487221038E+01 -0.89122713208E+01  0.12075172850E+02  0.51100000000E-03 0. -1.
        -11    1    3    3    0    0 -0.79857695113E+01 -0.18244138491E+02  0.11666483394E+02  0.23080899875E+02  0.51100000000E-03 0.  1.
         12    1    3    3    0    0  0.81872742779E+00  0.54381665736E+01  0.23511243627E+02  0.24145859835E+02  0.00000000000E+00 0. -1.
</event>
<event>
 7    1  0.3223600E-013  0.5930217E+02  0.7816164E-02  0.1266604E+00
        -11   -1    0    0    0    0  0.00000000000E+00  0.00000000000E+00  0.45593999997E+02  0.45594000000E+02  0.51100000000E-03 0.  1.
         11   -1    0    0    0    0 -0.00000000000E+00 -0.00000000000E+00 -0.45593999997E+02  0.45594000000E+02  0.51100000000E-03 0. -1.
    9900012    2    1    2    0    0  0.16612314743E+01  0.26730438397E+02  0.17304048993E+02  0.59302170256E+02  0.50000412584E+02 0.  0.
         12    1    1    2    0    0 -0.16612314743E+01 -0.26730438397E+02 -0.17304048993E+02  0.31885829744E+02  0.00000000000E+00 0. -1.
         11    1    3    3    0    0 -0.11595287849E+02  0.25956422784E+01  0.79875032579E+01  0.14317411347E+02  0.51100000000E-03 0. -1.
        -11    1    3    3    0    0 -0.41747466381E+01  0.25215422058E+02  0.84203863941E+00  0.25572544816E+02  0.51100000000E-03 0.  1.
         12    1    3    3    0    0  0.17431265961E+02 -0.10806259393E+01  0.84745070960E+01  0.19412214092E+02  0.00000000000E+00 0. -1.
</event>
<event>
 7    1  0.3223600E-013  0.5930194E+02  0.7816164E-02  0.1266605E+00
        -11   -1    0    0    0    0  0.00000000000E+00  0.00000000000E+00  0.45593999997E+02  0.45594000000E+02  0.51100000000E-03 0. -1.
         11   -1    0    0    0    0 -0.00000000000E+00 -0.00000000000E+00 -0.45593999997E+02  0.45594000000E+02  0.51100000000E-03 0.  1.
    9900012    2    1    2    0    0 -0.38830316685E+01  0.18586881554E+02 -0.25615832866E+02  0.59301937304E+02  0.49999987737E+02 0.  0.
         12    1    1    2    0    0  0.38830316685E+01 -0.18586881554E+02  0.25615832866E+02  0.31886062696E+02  0.00000000000E+00 0. -1.
         11    1    3    3    0    0 -0.48041563688E+00  0.13664873716E+02 -0.21904513163E+01  0.13847658651E+02  0.51100000000E-03 0. -1.
        -11    1    3    3    0    0 -0.21609358241E+01  0.19766904113E+02 -0.23200420844E+02  0.30555845095E+02  0.51100000000E-03 0.  1.
        -12    1    3    3    0    0 -0.12416802075E+01 -0.14844896276E+02 -0.22496070597E+00  0.14898433558E+02  0.00000000000E+00 0.  1.
</event>
<event>
 7    1  0.3223600E-013  0.5930195E+02  0.7816164E-02  0.1266605E+00
        -11   -1    0    0    0    0  0.00000000000E+00  0.00000000000E+00  0.45593999997E+02  0.45594000000E+02  0.51100000000E-03 0.  1.
         11   -1    0    0    0    0 -0.00000000000E+00 -0.00000000000E+00 -0.45593999997E+02  0.45594000000E+02  0.51100000000E-03 0. -1.
    9900012    2    1    2    0    0  0.16363874006E+02 -0.25012501208E+02  0.11104891588E+02  0.59301949659E+02  0.50000010271E+02 0.  0.
         12    1    1    2    0    0 -0.16363874006E+02  0.25012501208E+02 -0.11104891588E+02  0.31886050341E+02  0.00000000000E+00 0. -1.
         11    1    3    3    0    0  0.18841143329E+01 -0.24391963423E+01 -0.80076525867E+00  0.31844608455E+01  0.51100000000E-03 0. -1.
        -11    1    3    3    0    0 -0.12079094914E+02  0.66475045140E+00  0.16574804508E+02  0.20520004187E+02  0.51100000000E-03 0.  1.
         12    1    3    3    0    0  0.26558854587E+02 -0.23238055317E+02 -0.46691476615E+01  0.35597484627E+02  0.00000000000E+00 0. -1.
</event>
<event>
 7    1  0.3223600E-013  0.5930196E+02  0.7816164E-02  0.1266605E+00
        -11   -1    0    0    0    0  0.00000000000E+00  0.00000000000E+00  0.45593999997E+02  0.45594000000E+02  0.51100000000E-03 0. -1.
         11   -1    0    0    0    0 -0.00000000000E+00 -0.00000000000E+00 -0.45593999997E+02  0.45594000000E+02  0.51100000000E-03 0.  1.
    9900012    2    1    2    0    0  0.29405748043E+02 -0.11358260353E+02 -0.47970382390E+01  0.59301958037E+02  0.50000025549E+02 0.  0.
         12    1    1    2    0    0 -0.29405748043E+02  0.11358260353E+02  0.47970382390E+01  0.31886041963E+02  0.00000000000E+00 0. -1.
         11    1    3    3    0    0  0.13564278118E+02 -0.46544906747E+01  0.18280886216E+02  0.23234558859E+02  0.51100000000E-03 0. -1.
        -11    1    3    3    0    0  0.10861720996E+02  0.71445152559E+01 -0.10921150947E+02  0.16979181945E+02  0.51100000000E-03 0.  1.
        -12    1    3    3    0    0  0.49797489293E+01 -0.13848284934E+02 -0.12156773507E+02  0.19088217233E+02  0.00000000000E+00 0.  1.
</event>
<event>
 7    1  0.3223600E-013  0.5930191E+02  0.7816164E-02  0.1266605E+00
        -11   -1    0    0    0    0  0.00000000000E+00  0.00000000000E+00  0.45593999997E+02  0.45594000000E+02  0.51100000000E-03 0.  1.
         11   -1    0    0    0    0 -0.00000000000E+00 -0.00000000000E+00 -0.45593999997E+02  0.45594000000E+02  0.51100000000E-03 0. -1.
    9900012    2    1    2    0    0  0.19696942964E+02  0.25069948053E+02 -0.50075486687E+00  0.59301911921E+02  0.49999941446E+02 0.  0.
         12    1    1    2    0    0 -0.19696942964E+02 -0.25069948053E+02  0.50075486687E+00  0.31886088079E+02  0.00000000000E+00 0. -1.
         11    1    3    3    0    0  0.51731978480E+01 -0.64997402131E+01  0.11675555324E+02  0.14329242520E+02  0.51100000000E-03 0. -1.
        -11    1    3    3    0    0  0.31593231580E+01  0.11805604992E+02  0.79352681975E+01  0.14571277009E+02  0.51100000000E-03 0.  1.
         12    1    3    3    0    0  0.11364421958E+02  0.19764083274E+02 -0.20111578388E+02  0.30401392392E+02  0.00000000000E+00 0. -1.
</event>
<event>
 7    1  0.3223600E-013  0.5930194E+02  0.7816164E-02  0.1266605E+00
        -11   -1    0    0    0    0  0.00000000000E+00  0.00000000000E+00  0.45593999997E+02  0.45594000000E+02  0.51100000000E-03 0.  1.
         11   -1    0    0    0    0 -0.00000000000E+00 -0.00000000000E+00 -0.45593999997E+02  0.45594000000E+02  0.51100000000E-03 0. -1.
    9900012    2    1    2    0    0  0.20579276032E+02  0.11901794419E+02  0.21249974512E+02  0.59301941461E+02  0.49999995319E+02 0.  0.
         12    1    1    2    0    0 -0.20579276032E+02 -0.11901794419E+02 -0.21249974512E+02  0.31886058539E+02  0.00000000000E+00 0. -1.
         11    1    3    3    0    0  0.95268276407E+01 -0.51042626995E+01 -0.13162715296E+01  0.10887906759E+02  0.51100000000E-03 0. -1.
        -11    1    3    3    0    0  0.88891559359E+01  0.18942322976E+02 -0.43248795651E+01  0.21366639335E+02  0.51100000000E-03 0.  1.
        -12    1    3    3    0    0  0.21632924556E+01 -0.19362658575E+01  0.26891125607E+02  0.27047395367E+02  0.00000000000E+00 0.  1.
</event>
<event>
 7    1  0.3223600E-013  0.5930196E+02  0.7816164E-02  0.1266605E+00
        -11   -1    0    0    0    0  0.00000000000E+00  0.00000000000E+00  0.45593999997E+02  0.45594000000E+02  0.51100000000E-03 0. -1.
         11   -1    0    0    0    0 -0.00000000000E+00 -0.00000000000E+00 -0.45593999997E+02  0.45594000000E+02  0.51100000000E-03 0.  1.
    9900012    2    1    2    0    0  0.24662529531E+02 -0.10297254568E+02 -0.17390961438E+02  0.59301963021E+02  0.50000034638E+02 0.  0.
         12    1    1    2    0    0 -0.24662529531E+02  0.10297254568E+02  0.17390961438E+02  0.31886036979E+02  0.00000000000E+00 0. -1.
         11    1    3    3    0    0  0.22128919501E+02 -0.24718295343E+02 -0.37220189413E+01  0.33384676548E+02  0.51100000000E-03 0. -1.
        -11    1    3    3    0    0  0.34906038335E+01  0.89661292016E+01  0.15284025727E+01  0.97422688665E+01  0.51100000000E-03 0.  1.
        -12    1    3    3    0    0 -0.95699380338E+00  0.54549115732E+01 -0.15197345069E+02  0.16175017606E+02  0.00000000000E+00 0.  1.
</event>
<event>
 7    1  0.3223600E-013  0.5930197E+02  0.7816164E-02  0.1266605E+00
        -11   -1    0    0    0    0  0.00000000000E+00  0.00000000000E+00  0.45593999997E+02  0.45594000000E+02  0.51100000000E-03 0.  1.
         11   -1    0    0    0    0 -0.00000000000E+00 -0.00000000000E+00 -0.45593999997E+02  0.45594000000E+02  0.51100000000E-03 0. -1.
    9900012    2    1    2    0    0  0.23430192932E+02  0.21604534928E+02 -0.99452778225E+00  0.59301969269E+02  0.50000046034E+02 0.  0.
         12    1    1    2    0    0 -0.23430192932E+02 -0.21604534928E+02  0.99452778225E+00  0.31886030731E+02  0.00000000000E+00 0. -1.
         11    1    3    3    0    0  0.63632447193E+01  0.92297692493E+01  0.13478984364E+02  0.17531758141E+02  0.51100000000E-03 0.  1.
        -11    1    3    3    0    0  0.77180111586E+01 -0.10762454426E+02 -0.68946663611E+00  0.13261730130E+02  0.51100000000E-03 0. -1.
        -12    1    3    3    0    0  0.93489370538E+01  0.23137220105E+02 -0.13784045510E+02  0.28508480999E+02  0.00000000000E+00 0.  1.
</event>
<event>
 7    1  0.3223600E-013  0.5930196E+02  0.7816164E-02  0.1266605E+00
        -11   -1    0    0    0    0  0.00000000000E+00  0.00000000000E+00  0.45593999997E+02  0.45594000000E+02  0.51100000000E-03 0. -1.
         11   -1    0    0    0    0 -0.00000000000E+00 -0.00000000000E+00 -0.45593999997E+02  0.45594000000E+02  0.51100000000E-03 0.  1.
    9900012    2    1    2    0    0 -0.19301979743E+02  0.22345025640E+02  0.12035475299E+02  0.59301964522E+02  0.50000037376E+02 0.  0.
         12    1    1    2    0    0  0.19301979743E+02 -0.22345025640E+02 -0.12035475299E+02  0.31886035478E+02  0.00000000000E+00 0. -1.
         11    1    3    3    0    0  0.83497489544E+00  0.44351531604E+01 -0.13674008419E+02  0.14399523364E+02  0.51100000000E-03 0. -1.
        -11    1    3    3    0    0 -0.11989476942E+02  0.10325367189E+02 -0.11130329585E+01  0.15861891676E+02  0.51100000000E-03 0.  1.
         12    1    3    3    0    0 -0.81474776966E+01  0.75845052910E+01  0.26822516676E+02  0.29040549481E+02  0.00000000000E+00 0. -1.
</event>
<event>
 7    1  0.3223600E-013  0.5930193E+02  0.7816164E-02  0.1266605E+00
        -11   -1    0    0    0    0  0.00000000000E+00  0.00000000000E+00  0.45593999997E+02  0.45594000000E+02  0.51100000000E-03 0. -1.
         11   -1    0    0    0    0 -0.00000000000E+00 -0.00000000000E+00 -0.45593999997E+02  0.45594000000E+02  0.51100000000E-03 0.  1.
    9900012    2    1    2    0    0  0.28432273156E+02 -0.14262879531E+02 -0.22130769209E+01  0.59301927825E+02  0.49999970450E+02 0.  0.
         12    1    1    2    0    0 -0.28432273156E+02  0.14262879531E+02  0.22130769209E+01  0.31886072175E+02  0.00000000000E+00 0. -1.
         11    1    3    3    0    0 -0.57804569398E+00  0.70656946410E+01 -0.47564446926E+01  0.85370922426E+01  0.51100000000E-03 0. -1.
        -11    1    3    3    0    0  0.12940442058E+02  0.91595824167E+01 -0.20880010535E+01  0.15991020585E+02  0.51100000000E-03 0.  1.
         12    1    3    3    0    0  0.16069876792E+02 -0.30488156588E+02  0.46313688252E+01  0.34773814997E+02  0.00000000000E+00 0. -1.
</event>
<event>
 7    1  0.3223600E-013  0.5930198E+02  0.7816164E-02  0.1266605E+00
        -11   -1    0    0    0    0  0.00000000000E+00  0.00000000000E+00  0.45593999997E+02  0.45594000000E+02  0.51100000000E-03 0.  1.
         11   -1    0    0    0    0 -0.00000000000E+00 -0.00000000000E+00 -0.45593999997E+02  0.45594000000E+02  0.51100000000E-03 0. -1.
    9900012    2    1    2    0    0  0.31191627306E+02 -0.34272551471E+01  0.56616978121E+01  0.59301976197E+02  0.50000058669E+02 0.  0.
         12    1    1    2    0    0 -0.31191627306E+02  0.34272551471E+01 -0.56616978121E+01  0.31886023803E+02  0.00000000000E+00 0. -1.
         11    1    3    3    0    0  0.15111050387E+02  0.66862360744E+01  0.66865819152E+00  0.16537735658E+02  0.51100000000E-03 0. -1.
        -11    1    3    3    0    0  0.19772919120E+02  0.30149011801E+01  0.15698649596E+02  0.25426473586E+02  0.51100000000E-03 0.  1.
         12    1    3    3    0    0 -0.36923422009E+01 -0.13128392402E+02 -0.10705609975E+02  0.17337766953E+02  0.00000000000E+00 0. -1.
</event>
<event>
 7    1  0.3223600E-013  0.5930197E+02  0.7816164E-02  0.1266605E+00
        -11   -1    0    0    0    0  0.00000000000E+00  0.00000000000E+00  0.45593999997E+02  0.45594000000E+02  0.51100000000E-03 0.  1.
         11   -1    0    0    0    0 -0.00000000000E+00 -0.00000000000E+00 -0.45593999997E+02  0.45594000000E+02  0.51100000000E-03 0. -1.
    9900012    2    1    2    0    0  0.25792388802E+02 -0.13498828970E+02  0.13009738895E+02  0.59301968422E+02  0.50000044489E+02 0.  0.
         12    1    1    2    0    0 -0.25792388802E+02  0.13498828970E+02 -0.13009738895E+02  0.31886031578E+02  0.00000000000E+00 0. -1.
         11    1    3    3    0    0  0.30392130855E+02 -0.11744670319E+02  0.82584764692E+01  0.33612815006E+02  0.51100000000E-03 0. -1.
        -11    1    3    3    0    0  0.68501838263E+01  0.74518332484E+01 -0.37416938267E+00  0.10128911107E+02  0.51100000000E-03 0.  1.
         12    1    3    3    0    0 -0.11449925879E+02 -0.92059919002E+01  0.51254318082E+01  0.15560242309E+02  0.00000000000E+00 0. -1.
</event>
<event>
 7    1  0.3223600E-013  0.5930204E+02  0.7816164E-02  0.1266604E+00
        -11   -1    0    0    0    0  0.00000000000E+00  0.00000000000E+00  0.45593999997E+02  0.45594000000E+02  0.51100000000E-03 0. -1.
         11   -1    0    0    0    0 -0.00000000000E+00 -0.00000000000E+00 -0.45593999997E+02  0.45594000000E+02  0.51100000000E-03 0.  1.
    9900012    2    1    2    0    0 -0.14865852641E+02 -0.28018719597E+02  0.32668028752E+01  0.59302043474E+02  0.50000181365E+02 0.  0.
         12    1    1    2    0    0  0.14865852641E+02  0.28018719597E+02 -0.32668028752E+01  0.31885956526E+02  0.00000000000E+00 0. -1.
         11    1    3    3    0    0  0.70776012476E+00  0.26288616612E+01  0.11480278092E+01  0.29546245345E+01  0.51100000000E-03 0. -1.
        -11    1    3    3    0    0 -0.18307322923E+02 -0.14239125799E+02  0.20926900380E+02  0.31238532871E+02  0.51100000000E-03 0.  1.
        -12    1    3    3    0    0  0.27337101581E+01 -0.16408455458E+02 -0.18808125314E+02  0.25108886068E+02  0.00000000000E+00 0.  1.
</event>
<event>
 7    1  0.3223600E-013  0.5930195E+02  0.7816164E-02  0.1266605E+00
        -11   -1    0    0    0    0  0.00000000000E+00  0.00000000000E+00  0.45593999997E+02  0.45594000000E+02  0.51100000000E-03 0. -1.
         11   -1    0    0    0    0 -0.00000000000E+00 -0.00000000000E+00 -0.45593999997E+02  0.45594000000E+02  0.51100000000E-03 0.  1.
    9900012    2    1    2    0    0 -0.20073308395E+01 -0.12302845127E+02 -0.29348436971E+02  0.59301950888E+02  0.50000012512E+02 0.  0.
         12    1    1    2    0    0  0.20073308395E+01  0.12302845127E+02  0.29348436971E+02  0.31886049112E+02  0.00000000000E+00 0. -1.
         11    1    3    3    0    0 -0.77575306147E+01  0.11827766543E+02 -0.52104676601E+01  0.15073961528E+02  0.51100000000E-03 0. -1.
        -11    1    3    3    0    0 -0.60035216964E+01 -0.17517401863E+02 -0.24363899360E+01  0.18677195640E+02  0.51100000000E-03 0.  1.
        -12    1    3    3    0    0  0.11753721472E+02 -0.66132098070E+01 -0.21701579375E+02  0.25550793721E+02  0.00000000000E+00 0.  1.
</event>
<event>
 7    1  0.3223600E-013  0.5930195E+02  0.7816164E-02  0.1266605E+00
        -11   -1    0    0    0    0  0.00000000000E+00  0.00000000000E+00  0.45593999997E+02  0.45594000000E+02  0.51100000000E-03 0. -1.
         11   -1    0    0    0    0 -0.00000000000E+00 -0.00000000000E+00 -0.45593999997E+02  0.45594000000E+02  0.51100000000E-03 0.  1.
    9900012    2    1    2    0    0 -0.31144547180E+02 -0.15168898714E+01 -0.66660858731E+01  0.59301945450E+02  0.50000002594E+02 0.  0.
         12    1    1    2    0    0  0.31144547180E+02  0.15168898714E+01  0.66660858731E+01  0.31886054550E+02  0.00000000000E+00 0. -1.
         11    1    3    3    0    0 -0.64799273763E+01  0.49692267272E+01  0.10356130030E+02  0.13188332060E+02  0.51100000000E-03 0. -1.
        -11    1    3    3    0    0 -0.22434074781E+02 -0.11150503032E+02  0.31862943554E+01  0.25254185814E+02  0.51100000000E-03 0.  1.
        -12    1    3    3    0    0 -0.22305450222E+01  0.46643864333E+01 -0.20208510259E+02  0.20859427575E+02  0.00000000000E+00 0.  1.
</event>
<event>
 7    1  0.3223600E-013  0.5930189E+02  0.7816164E-02  0.1266605E+00
        -11   -1    0    0    0    0  0.00000000000E+00  0.00000000000E+00  0.45593999997E+02  0.45594000000E+02  0.51100000000E-03 0.  1.
         11   -1    0    0    0    0 -0.00000000000E+00 -0.00000000000E+00 -0.45593999997E+02  0.45594000000E+02  0.51100000000E-03 0. -1.
    9900012    2    1    2    0    0 -0.11892946387E+01  0.71011569482E+01  0.31062567518E+02  0.59301890916E+02  0.49999903137E+02 0.  0.
         12    1    1    2    0    0  0.11892946387E+01 -0.71011569482E+01 -0.31062567518E+02  0.31886109084E+02  0.00000000000E+00 0. -1.
         11    1    3    3    0    0 -0.14261434254E+02 -0.19056952579E+01  0.85621156937E+01  0.16743058466E+02  0.51100000000E-03 0.  1.
        -11    1    3    3    0    0  0.48669481589E+01  0.20124633303E+02  0.71481637891E+01  0.21903978994E+02  0.51100000000E-03 0. -1.
         12    1    3    3    0    0  0.82051914564E+01 -0.11117781097E+02  0.15352288035E+02  0.20654853455E+02  0.00000000000E+00 0. -1.
</event>
<event>
 7    1  0.3223600E-013  0.5930194E+02  0.7816164E-02  0.1266605E+00
        -11   -1    0    0    0    0  0.00000000000E+00  0.00000000000E+00  0.45593999997E+02  0.45594000000E+02  0.51100000000E-03 0.  1.
         11   -1    0    0    0    0 -0.00000000000E+00 -0.00000000000E+00 -0.45593999997E+02  0.45594000000E+02  0.51100000000E-03 0. -1.
    9900012    2    1    2    0    0 -0.18435955158E+02  0.18074254526E+02  0.18712498717E+02  0.59301941487E+02  0.49999995367E+02 0.  0.
         12    1    1    2    0    0  0.18435955158E+02 -0.18074254526E+02 -0.18712498717E+02  0.31886058513E+02  0.00000000000E+00 0. -1.
         11    1    3    3    0    0  0.54062998441E+00 -0.11852001996E+02  0.56703881227E+01  0.13149735123E+02  0.51100000000E-03 0. -1.
        -11    1    3    3    0    0 -0.97766863873E+01  0.14023945149E+02  0.20175305621E+02  0.26444235505E+02  0.51100000000E-03 0.  1.
         12    1    3    3    0    0 -0.91998987552E+01  0.15902311373E+02 -0.71331950275E+01  0.19707970859E+02  0.00000000000E+00 0. -1.
</event>
<event>
 7    1  0.3223600E-013  0.5930194E+02  0.7816164E-02  0.1266605E+00
        -11   -1    0    0    0    0  0.00000000000E+00  0.00000000000E+00  0.45593999997E+02  0.45594000000E+02  0.51100000000E-03 0.  1.
         11   -1    0    0    0    0 -0.00000000000E+00 -0.00000000000E+00 -0.45593999997E+02  0.45594000000E+02  0.51100000000E-03 0. -1.
    9900012    2    1    2    0    0 -0.13163424717E+02  0.19469724195E+02  0.21549359951E+02  0.59301939961E+02  0.49999992583E+02 0.  0.
         12    1    1    2    0    0  0.13163424717E+02 -0.19469724195E+02 -0.21549359951E+02  0.31886060039E+02  0.00000000000E+00 0. -1.
         11    1    3    3    0    0 -0.14060772269E+02  0.11125542396E+02  0.40100508683E+01  0.18372901748E+02  0.51100000000E-03 0. -1.
        -11    1    3    3    0    0 -0.58626878848E+01  0.50716621194E+01 -0.98466226358E+01  0.12531913002E+02  0.51100000000E-03 0.  1.
        -12    1    3    3    0    0  0.67600354369E+01  0.32725196793E+01  0.27385931719E+02  0.28397125211E+02  0.00000000000E+00 0.  1.
</event>
<event>
 7    1  0.3223600E-013  0.5930187E+02  0.7816164E-02  0.1266605E+00
        -11   -1    0    0    0    0  0.00000000000E+00  0.00000000000E+00  0.45593999997E+02  0.45594000000E+02  0.51100000000E-03 0. -1.
         11   -1    0    0    0    0 -0.00000000000E+00 -0.00000000000E+00 -0.45593999997E+02  0.45594000000E+02  0.51100000000E-03 0.  1.
    9900012    2    1    2    0    0 -0.30082671903E+02  0.96087440450E+01  0.44079369068E+01  0.59301874197E+02  0.49999872646E+02 0.  0.
         12    1    1    2    0    0  0.30082671903E+02 -0.96087440450E+01 -0.44079369068E+01  0.31886125803E+02  0.00000000000E+00 0. -1.
         11    1    3    3    0    0 -0.16699035512E+02 -0.35621780664E+01 -0.54150250360E+00  0.17083328857E+02  0.51100000000E-03 0. -1.
        -11    1    3    3    0    0 -0.67604575561E+01 -0.12651460884E+02  0.59784835707E+01  0.15540447707E+02  0.51100000000E-03 0.  1.
        -12    1    3    3    0    0 -0.66231788346E+01  0.25822382996E+02 -0.10290441603E+01  0.26678097633E+02  0.00000000000E+00 0.  1.
</event>
<event>
 7    1  0.3223600E-013  0.5930197E+02  0.7816164E-02  0.1266605E+00
        -11   -1    0    0    0    0  0.00000000000E+00  0.00000000000E+00  0.45593999997E+02  0.45594000000E+02  0.51100000000E-03 0.  1.
         11   -1    0    0    0    0 -0.00000000000E+00 -0.00000000000E+00 -0.45593999997E+02  0.45594000000E+02  0.51100000000E-03 0. -1.
    9900012    2    1    2    0    0  0.59007544242E+01  0.69817679579E+01  0.30547584134E+02  0.59301970409E+02  0.50000048114E+02 0.  0.
         12    1    1    2    0    0 -0.59007544242E+01 -0.69817679579E+01 -0.30547584134E+02  0.31886029591E+02  0.00000000000E+00 0. -1.
         11    1    3    3    0    0  0.20739069809E+02  0.11667265667E+02  0.24807734153E+01  0.23924638800E+02  0.51100000000E-03 0.  1.
        -11    1    3    3    0    0 -0.11466474278E+01 -0.87745724756E-01 -0.18375947366E+01  0.21677763521E+01  0.51100000000E-03 0. -1.
        -12    1    3    3    0    0 -0.13691667957E+02 -0.45977519847E+01  0.29904405456E+02  0.33209555258E+02  0.00000000000E+00 0.  1.
</event>
<event>
 7    1  0.3223600E-013  0.5930195E+02  0.7816164E-02  0.1266605E+00
        -11   -1    0    0    0    0  0.00000000000E+00  0.00000000000E+00  0.45593999997E+02  0.45594000000E+02  0.51100000000E-03 0.  1.
         11   -1    0    0    0    0 -0.00000000000E+00 -0.00000000000E+00 -0.45593999997E+02  0.45594000000E+02  0.51100000000E-03 0. -1.
    9900012    2    1    2    0    0  0.13934537593E+02  0.69185383135E+01  0.27833126369E+02  0.59301946092E+02  0.50000003765E+02 0.  0.
         12    1    1    2    0    0 -0.13934537593E+02 -0.69185383135E+01 -0.27833126369E+02  0.31886053908E+02  0.00000000000E+00 0. -1.
         11    1    3    3    0    0  0.37955204118E+00 -0.30049268363E+01  0.81917432856E+00  0.31376251983E+01  0.51100000000E-03 0. -1.
        -11    1    3    3    0    0 -0.36352924844E+01 -0.12823992560E+02  0.24052050675E+02  0.27498568663E+02  0.51100000000E-03 0.  1.
         12    1    3    3    0    0  0.17190278037E+02  0.22747457709E+02  0.29619013659E+01  0.28665752230E+02  0.00000000000E+00 0. -1.
</event>
<event>
 7    1  0.3223600E-013  0.5930193E+02  0.7816164E-02  0.1266605E+00
        -11   -1    0    0    0    0  0.00000000000E+00  0.00000000000E+00  0.45593999997E+02  0.45594000000E+02  0.51100000000E-03 0. -1.
         11   -1    0    0    0    0 -0.00000000000E+00 -0.00000000000E+00 -0.45593999997E+02  0.45594000000E+02  0.51100000000E-03 0.  1.
    9900012    2    1    2    0    0  0.30859747042E+02 -0.51907995388E+01 -0.61198892996E+01  0.59301930434E+02  0.49999975208E+02 0.  0.
         12    1    1    2    0    0 -0.30859747042E+02  0.51907995388E+01  0.61198892996E+01  0.31886069566E+02  0.00000000000E+00 0. -1.
         11    1    3    3    0    0 -0.56675387357E+01 -0.28154234705E+01  0.12317072125E+02  0.13847666613E+02  0.51100000000E-03 0. -1.
        -11    1    3    3    0    0  0.24296145434E+02 -0.10614449869E+02 -0.92567059167E+01  0.28083016819E+02  0.51100000000E-03 0.  1.
        -12    1    3    3    0    0  0.12231140344E+02  0.82390738005E+01 -0.91802555079E+01  0.17371247001E+02  0.00000000000E+00 0.  1.
</event>
<event>
 7    1  0.3223600E-013  0.5930195E+02  0.7816164E-02  0.1266605E+00
        -11   -1    0    0    0    0  0.00000000000E+00  0.00000000000E+00  0.45593999997E+02  0.45594000000E+02  0.51100000000E-03 0. -1.
         11   -1    0    0    0    0 -0.00000000000E+00 -0.00000000000E+00 -0.45593999997E+02  0.45594000000E+02  0.51100000000E-03 0.  1.
    9900012    2    1    2    0    0  0.27113398473E+02 -0.84327018043E+01 -0.14507705723E+02  0.59301947221E+02  0.50000005824E+02 0.  0.
         12    1    1    2    0    0 -0.27113398473E+02  0.84327018043E+01  0.14507705723E+02  0.31886052779E+02  0.00000000000E+00 0. -1.
         11    1    3    3    0    0 -0.99793247118E+01  0.12641340378E+01 -0.12747131418E+02  0.16238051491E+02  0.51100000000E-03 0. -1.
        -11    1    3    3    0    0  0.78655239072E+01  0.37892678021E+01 -0.60053273853E+01  0.10596649191E+02  0.51100000000E-03 0.  1.
        -12    1    3    3    0    0  0.29227199278E+02 -0.13486103644E+02  0.42447530807E+01  0.32467246539E+02  0.00000000000E+00 0.  1.
</event>
<event>
 7    1  0.3223600E-013  0.5930196E+02  0.7816164E-02  0.1266605E+00
        -11   -1    0    0    0    0  0.00000000000E+00  0.00000000000E+00  0.45593999997E+02  0.45594000000E+02  0.51100000000E-03 0. -1.
         11   -1    0    0    0    0 -0.00000000000E+00 -0.00000000000E+00 -0.45593999997E+02  0.45594000000E+02  0.51100000000E-03 0.  1.
    9900012    2    1    2    0    0  0.17930240197E+02 -0.17553449158E+02 -0.19674916206E+02  0.59301962012E+02  0.50000032799E+02 0.  0.
         12    1    1    2    0    0 -0.17930240197E+02  0.17553449158E+02  0.19674916206E+02  0.31886037988E+02  0.00000000000E+00 0. -1.
         11    1    3    3    0    0  0.10365076134E+02 -0.20998104668E+02 -0.39166080109E+01  0.23742262350E+02  0.51100000000E-03 0. -1.
        -11    1    3    3    0    0  0.17960246992E+02 -0.39855317054E+01 -0.12892030073E+02  0.22464624961E+02  0.51100000000E-03 0.  1.
         12    1    3    3    0    0 -0.10395082929E+02  0.74301872148E+01 -0.28662781216E+01  0.13095074701E+02  0.00000000000E+00 0. -1.
</event>
<event>
 7    1  0.3223600E-013  0.5930194E+02  0.7816164E-02  0.1266605E+00
        -11   -1    0    0    0    0  0.00000000000E+00  0.00000000000E+00  0.45593999997E+02  0.45594000000E+02  0.51100000000E-03 0. -1.
         11   -1    0    0    0    0 -0.00000000000E+00 -0.00000000000E+00 -0.45593999997E+02  0.45594000000E+02  0.51100000000E-03 0.  1.
    9900012    2    1    2    0    0  0.16669009482E+02  0.24800490365E+02 -0.11126585641E+02  0.59301935528E+02  0.49999984499E+02 0.  0.
         12    1    1    2    0    0 -0.16669009482E+02 -0.24800490365E+02  0.11126585641E+02  0.31886064472E+02  0.00000000000E+00 0. -1.
         11    1    3    3    0    0 -0.31420038627E+01  0.57593572340E+00  0.89097985413E+01  0.94651149247E+01  0.51100000000E-03 0. -1.
        -11    1    3    3    0    0 -0.90480337462E+01  0.22694008787E+01 -0.32455864268E+01  0.98767872578E+01  0.51100000000E-03 0.  1.
        -12    1    3    3    0    0  0.28859047090E+02  0.21955153763E+02 -0.16790797756E+02  0.39960033346E+02  0.00000000000E+00 0.  1.
</event>
<event>
 7    1  0.3223600E-013  0.5930196E+02  0.7816164E-02  0.1266605E+00
        -11   -1    0    0    0    0  0.00000000000E+00  0.00000000000E+00  0.45593999997E+02  0.45594000000E+02  0.51100000000E-03 0. -1.
         11   -1    0    0    0    0 -0.00000000000E+00 -0.00000000000E+00 -0.45593999997E+02  0.45594000000E+02  0.51100000000E-03 0.  1.
    9900012    2    1    2    0    0 -0.37625224935E+01  0.50081229622E+01 -0.31264708081E+02  0.59301955364E+02  0.50000020674E+02 0.  0.
         12    1    1    2    0    0  0.37625224935E+01 -0.50081229622E+01  0.31264708081E+02  0.31886044636E+02  0.00000000000E+00 0. -1.
         11    1    3    3    0    0 -0.33355464153E+00  0.27193149056E+01 -0.12834457484E+02  0.13123613505E+02  0.51100000000E-03 0.  1.
        -11    1    3    3    0    0 -0.29962329815E+00 -0.15373414400E+02 -0.23001532432E+02  0.27667709318E+02  0.51100000000E-03 0. -1.
        -12    1    3    3    0    0 -0.31293445538E+01  0.17662222456E+02  0.45712818349E+01  0.18510632541E+02  0.00000000000E+00 0.  1.
</event>
<event>
 7    1  0.3223600E-013  0.5930194E+02  0.7816164E-02  0.1266605E+00
        -11   -1    0    0    0    0  0.00000000000E+00  0.00000000000E+00  0.45593999997E+02  0.45594000000E+02  0.51100000000E-03 0.  1.
         11   -1    0    0    0    0 -0.00000000000E+00 -0.00000000000E+00 -0.45593999997E+02  0.45594000000E+02  0.51100000000E-03 0. -1.
    9900012    2    1    2    0    0 -0.22543220324E+02  0.21932458885E+02  0.52432294342E+01  0.59301937367E+02  0.49999987853E+02 0.  0.
         12    1    1    2    0    0  0.22543220324E+02 -0.21932458885E+02 -0.52432294342E+01  0.31886062633E+02  0.00000000000E+00 0. -1.
         11    1    3    3    0    0 -0.14369836996E+01  0.85733535798E+01 -0.93137845918E+01  0.12740247150E+02  0.51100000000E-03 0. -1.
        -11    1    3    3    0    0  0.28449095358E+01  0.18973208353E+02  0.96547721060E+01  0.21477680744E+02  0.51100000000E-03 0.  1.
         12    1    3    3    0    0 -0.23951146160E+02 -0.56141030477E+01  0.49022419200E+01  0.25084009473E+02  0.00000000000E+00 0. -1.
</event>
<event>
 7    1  0.3223600E-013  0.5930189E+02  0.7816164E-02  0.1266605E+00
        -11   -1    0    0    0    0  0.00000000000E+00  0.00000000000E+00  0.45593999997E+02  0.45594000000E+02  0.51100000000E-03 0. -1.
         11   -1    0    0    0    0 -0.00000000000E+00 -0.00000000000E+00 -0.45593999997E+02  0.45594000000E+02  0.51100000000E-03 0.  1.
    9900012    2    1    2    0    0 -0.27009677783E+02  0.94843954849E+01 -0.14044492340E+02  0.59301886772E+02  0.49999895580E+02 0.  0.
         12    1    1    2    0    0  0.27009677783E+02 -0.94843954849E+01  0.14044492340E+02  0.31886113228E+02  0.00000000000E+00 0. -1.
         11    1    3    3    0    0 -0.13188006315E+02 -0.75204189721E+00 -0.12021562848E+02  0.17860768493E+02  0.51100000000E-03 0. -1.
        -11    1    3    3    0    0 -0.75225690304E+01 -0.11421325658E+02 -0.10607328955E+02  0.17307546112E+02  0.51100000000E-03 0.  1.
         12    1    3    3    0    0 -0.62991024381E+01  0.21657763040E+02  0.85843994634E+01  0.24133572168E+02  0.00000000000E+00 0. -1.
</event>
<event>
 7    1  0.3223600E-013  0.5930194E+02  0.7816164E-02  0.1266605E+00
        -11   -1    0    0    0    0  0.00000000000E+00  0.00000000000E+00  0.45593999997E+02  0.45594000000E+02  0.51100000000E-03 0. -1.
         11   -1    0    0    0    0 -0.00000000000E+00 -0.00000000000E+00 -0.45593999997E+02  0.45594000000E+02  0.51100000000E-03 0.  1.
    9900012    2    1    2    0    0  0.13014967333E+01  0.28567853423E+02  0.14103353905E+02  0.59301941380E+02  0.49999995172E+02 0.  0.
         12    1    1    2    0    0 -0.13014967333E+01 -0.28567853423E+02 -0.14103353905E+02  0.31886058620E+02  0.00000000000E+00 0. -1.
         11    1    3    3    0    0 -0.23527263001E+01  0.12339679527E+02 -0.29663238904E+00  0.12565468670E+02  0.51100000000E-03 0. -1.
        -11    1    3    3    0    0  0.21833984553E+02  0.96961001006E+01  0.24358500978E+01  0.24013966865E+02  0.51100000000E-03 0.  1.
         12    1    3    3    0    0 -0.18179761520E+02  0.65320737954E+01  0.11964136196E+02  0.22722505845E+02  0.00000000000E+00 0. -1.
</event>
<event>
 7    1  0.3223600E-013  0.5930193E+02  0.7816164E-02  0.1266605E+00
        -11   -1    0    0    0    0  0.00000000000E+00  0.00000000000E+00  0.45593999997E+02  0.45594000000E+02  0.51100000000E-03 0. -1.
         11   -1    0    0    0    0 -0.00000000000E+00 -0.00000000000E+00 -0.45593999997E+02  0.45594000000E+02  0.51100000000E-03 0.  1.
    9900012    2    1    2    0    0 -0.79689578940E+01 -0.98999491388E-01 -0.30874052452E+02  0.59301933990E+02  0.49999981693E+02 0.  0.
         12    1    1    2    0    0  0.79689578940E+01  0.98999491388E-01  0.30874052452E+02  0.31886066010E+02  0.00000000000E+00 0. -1.
         11    1    3    3    0    0 -0.17708072800E+01  0.93094268317E+01 -0.56055353643E+01  0.11010141386E+02  0.51100000000E-03 0. -1.
        -11    1    3    3    0    0  0.11032205710E+02  0.86401552021E+01 -0.16942694052E+02  0.21986739793E+02  0.51100000000E-03 0.  1.
        -12    1    3    3    0    0 -0.17230356324E+02 -0.18048581525E+02 -0.83258230361E+01  0.26305052810E+02  0.00000000000E+00 0.  1.
</event>
<event>
 7    1  0.3223600E-013  0.5930194E+02  0.7816164E-02  0.1266605E+00
        -11   -1    0    0    0    0  0.00000000000E+00  0.00000000000E+00  0.45593999997E+02  0.45594000000E+02  0.51100000000E-03 0. -1.
         11   -1    0    0    0    0 -0.00000000000E+00 -0.00000000000E+00 -0.45593999997E+02  0.45594000000E+02  0.51100000000E-03 0.  1.
    9900012    2    1    2    0    0  0.21866513874E+02 -0.19786767855E+02  0.12126841212E+02  0.59301938955E+02  0.49999990749E+02 0.  0.
         12    1    1    2    0    0 -0.21866513874E+02  0.19786767855E+02 -0.12126841212E+02  0.31886061045E+02  0.00000000000E+00 0. -1.
         11    1    3    3    0    0  0.85047898894E+01 -0.20603090923E+02 -0.77948363117E+01  0.23613095520E+02  0.51100000000E-03 0. -1.
        -11    1    3    3    0    0  0.88483934962E+01 -0.12594570899E+02  0.91609092683E+01  0.17911994375E+02  0.51100000000E-03 0.  1.
         12    1    3    3    0    0  0.45133304884E+01  0.13410893967E+02  0.10760768255E+02  0.17776849061E+02  0.00000000000E+00 0. -1.
</event>
<event>
 7    1  0.3223600E-013  0.5930185E+02  0.7816164E-02  0.1266605E+00
        -11   -1    0    0    0    0  0.00000000000E+00  0.00000000000E+00  0.45593999997E+02  0.45594000000E+02  0.51100000000E-03 0.  1.
         11   -1    0    0    0    0 -0.00000000000E+00 -0.00000000000E+00 -0.45593999997E+02  0.45594000000E+02  0.51100000000E-03 0. -1.
    9900012    2    1    2    0    0  0.15918396562E+02  0.93691644085E+01  0.25991345416E+02  0.59301848973E+02  0.49999826642E+02 0.  0.
         12    1    1    2    0    0 -0.15918396562E+02 -0.93691644085E+01 -0.25991345416E+02  0.31886151027E+02  0.00000000000E+00 0. -1.
         11    1    3    3    0    0  0.11352888735E+02 -0.32903335875E+01  0.22173102281E+01  0.12026256386E+02  0.51100000000E-03 0. -1.
        -11    1    3    3    0    0  0.99050551414E+01  0.20460180106E+02  0.11553953506E+01  0.22761019881E+02  0.51100000000E-03 0.  1.
         12    1    3    3    0    0 -0.53395473147E+01 -0.78006821101E+01  0.22618639837E+02  0.24514572707E+02  0.00000000000E+00 0. -1.
</event>
<event>
 7    1  0.3223600E-013  0.5930196E+02  0.7816164E-02  0.1266605E+00
        -11   -1    0    0    0    0  0.00000000000E+00  0.00000000000E+00  0.45593999997E+02  0.45594000000E+02  0.51100000000E-03 0.  1.
         11   -1    0    0    0    0 -0.00000000000E+00 -0.00000000000E+00 -0.45593999997E+02  0.45594000000E+02  0.51100000000E-03 0. -1.
    9900012    2    1    2    0    0 -0.26089411352E+02  0.90648835694E+01  0.15933924342E+02  0.59301961617E+02  0.50000032078E+02 0.  0.
         12    1    1    2    0    0  0.26089411352E+02 -0.90648835694E+01 -0.15933924342E+02  0.31886038383E+02  0.00000000000E+00 0. -1.
         11    1    3    3    0    0 -0.12553371027E+02 -0.86371172598E+01  0.17237390919E+02  0.23006837346E+02  0.51100000000E-03 0.  1.
        -11    1    3    3    0    0  0.29738596653E+01 -0.12805980508E+01 -0.93396439962E+01  0.98849746035E+01  0.51100000000E-03 0. -1.
        -12    1    3    3    0    0 -0.16509899991E+02  0.18982598880E+02  0.80361774189E+01  0.26410149667E+02  0.00000000000E+00 0.  1.
</event>
<event>
 7    1  0.3223600E-013  0.5930195E+02  0.7816164E-02  0.1266605E+00
        -11   -1    0    0    0    0  0.00000000000E+00  0.00000000000E+00  0.45593999997E+02  0.45594000000E+02  0.51100000000E-03 0.  1.
         11   -1    0    0    0    0 -0.00000000000E+00 -0.00000000000E+00 -0.45593999997E+02  0.45594000000E+02  0.51100000000E-03 0. -1.
    9900012    2    1    2    0    0  0.17430639562E+02 -0.17161714054E+02  0.20454061735E+02  0.59301948719E+02  0.50000008556E+02 0.  0.
         12    1    1    2    0    0 -0.17430639562E+02  0.17161714054E+02 -0.20454061735E+02  0.31886051281E+02  0.00000000000E+00 0. -1.
         11    1    3    3    0    0 -0.22044678217E+01  0.31383184449E+00 -0.90544087595E+01  0.93241882783E+01  0.51100000000E-03 0. -1.
        -11    1    3    3    0    0  0.53921366137E+01  0.50102448294E+01  0.20654177408E+02  0.21926530395E+02  0.51100000000E-03 0.  1.
         12    1    3    3    0    0  0.14242970770E+02 -0.22485790728E+02  0.88542930870E+01  0.28051230046E+02  0.00000000000E+00 0. -1.
</event>
<event>
 7    1  0.3223600E-013  0.5930195E+02  0.7816164E-02  0.1266605E+00
        -11   -1    0    0    0    0  0.00000000000E+00  0.00000000000E+00  0.45593999997E+02  0.45594000000E+02  0.51100000000E-03 0.  1.
         11   -1    0    0    0    0 -0.00000000000E+00 -0.00000000000E+00 -0.45593999997E+02  0.45594000000E+02  0.51100000000E-03 0. -1.
    9900012    2    1    2    0    0 -0.11178925965E+02  0.26846736395E+02 -0.13076877770E+02  0.59301947046E+02  0.50000005504E+02 0.  0.
         12    1    1    2    0    0  0.11178925965E+02 -0.26846736395E+02  0.13076877770E+02  0.31886052954E+02  0.00000000000E+00 0. -1.
         11    1    3    3    0    0 -0.12259030595E+02  0.24826484484E-01  0.68964949844E+01  0.14065777292E+02  0.51100000000E-03 0. -1.
        -11    1    3    3    0    0  0.71403925376E+01 -0.45370458675E+01 -0.60138515754E+01  0.10379614724E+02  0.51100000000E-03 0.  1.
        -12    1    3    3    0    0 -0.60602879077E+01  0.31358955778E+02 -0.13959521179E+02  0.34856555030E+02  0.00000000000E+00 0.  1.
</event>
<event>
 7    1  0.3223600E-013  0.5930196E+02  0.7816164E-02  0.1266605E+00
        -11   -1    0    0    0    0  0.00000000000E+00  0.00000000000E+00  0.45593999997E+02  0.45594000000E+02  0.51100000000E-03 0. -1.
         11   -1    0    0    0    0 -0.00000000000E+00 -0.00000000000E+00 -0.45593999997E+02  0.45594000000E+02  0.51100000000E-03 0.  1.
    9900012    2    1    2    0    0  0.15860976870E+02  0.21367427564E+02  0.17566497416E+02  0.59301962626E+02  0.50000033918E+02 0.  0.
         12    1    1    2    0    0 -0.15860976870E+02 -0.21367427564E+02 -0.17566497416E+02  0.31886037374E+02  0.00000000000E+00 0. -1.
         11    1    3    3    0    0  0.26099320286E+02  0.19213915064E+02  0.14016459837E+02  0.35310199633E+02  0.51100000000E-03 0. -1.
        -11    1    3    3    0    0 -0.22475745429E+01  0.10629024102E+02 -0.20682458140E+01  0.11059176538E+02  0.51100000000E-03 0.  1.
         12    1    3    3    0    0 -0.79907688741E+01 -0.84755116024E+01  0.56182833932E+01  0.12932586455E+02  0.00000000000E+00 0. -1.
</event>
<event>
 7    1  0.3223600E-013  0.5930208E+02  0.7816164E-02  0.1266604E+00
        -11   -1    0    0    0    0  0.00000000000E+00  0.00000000000E+00  0.45593999997E+02  0.45594000000E+02  0.51100000000E-03 0.  1.
         11   -1    0    0    0    0 -0.00000000000E+00 -0.00000000000E+00 -0.45593999997E+02  0.45594000000E+02  0.51100000000E-03 0. -1.
    9900012    2    1    2    0    0 -0.14758267398E+02 -0.27236861120E+02 -0.75537098924E+01  0.59302084717E+02  0.50000256583E+02 0.  0.
         12    1    1    2    0    0  0.14758267398E+02  0.27236861120E+02  0.75537098924E+01  0.31885915283E+02  0.00000000000E+00 0. -1.
         11    1    3    3    0    0 -0.16453659773E+01  0.68777535542E+01 -0.31287342023E+00  0.70787437579E+01  0.51100000000E-03 0. -1.
        -11    1    3    3    0    0 -0.18230070996E+02 -0.71464542644E+01 -0.13856874097E+02  0.23987918982E+02  0.51100000000E-03 0.  1.
         12    1    3    3    0    0  0.51171695752E+01 -0.26968160410E+02  0.66160376251E+01  0.28235421977E+02  0.00000000000E+00 0. -1.
</event>
<event>
 7    1  0.3223600E-013  0.5930194E+02  0.7816164E-02  0.1266605E+00
        -11   -1    0    0    0    0  0.00000000000E+00  0.00000000000E+00  0.45593999997E+02  0.45594000000E+02  0.51100000000E-03 0. -1.
         11   -1    0    0    0    0 -0.00000000000E+00 -0.00000000000E+00 -0.45593999997E+02  0.45594000000E+02  0.51100000000E-03 0.  1.
    9900012    2    1    2    0    0 -0.18731298845E+02 -0.18976170168E+01 -0.25734383512E+02  0.59301937190E+02  0.49999987530E+02 0.  0.
         12    1    1    2    0    0  0.18731298845E+02  0.18976170168E+01  0.25734383512E+02  0.31886062810E+02  0.00000000000E+00 0. -1.
         11    1    3    3    0    0 -0.24493332694E+02 -0.83154619441E+01 -0.46535659494E+01  0.26281665284E+02  0.51100000000E-03 0. -1.
        -11    1    3    3    0    0 -0.88685351351E+01  0.35931278741E+01 -0.40486603914E+01  0.10390049788E+02  0.51100000000E-03 0.  1.
         12    1    3    3    0    0  0.14630568984E+02  0.28247170531E+01 -0.17032157171E+02  0.22630222118E+02  0.00000000000E+00 0. -1.
</event>
<event>
 7    1  0.3223600E-013  0.5930193E+02  0.7816164E-02  0.1266605E+00
        -11   -1    0    0    0    0  0.00000000000E+00  0.00000000000E+00  0.45593999997E+02  0.45594000000E+02  0.51100000000E-03 0. -1.
         11   -1    0    0    0    0 -0.00000000000E+00 -0.00000000000E+00 -0.45593999997E+02  0.45594000000E+02  0.51100000000E-03 0.  1.
    9900012    2    1    2    0    0 -0.16960051663E+02 -0.26381963583E+02  0.57506412152E+01  0.59301933618E+02  0.49999981015E+02 0.  0.
         12    1    1    2    0    0  0.16960051663E+02  0.26381963583E+02 -0.57506412152E+01  0.31886066382E+02  0.00000000000E+00 0. -1.
         11    1    3    3    0    0 -0.95011797907E+01 -0.27538242586E+01  0.56824142623E+01  0.11408146106E+02  0.51100000000E-03 0. -1.
        -11    1    3    3    0    0 -0.21760528580E+02 -0.24164492711E+02 -0.45952750560E+01  0.32841435187E+02  0.51100000000E-03 0.  1.
        -12    1    3    3    0    0  0.14301656707E+02  0.53635338597E+00  0.46635020089E+01  0.15052352325E+02  0.00000000000E+00 0.  1.
</event>
<event>
 7    1  0.3223600E-013  0.5930194E+02  0.7816164E-02  0.1266605E+00
        -11   -1    0    0    0    0  0.00000000000E+00  0.00000000000E+00  0.45593999997E+02  0.45594000000E+02  0.51100000000E-03 0.  1.
         11   -1    0    0    0    0 -0.00000000000E+00 -0.00000000000E+00 -0.45593999997E+02  0.45594000000E+02  0.51100000000E-03 0. -1.
    9900012    2    1    2    0    0  0.10186326901E+02 -0.29688353622E+02  0.56179456969E+01  0.59301938620E+02  0.49999990137E+02 0.  0.
         12    1    1    2    0    0 -0.10186326901E+02  0.29688353622E+02 -0.56179456969E+01  0.31886061380E+02  0.00000000000E+00 0. -1.
         11    1    3    3    0    0  0.15561040298E+02 -0.18189230887E+02 -0.47114657737E+01  0.24396557246E+02  0.51100000000E-03 0. -1.
        -11    1    3    3    0    0 -0.17391811550E+02 -0.26578459307E+01  0.17131157580E+01  0.17676934685E+02  0.51100000000E-03 0.  1.
         12    1    3    3    0    0  0.12017098153E+02 -0.88412768034E+01  0.86162957126E+01  0.17228446689E+02  0.00000000000E+00 0. -1.
</event>
<event>
 7    1  0.3223600E-013  0.5930194E+02  0.7816164E-02  0.1266605E+00
        -11   -1    0    0    0    0  0.00000000000E+00  0.00000000000E+00  0.45593999997E+02  0.45594000000E+02  0.51100000000E-03 0.  1.
         11   -1    0    0    0    0 -0.00000000000E+00 -0.00000000000E+00 -0.45593999997E+02  0.45594000000E+02  0.51100000000E-03 0. -1.
    9900012    2    1    2    0    0 -0.19756543875E+02 -0.20651831499E+02  0.14138647656E+02  0.59301944620E+02  0.50000001080E+02 0.  0.
         12    1    1    2    0    0  0.19756543875E+02  0.20651831499E+02 -0.14138647656E+02  0.31886055380E+02  0.00000000000E+00 0. -1.
         11    1    3    3    0    0 -0.11791466168E+02  0.93909653696E+00  0.31854972977E+01  0.12250223262E+02  0.51100000000E-03 0. -1.
        -11    1    3    3    0    0 -0.47613952338E+01  0.11488091939E+02  0.43027142366E+01  0.13159045977E+02  0.51100000000E-03 0.  1.
        -12    1    3    3    0    0 -0.32036824739E+01 -0.33079019974E+02  0.66504361221E+01  0.33892675381E+02  0.00000000000E+00 0.  1.
</event>
<event>
 7    1  0.3223600E-013  0.5930198E+02  0.7816164E-02  0.1266605E+00
        -11   -1    0    0    0    0  0.00000000000E+00  0.00000000000E+00  0.45593999997E+02  0.45594000000E+02  0.51100000000E-03 0.  1.
         11   -1    0    0    0    0 -0.00000000000E+00 -0.00000000000E+00 -0.45593999997E+02  0.45594000000E+02  0.51100000000E-03 0. -1.
    9900012    2    1    2    0    0  0.19875902870E+02 -0.24792515414E+02 -0.26453944243E+01  0.59301977245E+02  0.50000060580E+02 0.  0.
         12    1    1    2    0    0 -0.19875902870E+02  0.24792515414E+02  0.26453944243E+01  0.31886022755E+02  0.00000000000E+00 0. -1.
         11    1    3    3    0    0  0.16467343879E+02 -0.26039651020E+02  0.93299791923E+01  0.32191386296E+02  0.51100000000E-03 0. -1.
        -11    1    3    3    0    0 -0.11445970848E+01 -0.41969774744E+01  0.62141402838E+01  0.75855297861E+01  0.51100000000E-03 0.  1.
         12    1    3    3    0    0  0.45531560764E+01  0.54441130799E+01 -0.18189513900E+02  0.19525061163E+02  0.00000000000E+00 0. -1.
</event>
<event>
 7    1  0.3223600E-013  0.5930196E+02  0.7816164E-02  0.1266605E+00
        -11   -1    0    0    0    0  0.00000000000E+00  0.00000000000E+00  0.45593999997E+02  0.45594000000E+02  0.51100000000E-03 0.  1.
         11   -1    0    0    0    0 -0.00000000000E+00 -0.00000000000E+00 -0.45593999997E+02  0.45594000000E+02  0.51100000000E-03 0. -1.
    9900012    2    1    2    0    0 -0.61991824972E+01 -0.79028379601E+01  0.30262759203E+02  0.59301963777E+02  0.50000036018E+02 0.  0.
         12    1    1    2    0    0  0.61991824972E+01  0.79028379601E+01 -0.30262759203E+02  0.31886036223E+02  0.00000000000E+00 0. -1.
         11    1    3    3    0    0  0.11033774552E+02  0.21544319074E+01 -0.44942068876E+01  0.12107173639E+02  0.51100000000E-03 0. -1.
        -11    1    3    3    0    0  0.32244023976E+01 -0.90310874382E+01  0.19241801298E+02  0.21498935523E+02  0.51100000000E-03 0.  1.
         12    1    3    3    0    0 -0.20457359447E+02 -0.10261824292E+01  0.15515164792E+02  0.25695854616E+02  0.00000000000E+00 0. -1.
</event>
<event>
 7    1  0.3223600E-013  0.5930194E+02  0.7816164E-02  0.1266605E+00
        -11   -1    0    0    0    0  0.00000000000E+00  0.00000000000E+00  0.45593999997E+02  0.45594000000E+02  0.51100000000E-03 0. -1.
         11   -1    0    0    0    0 -0.00000000000E+00 -0.00000000000E+00 -0.45593999997E+02  0.45594000000E+02  0.51100000000E-03 0.  1.
    9900012    2    1    2    0    0  0.21277429728E+02 -0.30211757230E+01 -0.23555554812E+02  0.59301942215E+02  0.49999996694E+02 0.  0.
         12    1    1    2    0    0 -0.21277429728E+02  0.30211757230E+01  0.23555554812E+02  0.31886057785E+02  0.00000000000E+00 0. -1.
         11    1    3    3    0    0  0.24379361611E+02  0.12675427439E+01 -0.25402252469E+01  0.24544096678E+02  0.51100000000E-03 0. -1.
        -11    1    3    3    0    0  0.86936991929E+01  0.57540286163E+01 -0.14715239268E+02  0.18034065486E+02  0.51100000000E-03 0.  1.
        -12    1    3    3    0    0 -0.11795631076E+02 -0.10042747083E+02 -0.63000902969E+01  0.16723780051E+02  0.00000000000E+00 0.  1.
</event>
<event>
 7    1  0.3223600E-013  0.5930198E+02  0.7816164E-02  0.1266605E+00
        -11   -1    0    0    0    0  0.00000000000E+00  0.00000000000E+00  0.45593999997E+02  0.45594000000E+02  0.51100000000E-03 0.  1.
         11   -1    0    0    0    0 -0.00000000000E+00 -0.00000000000E+00 -0.45593999997E+02  0.45594000000E+02  0.51100000000E-03 0. -1.
    9900012    2    1    2    0    0  0.30692119225E+02  0.79873485341E+01 -0.33037161828E+01  0.59301977047E+02  0.50000060219E+02 0.  0.
         12    1    1    2    0    0 -0.30692119225E+02 -0.79873485341E+01  0.33037161828E+01  0.31886022953E+02  0.00000000000E+00 0. -1.
         11    1    3    3    0    0  0.15051737851E+02  0.16281867795E+02  0.53749402731E+01  0.22815433689E+02  0.51100000000E-03 0. -1.
        -11    1    3    3    0    0  0.24481234432E+02 -0.75766793717E+01 -0.26538220098E+01  0.25763922084E+02  0.51100000000E-03 0.  1.
         12    1    3    3    0    0 -0.88408530572E+01 -0.71783988943E+00 -0.60248344461E+01  0.10722621274E+02  0.00000000000E+00 0. -1.
</event>
<event>
 7    1  0.3223600E-013  0.5930202E+02  0.7816164E-02  0.1266605E+00
        -11   -1    0    0    0    0  0.00000000000E+00  0.00000000000E+00  0.45593999997E+02  0.45594000000E+02  0.51100000000E-03 0.  1.
         11   -1    0    0    0    0 -0.00000000000E+00 -0.00000000000E+00 -0.45593999997E+02  0.45594000000E+02  0.51100000000E-03 0. -1.
    9900012    2    1    2    0    0  0.45775087321E+00 -0.26296412245E+02  0.18027898601E+02  0.59302016234E+02  0.50000131686E+02 0.  0.
         12    1    1    2    0    0 -0.45775087321E+00  0.26296412245E+02 -0.18027898601E+02  0.31885983766E+02  0.00000000000E+00 0. -1.
         11    1    3    3    0    0  0.25028899110E+01  0.13309016935E+01  0.43902672250E+01  0.52259165505E+01  0.51100000000E-03 0.  1.
        -11    1    3    3    0    0  0.61373503623E+01  0.83880006437E+01 -0.62508440324E+01  0.12128424285E+02  0.51100000000E-03 0. -1.
         12    1    3    3    0    0 -0.81824894001E+01 -0.36015314582E+02  0.19888475408E+02  0.41947675398E+02  0.00000000000E+00 0. -1.
</event>
<event>
 7    1  0.3223600E-013  0.5930194E+02  0.7816164E-02  0.1266605E+00
        -11   -1    0    0    0    0  0.00000000000E+00  0.00000000000E+00  0.45593999997E+02  0.45594000000E+02  0.51100000000E-03 0.  1.
         11   -1    0    0    0    0 -0.00000000000E+00 -0.00000000000E+00 -0.45593999997E+02  0.45594000000E+02  0.51100000000E-03 0. -1.
    9900012    2    1    2    0    0 -0.30644193857E+02  0.56666379670E+01 -0.67485650824E+01  0.59301944526E+02  0.50000000909E+02 0.  0.
         12    1    1    2    0    0  0.30644193857E+02 -0.56666379670E+01  0.67485650824E+01  0.31886055474E+02  0.00000000000E+00 0. -1.
         11    1    3    3    0    0 -0.18154296516E+02  0.39097992429E+01 -0.18054156287E+02  0.25900146170E+02  0.51100000000E-03 0. -1.
        -11    1    3    3    0    0  0.55986614950E+00  0.13717176676E+02  0.48924372174E+01  0.14574303697E+02  0.51100000000E-03 0.  1.
         12    1    3    3    0    0 -0.13049763491E+02 -0.11960337952E+02  0.64131539875E+01  0.18827494660E+02  0.00000000000E+00 0. -1.
</event>
<event>
 7    1  0.3223600E-013  0.5930198E+02  0.7816164E-02  0.1266605E+00
        -11   -1    0    0    0    0  0.00000000000E+00  0.00000000000E+00  0.45593999997E+02  0.45594000000E+02  0.51100000000E-03 0.  1.
         11   -1    0    0    0    0 -0.00000000000E+00 -0.00000000000E+00 -0.45593999997E+02  0.45594000000E+02  0.51100000000E-03 0. -1.
    9900012    2    1    2    0    0  0.71410277669E+01 -0.29582174452E+02  0.95194013014E+01  0.59301979176E+02  0.50000064102E+02 0.  0.
         12    1    1    2    0    0 -0.71410277669E+01  0.29582174452E+02 -0.95194013014E+01  0.31886020824E+02  0.00000000000E+00 0. -1.
         11    1    3    3    0    0  0.68543844664E+00 -0.24208467905E-01 -0.65900551975E+01  0.66256501327E+01  0.51100000000E-03 0. -1.
        -11    1    3    3    0    0  0.64322536233E+01 -0.17364566041E+02 -0.11979658900E+02  0.22054801475E+02  0.51100000000E-03 0.  1.
        -12    1    3    3    0    0  0.23335696925E-01 -0.12193399943E+02  0.28089115399E+02  0.30621527569E+02  0.00000000000E+00 0.  1.
</event>
<event>
 7    1  0.3223600E-013  0.5930196E+02  0.7816164E-02  0.1266605E+00
        -11   -1    0    0    0    0  0.00000000000E+00  0.00000000000E+00  0.45593999997E+02  0.45594000000E+02  0.51100000000E-03 0. -1.
         11   -1    0    0    0    0 -0.00000000000E+00 -0.00000000000E+00 -0.45593999997E+02  0.45594000000E+02  0.51100000000E-03 0.  1.
    9900012    2    1    2    0    0 -0.89690572199E+01 -0.21767952312E+02 -0.21504229054E+02  0.59301959128E+02  0.50000027539E+02 0.  0.
         12    1    1    2    0    0  0.89690572199E+01  0.21767952312E+02  0.21504229054E+02  0.31886040872E+02  0.00000000000E+00 0. -1.
         11    1    3    3    0    0 -0.60914105226E+01 -0.42150280662E+01  0.12128572940E+02  0.14211756597E+02  0.51100000000E-03 0. -1.
        -11    1    3    3    0    0  0.92792605799E+01 -0.16338067874E+01 -0.68644655796E+01  0.11657396342E+02  0.51100000000E-03 0.  1.
         12    1    3    3    0    0 -0.12156907277E+02 -0.15919117459E+02 -0.26768336415E+02  0.33432806188E+02  0.00000000000E+00 0. -1.
</event>
<event>
 7    1  0.3223600E-013  0.5930194E+02  0.7816164E-02  0.1266605E+00
        -11   -1    0    0    0    0  0.00000000000E+00  0.00000000000E+00  0.45593999997E+02  0.45594000000E+02  0.51100000000E-03 0.  1.
         11   -1    0    0    0    0 -0.00000000000E+00 -0.00000000000E+00 -0.45593999997E+02  0.45594000000E+02  0.51100000000E-03 0. -1.
    9900012    2    1    2    0    0  0.27161470479E+02  0.76249506875E+01 -0.14860526561E+02  0.59301943466E+02  0.49999998976E+02 0.  0.
         12    1    1    2    0    0 -0.27161470479E+02 -0.76249506875E+01  0.14860526561E+02  0.31886056534E+02  0.00000000000E+00 0. -1.
         11    1    3    3    0    0  0.38741802987E+01  0.10199616611E+02 -0.14542778580E+02  0.18180590230E+02  0.51100000000E-03 0. -1.
        -11    1    3    3    0    0  0.19581175730E+02 -0.23915754065E+01 -0.15753979778E+02  0.25245394729E+02  0.51100000000E-03 0.  1.
        -12    1    3    3    0    0  0.37061144504E+01 -0.18309051721E+00  0.15436231797E+02  0.15875958508E+02  0.00000000000E+00 0.  1.
</event>
<event>
 7    1  0.3223600E-013  0.5930194E+02  0.7816164E-02  0.1266605E+00
        -11   -1    0    0    0    0  0.00000000000E+00  0.00000000000E+00  0.45593999997E+02  0.45594000000E+02  0.51100000000E-03 0.  1.
         11   -1    0    0    0    0 -0.00000000000E+00 -0.00000000000E+00 -0.45593999997E+02  0.45594000000E+02  0.51100000000E-03 0. -1.
    9900012    2    1    2    0    0 -0.17200968751E+02  0.26831927523E+02  0.94620428085E+00  0.59301937792E+02  0.49999988628E+02 0.  0.
         12    1    1    2    0    0  0.17200968751E+02 -0.26831927523E+02 -0.94620428085E+00  0.31886062208E+02  0.00000000000E+00 0. -1.
         11    1    3    3    0    0  0.21972966503E+01  0.19416162044E+02 -0.14047093840E+01  0.19590525001E+02  0.51100000000E-03 0. -1.
        -11    1    3    3    0    0  0.89442517529E+01  0.47085335576E+01 -0.34009057870E+01  0.10664712285E+02  0.51100000000E-03 0.  1.
        -12    1    3    3    0    0 -0.28342517154E+02  0.27072319212E+01  0.57518194518E+01  0.29046700506E+02  0.00000000000E+00 0.  1.
</event>
<event>
 7    1  0.3223600E-013  0.5930218E+02  0.7816164E-02  0.1266604E+00
        -11   -1    0    0    0    0  0.00000000000E+00  0.00000000000E+00  0.45593999997E+02  0.45594000000E+02  0.51100000000E-03 0. -1.
         11   -1    0    0    0    0 -0.00000000000E+00 -0.00000000000E+00 -0.45593999997E+02  0.45594000000E+02  0.51100000000E-03 0.  1.
    9900012    2    1    2    0    0 -0.26826130697E+02  0.18265763614E+01 -0.17138482441E+02  0.59302184192E+02  0.50000437999E+02 0.  0.
         12    1    1    2    0    0  0.26826130697E+02 -0.18265763614E+01  0.17138482441E+02  0.31885815808E+02  0.00000000000E+00 0. -1.
         11    1    3    3    0    0 -0.37268290381E+01 -0.17674826189E+02 -0.42604071351E+01  0.18559089544E+02  0.51100000000E-03 0. -1.
        -11    1    3    3    0    0  0.22535622372E+01 -0.20853981215E+01 -0.60031145206E+01  0.67427599905E+01  0.51100000000E-03 0.  1.
        -12    1    3    3    0    0 -0.25352863896E+02  0.21586800672E+02 -0.68749607856E+01  0.34000334657E+02  0.00000000000E+00 0.  1.
</event>
<event>
 7    1  0.3223600E-013  0.5930195E+02  0.7816164E-02  0.1266605E+00
        -11   -1    0    0    0    0  0.00000000000E+00  0.00000000000E+00  0.45593999997E+02  0.45594000000E+02  0.51100000000E-03 0.  1.
         11   -1    0    0    0    0 -0.00000000000E+00 -0.00000000000E+00 -0.45593999997E+02  0.45594000000E+02  0.51100000000E-03 0. -1.
    9900012    2    1    2    0    0  0.92540550466E+01 -0.10303230859E+02 -0.28721530104E+02  0.59301946740E+02  0.50000004947E+02 0.  0.
         12    1    1    2    0    0 -0.92540550466E+01  0.10303230859E+02  0.28721530104E+02  0.31886053260E+02  0.00000000000E+00 0. -1.
         11    1    3    3    0    0  0.23127244440E+01 -0.13311429612E+02  0.27316521488E+01  0.13784222009E+02  0.51100000000E-03 0. -1.
        -11    1    3    3    0    0 -0.11275561358E+02 -0.45107620493E+01 -0.66751351354E+01  0.13857946729E+02  0.51100000000E-03 0.  1.
        -12    1    3    3    0    0  0.18216891960E+02  0.75189608020E+01 -0.24778047118E+02  0.31659778003E+02  0.00000000000E+00 0.  1.
</event>
<event>
 7    1  0.3223600E-013  0.5930191E+02  0.7816164E-02  0.1266605E+00
        -11   -1    0    0    0    0  0.00000000000E+00  0.00000000000E+00  0.45593999997E+02  0.45594000000E+02  0.51100000000E-03 0. -1.
         11   -1    0    0    0    0 -0.00000000000E+00 -0.00000000000E+00 -0.45593999997E+02  0.45594000000E+02  0.51100000000E-03 0.  1.
    9900012    2    1    2    0    0 -0.18186987389E+02 -0.23430093044E+02 -0.11704137487E+02  0.59301912051E+02  0.49999941683E+02 0.  0.
         12    1    1    2    0    0  0.18186987389E+02  0.23430093044E+02  0.11704137487E+02  0.31886087949E+02  0.00000000000E+00 0. -1.
         11    1    3    3    0    0 -0.20277863920E+00 -0.10984526429E+01  0.10377858406E+02  0.10437799708E+02  0.51100000000E-03 0. -1.
        -11    1    3    3    0    0 -0.10914408560E+02  0.71912386736E+01 -0.47473116573E+01  0.13905941037E+02  0.51100000000E-03 0.  1.
         12    1    3    3    0    0 -0.70698001898E+01 -0.29522879075E+02 -0.17334684235E+02  0.34958171307E+02  0.00000000000E+00 0. -1.
</event>
<event>
 7    1  0.3223600E-013  0.5930195E+02  0.7816164E-02  0.1266605E+00
        -11   -1    0    0    0    0  0.00000000000E+00  0.00000000000E+00  0.45593999997E+02  0.45594000000E+02  0.51100000000E-03 0. -1.
         11   -1    0    0    0    0 -0.00000000000E+00 -0.00000000000E+00 -0.45593999997E+02  0.45594000000E+02  0.51100000000E-03 0.  1.
    9900012    2    1    2    0    0  0.16781920423E+02 -0.20094437564E+02 -0.18201674922E+02  0.59301949068E+02  0.50000009192E+02 0.  0.
         12    1    1    2    0    0 -0.16781920423E+02  0.20094437564E+02  0.18201674922E+02  0.31886050932E+02  0.00000000000E+00 0. -1.
         11    1    3    3    0    0  0.48547697324E+01 -0.19330285356E+02 -0.31809096297E+01  0.20182836952E+02  0.51100000000E-03 0. -1.
        -11    1    3    3    0    0  0.85883589622E+01 -0.14223195071E+02 -0.18455850037E+02  0.24832993950E+02  0.51100000000E-03 0.  1.
         12    1    3    3    0    0  0.33387917286E+01  0.13459042864E+02  0.34350847448E+01  0.14286118165E+02  0.00000000000E+00 0. -1.
</event>
<event>
 7    1  0.3223600E-013  0.5930189E+02  0.7816164E-02  0.1266605E+00
        -11   -1    0    0    0    0  0.00000000000E+00  0.00000000000E+00  0.45593999997E+02  0.45594000000E+02  0.51100000000E-03 0. -1.
         11   -1    0    0    0    0 -0.00000000000E+00 -0.00000000000E+00 -0.45593999997E+02  0.45594000000E+02  0.51100000000E-03 0.  1.
    9900012    2    1    2    0    0  0.46194047968E+01  0.26175147531E+02 -0.17613824384E+02  0.59301889255E+02  0.49999900108E+02 0.  0.
         12    1    1    2    0    0 -0.46194047968E+01 -0.26175147531E+02  0.17613824384E+02  0.31886110745E+02  0.00000000000E+00 0. -1.
         11    1    3    3    0    0  0.17358136888E+02  0.11878914366E+01  0.30367795700E+01  0.17661767542E+02  0.51100000000E-03 0. -1.
        -11    1    3    3    0    0 -0.19742677664E+01 -0.12521581451E+01  0.36213280785E+01  0.43104118767E+01  0.51100000000E-03 0.  1.
        -12    1    3    3    0    0 -0.10764464325E+02  0.26239414240E+02 -0.24271932033E+02  0.37329709836E+02  0.00000000000E+00 0.  1.
</event>
<event>
 7    1  0.3223600E-013  0.5930195E+02  0.7816164E-02  0.1266605E+00
        -11   -1    0    0    0    0  0.00000000000E+00  0.00000000000E+00  0.45593999997E+02  0.45594000000E+02  0.51100000000E-03 0. -1.
         11   -1    0    0    0    0 -0.00000000000E+00 -0.00000000000E+00 -0.45593999997E+02  0.45594000000E+02  0.51100000000E-03 0.  1.
    9900012    2    1    2    0    0 -0.28188020887E+02 -0.94799658092E+01 -0.11501556181E+02  0.59301951831E+02  0.50000014231E+02 0.  0.
         12    1    1    2    0    0  0.28188020887E+02  0.94799658092E+01  0.11501556181E+02  0.31886048169E+02  0.00000000000E+00 0. -1.
         11    1    3    3    0    0 -0.13628632881E+02 -0.21240443660E+02 -0.52665733815E+01  0.25780474715E+02  0.51100000000E-03 0.  1.
        -11    1    3    3    0    0  0.74935331738E+01  0.64984189869E+01  0.31004258145E+00  0.99236392226E+01  0.51100000000E-03 0. -1.
        -12    1    3    3    0    0 -0.22052921179E+02  0.52620588635E+01 -0.65450253814E+01  0.23597837894E+02  0.00000000000E+00 0.  1.
</event>
<event>
 7    1  0.3223600E-013  0.5930195E+02  0.7816164E-02  0.1266605E+00
        -11   -1    0    0    0    0  0.00000000000E+00  0.00000000000E+00  0.45593999997E+02  0.45594000000E+02  0.51100000000E-03 0.  1.
         11   -1    0    0    0    0 -0.00000000000E+00 -0.00000000000E+00 -0.45593999997E+02  0.45594000000E+02  0.51100000000E-03 0. -1.
    9900012    2    1    2    0    0 -0.15736198264E+02 -0.18388815131E+02  0.20759188565E+02  0.59301947131E+02  0.50000005659E+02 0.  0.
         12    1    1    2    0    0  0.15736198264E+02  0.18388815131E+02 -0.20759188565E+02  0.31886052869E+02  0.00000000000E+00 0. -1.
         11    1    3    3    0    0 -0.58616705211E+01 -0.63908099016E+01 -0.74485095782E+01  0.11431619644E+02  0.51100000000E-03 0. -1.
        -11    1    3    3    0    0 -0.68685296381E+01 -0.17464467412E+02 -0.21828137682E+00  0.18767844000E+02  0.51100000000E-03 0.  1.
        -12    1    3    3    0    0 -0.30059981047E+01  0.54664621831E+01  0.28425979520E+02  0.29102483486E+02  0.00000000000E+00 0.  1.
</event>
<event>
 7    1  0.3223600E-013  0.5930196E+02  0.7816164E-02  0.1266605E+00
        -11   -1    0    0    0    0  0.00000000000E+00  0.00000000000E+00  0.45593999997E+02  0.45594000000E+02  0.51100000000E-03 0.  1.
         11   -1    0    0    0    0 -0.00000000000E+00 -0.00000000000E+00 -0.45593999997E+02  0.45594000000E+02  0.51100000000E-03 0. -1.
    9900012    2    1    2    0    0  0.27077390054E+02 -0.75897643641E+01  0.15030964509E+02  0.59301961216E+02  0.50000031348E+02 0.  0.
         12    1    1    2    0    0 -0.27077390054E+02  0.75897643641E+01 -0.15030964509E+02  0.31886038784E+02  0.00000000000E+00 0. -1.
         11    1    3    3    0    0  0.97564770811E+01 -0.13030409978E+02  0.66911331165E+01  0.17599763972E+02  0.51100000000E-03 0. -1.
        -11    1    3    3    0    0  0.17075267938E+02  0.11613187068E+02 -0.95677906118E+01  0.22759031317E+02  0.51100000000E-03 0.  1.
         12    1    3    3    0    0  0.24564503540E+00 -0.61725414544E+01  0.17907622005E+02  0.18943165927E+02  0.00000000000E+00 0. -1.
</event>
<event>
 7    1  0.3223600E-013  0.5930167E+02  0.7816164E-02  0.1266606E+00
        -11   -1    0    0    0    0  0.00000000000E+00  0.00000000000E+00  0.45593999997E+02  0.45594000000E+02  0.51100000000E-03 0.  1.
         11   -1    0    0    0    0 -0.00000000000E+00 -0.00000000000E+00 -0.45593999997E+02  0.45594000000E+02  0.51100000000E-03 0. -1.
    9900012    2    1    2    0    0 -0.68881231747E+01  0.29194307612E+02  0.10815926893E+02  0.59301668879E+02  0.49999498193E+02 0.  0.
         12    1    1    2    0    0  0.68881231747E+01 -0.29194307612E+02 -0.10815926893E+02  0.31886331121E+02  0.00000000000E+00 0. -1.
         11    1    3    3    0    0 -0.12562658886E+02  0.22111529871E+02 -0.16033814899E+02  0.30063655333E+02  0.51100000000E-03 0. -1.
        -11    1    3    3    0    0  0.23122443692E+01  0.68192794816E+00  0.14143813417E+01  0.27949909821E+01  0.51100000000E-03 0.  1.
        -12    1    3    3    0    0  0.33622913416E+01  0.64008497921E+01  0.25435360450E+02  0.26443022564E+02  0.00000000000E+00 0.  1.
</event>
<event>
 7    1  0.3223600E-013  0.5930186E+02  0.7816164E-02  0.1266605E+00
        -11   -1    0    0    0    0  0.00000000000E+00  0.00000000000E+00  0.45593999997E+02  0.45594000000E+02  0.51100000000E-03 0. -1.
         11   -1    0    0    0    0 -0.00000000000E+00 -0.00000000000E+00 -0.45593999997E+02  0.45594000000E+02  0.51100000000E-03 0.  1.
    9900012    2    1    2    0    0 -0.16350312406E+02  0.16524449205E+02 -0.21825124034E+02  0.59301856044E+02  0.49999839539E+02 0.  0.
         12    1    1    2    0    0  0.16350312406E+02 -0.16524449205E+02  0.21825124034E+02  0.31886143956E+02  0.00000000000E+00 0. -1.
         11    1    3    3    0    0 -0.33389921151E+01  0.13491013090E+01  0.54801365744E+01  0.65575025598E+01  0.51100000000E-03 0. -1.
        -11    1    3    3    0    0  0.41326285226E+01 -0.74933007603E+01  0.48440611489E+01  0.98332651477E+01  0.51100000000E-03 0.  1.
        -12    1    3    3    0    0 -0.17143948813E+02  0.22668648656E+02 -0.32149321757E+02  0.42911088337E+02  0.00000000000E+00 0.  1.
</event>
<event>
 7    1  0.3223600E-013  0.5930197E+02  0.7816164E-02  0.1266605E+00
        -11   -1    0    0    0    0  0.00000000000E+00  0.00000000000E+00  0.45593999997E+02  0.45594000000E+02  0.51100000000E-03 0.  1.
         11   -1    0    0    0    0 -0.00000000000E+00 -0.00000000000E+00 -0.45593999997E+02  0.45594000000E+02  0.51100000000E-03 0. -1.
    9900012    2    1    2    0    0 -0.11205378569E+01 -0.13182055911E+02  0.29012006089E+02  0.59301973273E+02  0.50000053336E+02 0.  0.
         12    1    1    2    0    0  0.11205378569E+01  0.13182055911E+02 -0.29012006089E+02  0.31886026727E+02  0.00000000000E+00 0. -1.
         11    1    3    3    0    0  0.15485285024E+01 -0.54657966964E+01  0.22759413666E+02  0.23457702034E+02  0.51100000000E-03 0. -1.
        -11    1    3    3    0    0 -0.18321423741E+02 -0.27790180498E+01  0.79479917743E+00  0.18548024564E+02  0.51100000000E-03 0.  1.
         12    1    3    3    0    0  0.15652357382E+02 -0.49372411648E+01  0.54577932459E+01  0.17296246675E+02  0.00000000000E+00 0. -1.
</event>
<event>
 7    1  0.3223600E-013  0.5930194E+02  0.7816164E-02  0.1266605E+00
        -11   -1    0    0    0    0  0.00000000000E+00  0.00000000000E+00  0.45593999997E+02  0.45594000000E+02  0.51100000000E-03 0. -1.
         11   -1    0    0    0    0 -0.00000000000E+00 -0.00000000000E+00 -0.45593999997E+02  0.45594000000E+02  0.51100000000E-03 0.  1.
    9900012    2    1    2    0    0 -0.12618206242E+02  0.12017505471E+01 -0.29258461597E+02  0.59301938654E+02  0.49999990200E+02 0.  0.
         12    1    1    2    0    0  0.12618206242E+02 -0.12017505471E+01  0.29258461597E+02  0.31886061346E+02  0.00000000000E+00 0. -1.
         11    1    3    3    0    0  0.81959985303E+01 -0.21837830601E+01 -0.17237004909E+02  0.19210872933E+02  0.51100000000E-03 0. -1.
        -11    1    3    3    0    0 -0.74627191386E+01 -0.75163697722E+01  0.82907955689E+01  0.13450846922E+02  0.51100000000E-03 0.  1.
         12    1    3    3    0    0 -0.13351485634E+02  0.10901903379E+02 -0.20312252256E+02  0.26640218799E+02  0.00000000000E+00 0. -1.
</event>
<event>
 7    1  0.3223600E-013  0.5930200E+02  0.7816164E-02  0.1266605E+00
        -11   -1    0    0    0    0  0.00000000000E+00  0.00000000000E+00  0.45593999997E+02  0.45594000000E+02  0.51100000000E-03 0. -1.
         11   -1    0    0    0    0 -0.00000000000E+00 -0.00000000000E+00 -0.45593999997E+02  0.45594000000E+02  0.51100000000E-03 0.  1.
    9900012    2    1    2    0    0 -0.24769665904E+02  0.42698441349E+01  0.19620127018E+02  0.59301995199E+02  0.50000093325E+02 0.  0.
         12    1    1    2    0    0  0.24769665904E+02 -0.42698441349E+01 -0.19620127018E+02  0.31886004801E+02  0.00000000000E+00 0. -1.
         11    1    3    3    0    0 -0.37848482801E+01 -0.71813414833E+01 -0.52124283528E+01  0.96470799519E+01  0.51100000000E-03 0. -1.
        -11    1    3    3    0    0 -0.22543969132E+02  0.16150229842E+01 -0.31842196027E+00  0.22603987177E+02  0.51100000000E-03 0.  1.
        -12    1    3    3    0    0  0.15591515082E+01  0.98361626340E+01  0.25150977331E+02  0.27050928071E+02  0.00000000000E+00 0.  1.
</event>
<event>
 7    1  0.3223600E-013  0.5930196E+02  0.7816164E-02  0.1266605E+00
        -11   -1    0    0    0    0  0.00000000000E+00  0.00000000000E+00  0.45593999997E+02  0.45594000000E+02  0.51100000000E-03 0.  1.
         11   -1    0    0    0    0 -0.00000000000E+00 -0.00000000000E+00 -0.45593999997E+02  0.45594000000E+02  0.51100000000E-03 0. -1.
    9900012    2    1    2    0    0 -0.82552043674E+01  0.31083091896E+00  0.30797317168E+02  0.59301956662E+02  0.50000023041E+02 0.  0.
         12    1    1    2    0    0  0.82552043674E+01 -0.31083091896E+00 -0.30797317168E+02  0.31886043338E+02  0.00000000000E+00 0. -1.
         11    1    3    3    0    0  0.14280953906E+01  0.59926442538E+01  0.44113406209E+00  0.61762319516E+01  0.51100000000E-03 0. -1.
        -11    1    3    3    0    0  0.13681581828E+02 -0.48521980363E+01 -0.36372157128E+00  0.14521081253E+02  0.51100000000E-03 0.  1.
         12    1    3    3    0    0 -0.23364881586E+02 -0.82961529857E+00  0.30719904678E+02  0.38604643457E+02  0.00000000000E+00 0. -1.
</event>
<event>
 7    1  0.3223600E-013  0.5930193E+02  0.7816164E-02  0.1266605E+00
        -11   -1    0    0    0    0  0.00000000000E+00  0.00000000000E+00  0.45593999997E+02  0.45594000000E+02  0.51100000000E-03 0.  1.
         11   -1    0    0    0    0 -0.00000000000E+00 -0.00000000000E+00 -0.45593999997E+02  0.45594000000E+02  0.51100000000E-03 0. -1.
    9900012    2    1    2    0    0 -0.30757600962E+02  0.25284745148E+01 -0.80186351601E+01  0.59301926079E+02  0.49999967265E+02 0.  0.
         12    1    1    2    0    0  0.30757600962E+02 -0.25284745148E+01  0.80186351601E+01  0.31886073921E+02  0.00000000000E+00 0. -1.
         11    1    3    3    0    0 -0.19599197250E+02 -0.67296942250E+01 -0.81349057342E+01  0.22261940813E+02  0.51100000000E-03 0. -1.
        -11    1    3    3    0    0 -0.97814666161E+01  0.23806244633E+01  0.16437597862E+02  0.19275349173E+02  0.51100000000E-03 0.  1.
         12    1    3    3    0    0 -0.13769370953E+01  0.68775442764E+01 -0.16321327288E+02  0.17764636092E+02  0.00000000000E+00 0. -1.
</event>
<event>
 7    1  0.3223600E-013  0.5930193E+02  0.7816164E-02  0.1266605E+00
        -11   -1    0    0    0    0  0.00000000000E+00  0.00000000000E+00  0.45593999997E+02  0.45594000000E+02  0.51100000000E-03 0.  1.
         11   -1    0    0    0    0 -0.00000000000E+00 -0.00000000000E+00 -0.45593999997E+02  0.45594000000E+02  0.51100000000E-03 0. -1.
    9900012    2    1    2    0    0 -0.10197007659E+01  0.17819467135E+02  0.26422499444E+02  0.59301926621E+02  0.49999968255E+02 0.  0.
         12    1    1    2    0    0  0.10197007659E+01 -0.17819467135E+02 -0.26422499444E+02  0.31886073379E+02  0.00000000000E+00 0. -1.
         11    1    3    3    0    0 -0.79484344275E+01  0.21894014545E+02  0.22016225126E+02  0.32050579586E+02  0.51100000000E-03 0. -1.
        -11    1    3    3    0    0  0.59117626880E+01  0.69362717246E+01  0.11071568996E+02  0.14340168890E+02  0.51100000000E-03 0.  1.
         12    1    3    3    0    0  0.10169709736E+01 -0.11010819134E+02 -0.66652946771E+01  0.12911178145E+02  0.00000000000E+00 0. -1.
</event>
<event>
 7    1  0.3223600E-013  0.5930193E+02  0.7816164E-02  0.1266605E+00
        -11   -1    0    0    0    0  0.00000000000E+00  0.00000000000E+00  0.45593999997E+02  0.45594000000E+02  0.51100000000E-03 0.  1.
         11   -1    0    0    0    0 -0.00000000000E+00 -0.00000000000E+00 -0.45593999997E+02  0.45594000000E+02  0.51100000000E-03 0. -1.
    9900012    2    1    2    0    0 -0.14577488813E+02 -0.70630056378E+01  0.27465104078E+02  0.59301934537E+02  0.49999982690E+02 0.  0.
         12    1    1    2    0    0  0.14577488813E+02  0.70630056378E+01 -0.27465104078E+02  0.31886065463E+02  0.00000000000E+00 0. -1.
         11    1    3    3    0    0 -0.80764867903E+01  0.78805315261E+01  0.25062516369E+02  0.27485671595E+02  0.51100000000E-03 0. -1.
        -11    1    3    3    0    0 -0.58911386188E+01  0.17199929654E+01  0.11342409813E+02  0.12896284374E+02  0.51100000000E-03 0.  1.
        -12    1    3    3    0    0 -0.60986340382E+00 -0.16663530129E+02 -0.89398221044E+01  0.18919978568E+02  0.00000000000E+00 0.  1.
</event>
<event>
 7    1  0.3223600E-013  0.5930197E+02  0.7816164E-02  0.1266605E+00
        -11   -1    0    0    0    0  0.00000000000E+00  0.00000000000E+00  0.45593999997E+02  0.45594000000E+02  0.51100000000E-03 0.  1.
         11   -1    0    0    0    0 -0.00000000000E+00 -0.00000000000E+00 -0.45593999997E+02  0.45594000000E+02  0.51100000000E-03 0. -1.
    9900012    2    1    2    0    0  0.78826733496E+01 -0.28470966527E+02  0.11999422558E+02  0.59301974599E+02  0.50000055755E+02 0.  0.
         12    1    1    2    0    0 -0.78826733496E+01  0.28470966527E+02 -0.11999422558E+02  0.31886025401E+02  0.00000000000E+00 0. -1.
         11    1    3    3    0    0  0.56313446740E+01  0.23697161359E+01  0.50751918114E+01  0.79426173008E+01  0.51100000000E-03 0. -1.
        -11    1    3    3    0    0 -0.91672547351E+01  0.19373188795E+01  0.13098290675E+02  0.16104564033E+02  0.51100000000E-03 0.  1.
         12    1    3    3    0    0  0.11418583411E+02 -0.32778001543E+02 -0.61740599281E+01  0.35254793266E+02  0.00000000000E+00 0. -1.
</event>
<event>
 7    1  0.3223600E-013  0.5930195E+02  0.7816164E-02  0.1266605E+00
        -11   -1    0    0    0    0  0.00000000000E+00  0.00000000000E+00  0.45593999997E+02  0.45594000000E+02  0.51100000000E-03 0.  1.
         11   -1    0    0    0    0 -0.00000000000E+00 -0.00000000000E+00 -0.45593999997E+02  0.45594000000E+02  0.51100000000E-03 0. -1.
    9900012    2    1    2    0    0 -0.28673014371E+01 -0.31042499216E+02 -0.66979297299E+01  0.59301946030E+02  0.50000003652E+02 0.  0.
         12    1    1    2    0    0  0.28673014371E+01  0.31042499216E+02  0.66979297299E+01  0.31886053970E+02  0.00000000000E+00 0. -1.
         11    1    3    3    0    0  0.12020579683E+02 -0.18526695068E+02 -0.22684471404E+02  0.31659406331E+02  0.51100000000E-03 0. -1.
        -11    1    3    3    0    0 -0.10826878011E+01 -0.47572087799E+01 -0.34868631833E+00  0.48913015303E+01  0.51100000000E-03 0.  1.
        -12    1    3    3    0    0 -0.13805193319E+02 -0.77585953681E+01  0.16335227993E+02  0.22751238169E+02  0.00000000000E+00 0.  1.
</event>
<event>
 7    1  0.3223600E-013  0.5930194E+02  0.7816164E-02  0.1266605E+00
        -11   -1    0    0    0    0  0.00000000000E+00  0.00000000000E+00  0.45593999997E+02  0.45594000000E+02  0.51100000000E-03 0.  1.
         11   -1    0    0    0    0 -0.00000000000E+00 -0.00000000000E+00 -0.45593999997E+02  0.45594000000E+02  0.51100000000E-03 0. -1.
    9900012    2    1    2    0    0 -0.80207670211E+01  0.27755938303E+02  0.13490595329E+02  0.59301937574E+02  0.49999988231E+02 0.  0.
         12    1    1    2    0    0  0.80207670211E+01 -0.27755938303E+02 -0.13490595329E+02  0.31886062426E+02  0.00000000000E+00 0. -1.
         11    1    3    3    0    0  0.13304388492E+02  0.34305433164E+00  0.49924717986E+01  0.14214401652E+02  0.51100000000E-03 0. -1.
        -11    1    3    3    0    0 -0.48637226968E+01  0.36897318756E+01  0.14377585044E+02  0.15620015100E+02  0.51100000000E-03 0.  1.
        -12    1    3    3    0    0 -0.16461432816E+02  0.23723152095E+02 -0.58794615128E+01  0.29467520822E+02  0.00000000000E+00 0.  1.
</event>
<event>
 7    1  0.3223600E-013  0.5930195E+02  0.7816164E-02  0.1266605E+00
        -11   -1    0    0    0    0  0.00000000000E+00  0.00000000000E+00  0.45593999997E+02  0.45594000000E+02  0.51100000000E-03 0.  1.
         11   -1    0    0    0    0 -0.00000000000E+00 -0.00000000000E+00 -0.45593999997E+02  0.45594000000E+02  0.51100000000E-03 0. -1.
    9900012    2    1    2    0    0  0.49792968834E+01  0.10701346384E+02  0.29621072794E+02  0.59301950302E+02  0.50000011442E+02 0.  0.
         12    1    1    2    0    0 -0.49792968834E+01 -0.10701346384E+02 -0.29621072794E+02  0.31886049698E+02  0.00000000000E+00 0. -1.
         11    1    3    3    0    0  0.49612662710E+01 -0.10835824685E+02  0.83822576937E+01  0.14570226625E+02  0.51100000000E-03 0. -1.
        -11    1    3    3    0    0  0.10506285900E+02 -0.33085064958E+01  0.10925999471E+01  0.11068967140E+02  0.51100000000E-03 0.  1.
        -12    1    3    3    0    0 -0.10488255287E+02  0.24845677565E+02  0.20146215153E+02  0.33662756536E+02  0.00000000000E+00 0.  1.
</event>
<event>
 7    1  0.3223600E-013  0.5930193E+02  0.7816164E-02  0.1266605E+00
        -11   -1    0    0    0    0  0.00000000000E+00  0.00000000000E+00  0.45593999997E+02  0.45594000000E+02  0.51100000000E-03 0.  1.
         11   -1    0    0    0    0 -0.00000000000E+00 -0.00000000000E+00 -0.45593999997E+02  0.45594000000E+02  0.51100000000E-03 0. -1.
    9900012    2    1    2    0    0 -0.10993006495E+02  0.19270009736E+02  0.22902877463E+02  0.59301933088E+02  0.49999980048E+02 0.  0.
         12    1    1    2    0    0  0.10993006495E+02 -0.19270009736E+02 -0.22902877463E+02  0.31886066912E+02  0.00000000000E+00 0. -1.
         11    1    3    3    0    0 -0.34088164027E+01  0.14934571486E+01  0.26357798460E+01  0.45604582204E+01  0.51100000000E-03 0. -1.
        -11    1    3    3    0    0 -0.22722310335E+02 -0.35265036169E+01  0.16580548255E+02  0.28348795308E+02  0.51100000000E-03 0.  1.
        -12    1    3    3    0    0  0.15138120242E+02  0.21303056204E+02  0.36865493617E+01  0.26392679559E+02  0.00000000000E+00 0.  1.
</event>
<event>
 7    1  0.3223600E-013  0.5930193E+02  0.7816164E-02  0.1266605E+00
        -11   -1    0    0    0    0  0.00000000000E+00  0.00000000000E+00  0.45593999997E+02  0.45594000000E+02  0.51100000000E-03 0.  1.
         11   -1    0    0    0    0 -0.00000000000E+00 -0.00000000000E+00 -0.45593999997E+02  0.45594000000E+02  0.51100000000E-03 0. -1.
    9900012    2    1    2    0    0  0.31789246632E+02  0.10576137940E+01 -0.22465469003E+01  0.59301925903E+02  0.49999966945E+02 0.  0.
         12    1    1    2    0    0 -0.31789246632E+02 -0.10576137940E+01  0.22465469003E+01  0.31886074097E+02  0.00000000000E+00 0. -1.
         11    1    3    3    0    0 -0.35414582973E+01  0.16552088851E+02 -0.93280866990E+01  0.19326840765E+02  0.51100000000E-03 0. -1.
        -11    1    3    3    0    0  0.20009044608E+02 -0.88544893669E+01  0.11343917390E+00  0.21880966998E+02  0.51100000000E-03 0.  1.
        -12    1    3    3    0    0  0.15321660321E+02 -0.66399856905E+01  0.69681006248E+01  0.18094118141E+02  0.00000000000E+00 0.  1.
</event>
<event>
 7    1  0.3223600E-013  0.5930194E+02  0.7816164E-02  0.1266605E+00
        -11   -1    0    0    0    0  0.00000000000E+00  0.00000000000E+00  0.45593999997E+02  0.45594000000E+02  0.51100000000E-03 0.  1.
         11   -1    0    0    0    0 -0.00000000000E+00 -0.00000000000E+00 -0.45593999997E+02  0.45594000000E+02  0.51100000000E-03 0. -1.
    9900012    2    1    2    0    0 -0.19201347870E+02  0.19843810234E+02 -0.15945296930E+02  0.59301936292E+02  0.49999985892E+02 0.  0.
         12    1    1    2    0    0  0.19201347870E+02 -0.19843810234E+02  0.15945296930E+02  0.31886063708E+02  0.00000000000E+00 0. -1.
         11    1    3    3    0    0 -0.35105841006E+01  0.77609924146E+01 -0.51234019439E+01  0.99401434460E+01  0.51100000000E-03 0.  1.
        -11    1    3    3    0    0  0.12585059367E+02  0.13139408584E+02  0.19864671950E+01  0.18302290277E+02  0.51100000000E-03 0. -1.
         12    1    3    3    0    0 -0.28275823136E+02 -0.10565907649E+01 -0.12808362181E+02  0.31059502569E+02  0.00000000000E+00 0. -1.
</event>
<event>
 7    1  0.3223600E-013  0.5930196E+02  0.7816164E-02  0.1266605E+00
        -11   -1    0    0    0    0  0.00000000000E+00  0.00000000000E+00  0.45593999997E+02  0.45594000000E+02  0.51100000000E-03 0.  1.
         11   -1    0    0    0    0 -0.00000000000E+00 -0.00000000000E+00 -0.45593999997E+02  0.45594000000E+02  0.51100000000E-03 0. -1.
    9900012    2    1    2    0    0 -0.13550607680E+02  0.28856217133E+02  0.64778607577E+00  0.59301955050E+02  0.50000020102E+02 0.  0.
         12    1    1    2    0    0  0.13550607680E+02 -0.28856217133E+02 -0.64778607577E+00  0.31886044950E+02  0.00000000000E+00 0. -1.
         11    1    3    3    0    0  0.61599582877E+01  0.25336158423E+01 -0.47587828645E+01  0.81859825284E+01  0.51100000000E-03 0. -1.
        -11    1    3    3    0    0 -0.19079899179E+02  0.29987233244E+01 -0.11338793770E+02  0.22396498357E+02  0.51100000000E-03 0.  1.
        -12    1    3    3    0    0 -0.63066678894E+00  0.23323877967E+02  0.16745362710E+02  0.28719474165E+02  0.00000000000E+00 0.  1.
</event>
<event>
 7    1  0.3223600E-013  0.5930194E+02  0.7816164E-02  0.1266605E+00
        -11   -1    0    0    0    0  0.00000000000E+00  0.00000000000E+00  0.45593999997E+02  0.45594000000E+02  0.51100000000E-03 0. -1.
         11   -1    0    0    0    0 -0.00000000000E+00 -0.00000000000E+00 -0.45593999997E+02  0.45594000000E+02  0.51100000000E-03 0.  1.
    9900012    2    1    2    0    0  0.23956299610E+02  0.11502925435E+01 -0.21011739768E+02  0.59301942357E+02  0.49999996953E+02 0.  0.
         12    1    1    2    0    0 -0.23956299610E+02 -0.11502925435E+01  0.21011739768E+02  0.31886057643E+02  0.00000000000E+00 0. -1.
         11    1    3    3    0    0  0.26448773904E+01 -0.20294878857E+02 -0.10073583455E+02  0.22811281597E+02  0.51100000000E-03 0. -1.
        -11    1    3    3    0    0  0.36352786218E+00 -0.12525495483E+01  0.24901201508E+01  0.28110018683E+01  0.51100000000E-03 0.  1.
        -12    1    3    3    0    0  0.20947894357E+02  0.22697720949E+02 -0.13428276464E+02  0.33679658891E+02  0.00000000000E+00 0.  1.
</event>
<event>
 7    1  0.3223600E-013  0.5930188E+02  0.7816164E-02  0.1266605E+00
        -11   -1    0    0    0    0  0.00000000000E+00  0.00000000000E+00  0.45593999997E+02  0.45594000000E+02  0.51100000000E-03 0. -1.
         11   -1    0    0    0    0 -0.00000000000E+00 -0.00000000000E+00 -0.45593999997E+02  0.45594000000E+02  0.51100000000E-03 0.  1.
    9900012    2    1    2    0    0  0.27714685145E+02 -0.29795100768E+01 -0.15483644756E+02  0.59301882207E+02  0.49999887253E+02 0.  0.
         12    1    1    2    0    0 -0.27714685145E+02  0.29795100768E+01  0.15483644756E+02  0.31886117793E+02  0.00000000000E+00 0. -1.
         11    1    3    3    0    0  0.23871848727E+01  0.54850766601E+01  0.78573930775E+01  0.98753908185E+01  0.51100000000E-03 0. -1.
        -11    1    3    3    0    0 -0.84339528933E+00 -0.15822453878E+02 -0.49333831597E+01  0.16595168936E+02  0.51100000000E-03 0.  1.
        -12    1    3    3    0    0  0.26170895562E+02  0.73578671413E+01 -0.18407654674E+02  0.32831322452E+02  0.00000000000E+00 0.  1.
</event>
<event>
 7    1  0.3223600E-013  0.5930193E+02  0.7816164E-02  0.1266605E+00
        -11   -1    0    0    0    0  0.00000000000E+00  0.00000000000E+00  0.45593999997E+02  0.45594000000E+02  0.51100000000E-03 0.  1.
         11   -1    0    0    0    0 -0.00000000000E+00 -0.00000000000E+00 -0.45593999997E+02  0.45594000000E+02  0.51100000000E-03 0. -1.
    9900012    2    1    2    0    0 -0.56324306405E+01 -0.71922886612E+01  0.30549435589E+02  0.59301932417E+02  0.49999978824E+02 0.  0.
         12    1    1    2    0    0  0.56324306405E+01  0.71922886612E+01 -0.30549435589E+02  0.31886067583E+02  0.00000000000E+00 0. -1.
         11    1    3    3    0    0 -0.67561270745E-01 -0.43730301890E+00  0.20056754513E+00  0.48582512999E+00  0.51100000000E-03 0. -1.
        -11    1    3    3    0    0  0.20871986501E+02 -0.75791388444E+01  0.63350634940E+01  0.23091474527E+02  0.51100000000E-03 0.  1.
        -12    1    3    3    0    0 -0.26436855871E+02  0.82415320208E+00  0.24013804550E+02  0.35724632759E+02  0.00000000000E+00 0.  1.
</event>
<event>
 7    1  0.3223600E-013  0.5930194E+02  0.7816164E-02  0.1266605E+00
        -11   -1    0    0    0    0  0.00000000000E+00  0.00000000000E+00  0.45593999997E+02  0.45594000000E+02  0.51100000000E-03 0.  1.
         11   -1    0    0    0    0 -0.00000000000E+00 -0.00000000000E+00 -0.45593999997E+02  0.45594000000E+02  0.51100000000E-03 0. -1.
    9900012    2    1    2    0    0  0.27631311906E+02 -0.11896588385E+02  0.10568940885E+02  0.59301941537E+02  0.49999995458E+02 0.  0.
         12    1    1    2    0    0 -0.27631311906E+02  0.11896588385E+02 -0.10568940885E+02  0.31886058463E+02  0.00000000000E+00 0. -1.
         11    1    3    3    0    0  0.22165586721E+02 -0.23652673311E+01  0.25126849800E+02  0.33589675577E+02  0.51100000000E-03 0. -1.
        -11    1    3    3    0    0  0.84167016197E+01  0.13017283411E+01 -0.17771991760E+01  0.87002183882E+01  0.51100000000E-03 0.  1.
         12    1    3    3    0    0 -0.29509764344E+01 -0.10833049395E+02 -0.12780709740E+02  0.17012047571E+02  0.00000000000E+00 0. -1.
</event>
<event>
 7    1  0.3223600E-013  0.5930199E+02  0.7816164E-02  0.1266605E+00
        -11   -1    0    0    0    0  0.00000000000E+00  0.00000000000E+00  0.45593999997E+02  0.45594000000E+02  0.51100000000E-03 0.  1.
         11   -1    0    0    0    0 -0.00000000000E+00 -0.00000000000E+00 -0.45593999997E+02  0.45594000000E+02  0.51100000000E-03 0. -1.
    9900012    2    1    2    0    0  0.16250359544E+02 -0.74997421337E+01  0.26389346697E+02  0.59301985252E+02  0.50000075184E+02 0.  0.
         12    1    1    2    0    0 -0.16250359544E+02  0.74997421337E+01 -0.26389346697E+02  0.31886014748E+02  0.00000000000E+00 0. -1.
         11    1    3    3    0    0  0.70440012077E+00 -0.11908448766E+02  0.78672929061E+01  0.14289913558E+02  0.51100000000E-03 0. -1.
        -11    1    3    3    0    0 -0.12065056703E+02  0.48976042367E+01  0.31114194012E+01  0.13387794870E+02  0.51100000000E-03 0.  1.
         12    1    3    3    0    0  0.27611016126E+02 -0.48889760392E+00  0.15410634390E+02  0.31624276825E+02  0.00000000000E+00 0. -1.
</event>
<event>
 7    1  0.3223600E-013  0.5930191E+02  0.7816164E-02  0.1266605E+00
        -11   -1    0    0    0    0  0.00000000000E+00  0.00000000000E+00  0.45593999997E+02  0.45594000000E+02  0.51100000000E-03 0. -1.
         11   -1    0    0    0    0 -0.00000000000E+00 -0.00000000000E+00 -0.45593999997E+02  0.45594000000E+02  0.51100000000E-03 0.  1.
    9900012    2    1    2    0    0 -0.23639173886E+02  0.20541288571E+02 -0.59972902174E+01  0.59301912625E+02  0.49999942729E+02 0.  0.
         12    1    1    2    0    0  0.23639173886E+02 -0.20541288571E+02  0.59972902174E+01  0.31886087375E+02  0.00000000000E+00 0. -1.
         11    1    3    3    0    0  0.38276443713E+01 -0.22553892388E+01 -0.57984441658E+01  0.73047653663E+01  0.51100000000E-03 0. -1.
        -11    1    3    3    0    0 -0.67150899825E+01 -0.10138878571E+02  0.40977493588E+01  0.12832803365E+02  0.51100000000E-03 0.  1.
        -12    1    3    3    0    0 -0.20751728274E+02  0.32935556380E+02 -0.42965954105E+01  0.39164343893E+02  0.00000000000E+00 0.  1.
</event>
<event>
 7    1  0.3223600E-013  0.5930200E+02  0.7816164E-02  0.1266605E+00
        -11   -1    0    0    0    0  0.00000000000E+00  0.00000000000E+00  0.45593999997E+02  0.45594000000E+02  0.51100000000E-03 0.  1.
         11   -1    0    0    0    0 -0.00000000000E+00 -0.00000000000E+00 -0.45593999997E+02  0.45594000000E+02  0.51100000000E-03 0. -1.
    9900012    2    1    2    0    0 -0.29748668588E+01 -0.31150512994E+02  0.61247798890E+01  0.59301996467E+02  0.50000095636E+02 0.  0.
         12    1    1    2    0    0  0.29748668588E+01  0.31150512994E+02 -0.61247798890E+01  0.31886003533E+02  0.00000000000E+00 0. -1.
         11    1    3    3    0    0  0.18988913947E+01  0.45780875392E+01  0.31040467244E+01  0.58480578292E+01  0.51100000000E-03 0.  1.
        -11    1    3    3    0    0 -0.55636704683E+00 -0.20407030739E+01  0.16704256933E+02  0.16837642746E+02  0.51100000000E-03 0. -1.
         12    1    3    3    0    0 -0.43173912066E+01 -0.33687897460E+02 -0.13683523768E+02  0.36616295891E+02  0.00000000000E+00 0. -1.
</event>
<event>
 7    1  0.3223600E-013  0.5930194E+02  0.7816164E-02  0.1266605E+00
        -11   -1    0    0    0    0  0.00000000000E+00  0.00000000000E+00  0.45593999997E+02  0.45594000000E+02  0.51100000000E-03 0. -1.
         11   -1    0    0    0    0 -0.00000000000E+00 -0.00000000000E+00 -0.45593999997E+02  0.45594000000E+02  0.51100000000E-03 0.  1.
    9900012    2    1    2    0    0 -0.23895183142E+02 -0.17734520713E+02  0.11455468649E+02  0.59301940910E+02  0.49999994314E+02 0.  0.
         12    1    1    2    0    0  0.23895183142E+02  0.17734520713E+02 -0.11455468649E+02  0.31886059090E+02  0.00000000000E+00 0. -1.
         11    1    3    3    0    0 -0.96191437756E+01  0.11947044811E+02  0.71914665882E+01  0.16940395469E+02  0.51100000000E-03 0. -1.
        -11    1    3    3    0    0  0.23120743793E+01 -0.11656744278E+02  0.11785314038E+02  0.16736756028E+02  0.51100000000E-03 0.  1.
        -12    1    3    3    0    0 -0.16588113746E+02 -0.18024821246E+02 -0.75213119774E+01  0.25624789413E+02  0.00000000000E+00 0.  1.
</event>
<event>
 7    1  0.3223600E-013  0.5930200E+02  0.7816164E-02  0.1266605E+00
        -11   -1    0    0    0    0  0.00000000000E+00  0.00000000000E+00  0.45593999997E+02  0.45594000000E+02  0.51100000000E-03 0. -1.
         11   -1    0    0    0    0 -0.00000000000E+00 -0.00000000000E+00 -0.45593999997E+02  0.45594000000E+02  0.51100000000E-03 0.  1.
    9900012    2    1    2    0    0  0.25992687536E+02 -0.55834432888E+01 -0.17604616111E+02  0.59301997542E+02  0.50000097597E+02 0.  0.
         12    1    1    2    0    0 -0.25992687536E+02  0.55834432888E+01  0.17604616111E+02  0.31886002458E+02  0.00000000000E+00 0. -1.
         11    1    3    3    0    0  0.95196597510E+01 -0.14380807448E+00 -0.15867595162E+02  0.18504733963E+02  0.51100000000E-03 0.  1.
        -11    1    3    3    0    0  0.24921445376E+02  0.57719305504E+01  0.34885487615E+01  0.25817892916E+02  0.51100000000E-03 0. -1.
         12    1    3    3    0    0 -0.84484175901E+01 -0.11211565765E+02 -0.52255697108E+01  0.14979370664E+02  0.00000000000E+00 0. -1.
</event>
<event>
 7    1  0.3223600E-013  0.5930193E+02  0.7816164E-02  0.1266605E+00
        -11   -1    0    0    0    0  0.00000000000E+00  0.00000000000E+00  0.45593999997E+02  0.45594000000E+02  0.51100000000E-03 0. -1.
         11   -1    0    0    0    0 -0.00000000000E+00 -0.00000000000E+00 -0.45593999997E+02  0.45594000000E+02  0.51100000000E-03 0.  1.
    9900012    2    1    2    0    0  0.27842423099E+01  0.25780292068E+02 -0.18556557514E+02  0.59301932649E+02  0.49999979249E+02 0.  0.
         12    1    1    2    0    0 -0.27842423099E+01 -0.25780292068E+02  0.18556557514E+02  0.31886067351E+02  0.00000000000E+00 0. -1.
         11    1    3    3    0    0 -0.23524081071E+01  0.17020899322E+02  0.16537228002E+01  0.17262086692E+02  0.51100000000E-03 0. -1.
        -11    1    3    3    0    0  0.25744076316E+01  0.14274104948E+02 -0.28370441628E+02  0.31863138658E+02  0.51100000000E-03 0.  1.
         12    1    3    3    0    0  0.25622427854E+01 -0.55147122016E+01  0.81601613147E+01  0.10176707299E+02  0.00000000000E+00 0. -1.
</event>
<event>
 7    1  0.3223600E-013  0.5930195E+02  0.7816164E-02  0.1266605E+00
        -11   -1    0    0    0    0  0.00000000000E+00  0.00000000000E+00  0.45593999997E+02  0.45594000000E+02  0.51100000000E-03 0. -1.
         11   -1    0    0    0    0 -0.00000000000E+00 -0.00000000000E+00 -0.45593999997E+02  0.45594000000E+02  0.51100000000E-03 0.  1.
    9900012    2    1    2    0    0 -0.86051480583E+01 -0.30317196705E+02 -0.48517173286E+01  0.59301950540E+02  0.50000011876E+02 0.  0.
         12    1    1    2    0    0  0.86051480583E+01  0.30317196705E+02  0.48517173286E+01  0.31886049460E+02  0.00000000000E+00 0. -1.
         11    1    3    3    0    0  0.52355451928E+01 -0.78825775056E+01 -0.78847867067E+01  0.12317297726E+02  0.51100000000E-03 0. -1.
        -11    1    3    3    0    0  0.10101540466E+02 -0.95842618949E+01  0.11988087093E+02  0.18374259938E+02  0.51100000000E-03 0.  1.
         12    1    3    3    0    0 -0.23942233717E+02 -0.12850357304E+02 -0.89550177149E+01  0.28610392876E+02  0.00000000000E+00 0. -1.
</event>
<event>
 7    1  0.3223600E-013  0.5930197E+02  0.7816164E-02  0.1266605E+00
        -11   -1    0    0    0    0  0.00000000000E+00  0.00000000000E+00  0.45593999997E+02  0.45594000000E+02  0.51100000000E-03 0.  1.
         11   -1    0    0    0    0 -0.00000000000E+00 -0.00000000000E+00 -0.45593999997E+02  0.45594000000E+02  0.51100000000E-03 0. -1.
    9900012    2    1    2    0    0 -0.22503158759E+02  0.62464751966E+01  0.21709636061E+02  0.59301970075E+02  0.50000047504E+02 0.  0.
         12    1    1    2    0    0  0.22503158759E+02 -0.62464751966E+01 -0.21709636061E+02  0.31886029925E+02  0.00000000000E+00 0. -1.
         11    1    3    3    0    0 -0.56834563271E+01 -0.63817270026E+01 -0.83706912778E+01  0.11962298612E+02  0.51100000000E-03 0. -1.
        -11    1    3    3    0    0  0.64841633382E+01 -0.24764045361E+01  0.80429613505E+00  0.69874062539E+01  0.51100000000E-03 0.  1.
        -12    1    3    3    0    0 -0.23303865770E+02  0.15104606735E+02  0.29276031204E+02  0.40352265209E+02  0.00000000000E+00 0.  1.
</event>
<event>
 7    1  0.3223600E-013  0.5930188E+02  0.7816164E-02  0.1266605E+00
        -11   -1    0    0    0    0  0.00000000000E+00  0.00000000000E+00  0.45593999997E+02  0.45594000000E+02  0.51100000000E-03 0. -1.
         11   -1    0    0    0    0 -0.00000000000E+00 -0.00000000000E+00 -0.45593999997E+02  0.45594000000E+02  0.51100000000E-03 0.  1.
    9900012    2    1    2    0    0 -0.36120338908E+01  0.17882114902E+02 -0.26151628206E+02  0.59301882644E+02  0.49999888051E+02 0.  0.
         12    1    1    2    0    0  0.36120338908E+01 -0.17882114902E+02  0.26151628206E+02  0.31886117356E+02  0.00000000000E+00 0. -1.
         11    1    3    3    0    0 -0.21490158749E+01  0.18997663387E+02 -0.97129162891E+01  0.21444585015E+02  0.51100000000E-03 0. -1.
        -11    1    3    3    0    0  0.85032545501E+01  0.92186569904E+01 -0.19493044314E+02  0.23179036899E+02  0.51100000000E-03 0.  1.
        -12    1    3    3    0    0 -0.99662725660E+01 -0.10334205475E+02  0.30543323973E+01  0.14678260730E+02  0.00000000000E+00 0.  1.
</event>
<event>
 7    1  0.3223600E-013  0.5930198E+02  0.7816164E-02  0.1266605E+00
        -11   -1    0    0    0    0  0.00000000000E+00  0.00000000000E+00  0.45593999997E+02  0.45594000000E+02  0.51100000000E-03 0.  1.
         11   -1    0    0    0    0 -0.00000000000E+00 -0.00000000000E+00 -0.45593999997E+02  0.45594000000E+02  0.51100000000E-03 0. -1.
    9900012    2    1    2    0    0  0.19190918805E+02  0.25243949340E+02 -0.33421533661E+01  0.59301979051E+02  0.50000063874E+02 0.  0.
         12    1    1    2    0    0 -0.19190918805E+02 -0.25243949340E+02  0.33421533661E+01  0.31886020949E+02  0.00000000000E+00 0. -1.
         11    1    3    3    0    0  0.75270085659E+01  0.17654684983E+02 -0.13407366996E+02  0.23411562311E+02  0.51100000000E-03 0. -1.
        -11    1    3    3    0    0  0.12373250421E+02  0.70535073921E+01 -0.89717216455E+01  0.16832738400E+02  0.51100000000E-03 0.  1.
        -12    1    3    3    0    0 -0.70934018210E+00  0.53575696506E+00  0.19036935276E+02  0.19057678340E+02  0.00000000000E+00 0.  1.
</event>
<event>
 7    1  0.3223600E-013  0.5930195E+02  0.7816164E-02  0.1266605E+00
        -11   -1    0    0    0    0  0.00000000000E+00  0.00000000000E+00  0.45593999997E+02  0.45594000000E+02  0.51100000000E-03 0.  1.
         11   -1    0    0    0    0 -0.00000000000E+00 -0.00000000000E+00 -0.45593999997E+02  0.45594000000E+02  0.51100000000E-03 0. -1.
    9900012    2    1    2    0    0  0.18649779118E+02  0.24038835795E+02  0.95414973057E+01  0.59301951980E+02  0.50000014502E+02 0.  0.
         12    1    1    2    0    0 -0.18649779118E+02 -0.24038835795E+02 -0.95414973057E+01  0.31886048020E+02  0.00000000000E+00 0. -1.
         11    1    3    3    0    0  0.57295434652E+01 -0.54181701327E+01 -0.48237415467E+01  0.92440639698E+01  0.51100000000E-03 0. -1.
        -11    1    3    3    0    0  0.46389694679E+01 -0.48439706837E+01  0.13136939973E+02  0.14750026502E+02  0.51100000000E-03 0.  1.
        -12    1    3    3    0    0  0.82812661848E+01  0.34300976611E+02  0.12282988799E+01  0.35307861508E+02  0.00000000000E+00 0.  1.
</event>
<event>
 7    1  0.3223600E-013  0.5930195E+02  0.7816164E-02  0.1266605E+00
        -11   -1    0    0    0    0  0.00000000000E+00  0.00000000000E+00  0.45593999997E+02  0.45594000000E+02  0.51100000000E-03 0.  1.
         11   -1    0    0    0    0 -0.00000000000E+00 -0.00000000000E+00 -0.45593999997E+02  0.45594000000E+02  0.51100000000E-03 0. -1.
    9900012    2    1    2    0    0  0.12655501362E+02 -0.10086418731E+01  0.29249630554E+02  0.59301953511E+02  0.50000017296E+02 0.  0.
         12    1    1    2    0    0 -0.12655501362E+02  0.10086418731E+01 -0.29249630554E+02  0.31886046489E+02  0.00000000000E+00 0. -1.
         11    1    3    3    0    0 -0.37742237455E+01 -0.68555703141E+01 -0.60859117679E+01  0.99137244021E+01  0.51100000000E-03 0. -1.
        -11    1    3    3    0    0 -0.79767365950E+01  0.30989683982E+01  0.36629254915E+01  0.93085420586E+01  0.51100000000E-03 0.  1.
         12    1    3    3    0    0  0.24406461702E+02  0.27479600429E+01  0.31672616830E+02  0.40079687051E+02  0.00000000000E+00 0. -1.
</event>
<event>
 7    1  0.3223600E-013  0.5930195E+02  0.7816164E-02  0.1266605E+00
        -11   -1    0    0    0    0  0.00000000000E+00  0.00000000000E+00  0.45593999997E+02  0.45594000000E+02  0.51100000000E-03 0.  1.
         11   -1    0    0    0    0 -0.00000000000E+00 -0.00000000000E+00 -0.45593999997E+02  0.45594000000E+02  0.51100000000E-03 0. -1.
    9900012    2    1    2    0    0 -0.41265559356E+01 -0.30093527447E+02  0.96990422626E+01  0.59301948521E+02  0.50000008195E+02 0.  0.
         12    1    1    2    0    0  0.41265559356E+01  0.30093527447E+02 -0.96990422626E+01  0.31886051479E+02  0.00000000000E+00 0. -1.
         11    1    3    3    0    0  0.40491074758E+01 -0.23534983120E+01 -0.71885742736E+01  0.85796168914E+01  0.51100000000E-03 0. -1.
        -11    1    3    3    0    0 -0.94718661644E+00  0.29496107076E+01  0.18877652737E+02  0.19130163066E+02  0.51100000000E-03 0.  1.
         12    1    3    3    0    0 -0.72284767950E+01 -0.30689639843E+02 -0.19900362013E+01  0.31592168563E+02  0.00000000000E+00 0. -1.
</event>
<event>
 7    1  0.3223600E-013  0.5930195E+02  0.7816164E-02  0.1266605E+00
        -11   -1    0    0    0    0  0.00000000000E+00  0.00000000000E+00  0.45593999997E+02  0.45594000000E+02  0.51100000000E-03 0.  1.
         11   -1    0    0    0    0 -0.00000000000E+00 -0.00000000000E+00 -0.45593999997E+02  0.45594000000E+02  0.51100000000E-03 0. -1.
    9900012    2    1    2    0    0 -0.19757055329E+02 -0.67670590782E+01  0.24095343131E+02  0.59301954706E+02  0.50000019475E+02 0.  0.
         12    1    1    2    0    0  0.19757055329E+02  0.67670590782E+01 -0.24095343131E+02  0.31886045294E+02  0.00000000000E+00 0. -1.
         11    1    3    3    0    0 -0.45509556298E+01  0.78430234179E+01  0.50855247079E+01  0.10396478985E+02  0.51100000000E-03 0. -1.
        -11    1    3    3    0    0  0.73425535545E+01  0.93410852731E+01  0.26799690430E+01  0.12179950784E+02  0.51100000000E-03 0.  1.
         12    1    3    3    0    0 -0.22548653254E+02 -0.23951167769E+02  0.16329849381E+02  0.36725524936E+02  0.00000000000E+00 0. -1.
</event>
<event>
 7    1  0.3223600E-013  0.5930195E+02  0.7816164E-02  0.1266605E+00
        -11   -1    0    0    0    0  0.00000000000E+00  0.00000000000E+00  0.45593999997E+02  0.45594000000E+02  0.51100000000E-03 0.  1.
         11   -1    0    0    0    0 -0.00000000000E+00 -0.00000000000E+00 -0.45593999997E+02  0.45594000000E+02  0.51100000000E-03 0. -1.
    9900012    2    1    2    0    0  0.30664235099E+02  0.78963476028E+01  0.37513357580E+01  0.59301950705E+02  0.50000012178E+02 0.  0.
         12    1    1    2    0    0 -0.30664235099E+02 -0.78963476028E+01 -0.37513357580E+01  0.31886049295E+02  0.00000000000E+00 0. -1.
         11    1    3    3    0    0  0.46206719729E+01  0.47073236214E+01 -0.12304598829E+00  0.65973211029E+01  0.51100000000E-03 0. -1.
        -11    1    3    3    0    0 -0.22900294347E+01  0.18094422056E+02 -0.60017666262E+01  0.19200873606E+02  0.51100000000E-03 0.  1.
        -12    1    3    3    0    0  0.28333592561E+02 -0.14905398074E+02  0.98761483725E+01  0.33503755996E+02  0.00000000000E+00 0.  1.
</event>
<event>
 7    1  0.3223600E-013  0.5930198E+02  0.7816164E-02  0.1266605E+00
        -11   -1    0    0    0    0  0.00000000000E+00  0.00000000000E+00  0.45593999997E+02  0.45594000000E+02  0.51100000000E-03 0.  1.
         11   -1    0    0    0    0 -0.00000000000E+00 -0.00000000000E+00 -0.45593999997E+02  0.45594000000E+02  0.51100000000E-03 0. -1.
    9900012    2    1    2    0    0  0.26921723475E+02  0.17085475449E+02  0.16048952237E+00  0.59301977622E+02  0.50000061268E+02 0.  0.
         12    1    1    2    0    0 -0.26921723475E+02 -0.17085475449E+02 -0.16048952237E+00  0.31886022378E+02  0.00000000000E+00 0. -1.
         11    1    3    3    0    0  0.63259464652E+01  0.38008212068E+01 -0.66873848658E+01  0.99591644796E+01  0.51100000000E-03 0. -1.
        -11    1    3    3    0    0  0.29077060140E+02  0.30702240600E+01 -0.70979055901E+01  0.30087903984E+02  0.51100000000E-03 0.  1.
        -12    1    3    3    0    0 -0.84812831298E+01  0.10214430183E+02  0.13945779978E+02  0.19254909158E+02  0.00000000000E+00 0.  1.
</event>
<event>
 7    1  0.3223600E-013  0.5930194E+02  0.7816164E-02  0.1266605E+00
        -11   -1    0    0    0    0  0.00000000000E+00  0.00000000000E+00  0.45593999997E+02  0.45594000000E+02  0.51100000000E-03 0. -1.
         11   -1    0    0    0    0 -0.00000000000E+00 -0.00000000000E+00 -0.45593999997E+02  0.45594000000E+02  0.51100000000E-03 0.  1.
    9900012    2    1    2    0    0 -0.55169108904E+01  0.10629310021E+02 -0.29551686375E+02  0.59301941842E+02  0.49999996013E+02 0.  0.
         12    1    1    2    0    0  0.55169108904E+01 -0.10629310021E+02  0.29551686375E+02  0.31886058158E+02  0.00000000000E+00 0. -1.
         11    1    3    3    0    0  0.92559267916E+01  0.79329556295E+00 -0.20186311501E+02  0.22221356189E+02  0.51100000000E-03 0. -1.
        -11    1    3    3    0    0 -0.26806647795E+01 -0.10176834410E+02 -0.87561476815E+01  0.13690290163E+02  0.51100000000E-03 0.  1.
         12    1    3    3    0    0 -0.12092172902E+02  0.20012848868E+02 -0.60922719242E+00  0.23390295489E+02  0.00000000000E+00 0. -1.
</event>
<event>
 7    1  0.3223600E-013  0.5930198E+02  0.7816164E-02  0.1266605E+00
        -11   -1    0    0    0    0  0.00000000000E+00  0.00000000000E+00  0.45593999997E+02  0.45594000000E+02  0.51100000000E-03 0.  1.
         11   -1    0    0    0    0 -0.00000000000E+00 -0.00000000000E+00 -0.45593999997E+02  0.45594000000E+02  0.51100000000E-03 0. -1.
    9900012    2    1    2    0    0 -0.27578071960E+02 -0.45584065617E+01 -0.15342388365E+02  0.59301984191E+02  0.50000073249E+02 0.  0.
         12    1    1    2    0    0  0.27578071960E+02  0.45584065617E+01  0.15342388365E+02  0.31886015809E+02  0.00000000000E+00 0. -1.
         11    1    3    3    0    0 -0.97224131905E+01  0.47500533591E+01 -0.13872108939E+02  0.17593286556E+02  0.51100000000E-03 0. -1.
        -11    1    3    3    0    0 -0.12857412573E+02 -0.17841071541E+02 -0.13754759728E+02  0.25938587225E+02  0.51100000000E-03 0.  1.
        -12    1    3    3    0    0 -0.49982461963E+01  0.85326116199E+01  0.12284480301E+02  0.15770110411E+02  0.00000000000E+00 0.  1.
</event>
<event>
 7    1  0.3223600E-013  0.5930174E+02  0.7816164E-02  0.1266605E+00
        -11   -1    0    0    0    0  0.00000000000E+00  0.00000000000E+00  0.45593999997E+02  0.45594000000E+02  0.51100000000E-03 0. -1.
         11   -1    0    0    0    0 -0.00000000000E+00 -0.00000000000E+00 -0.45593999997E+02  0.45594000000E+02  0.51100000000E-03 0.  1.
    9900012    2    1    2    0    0 -0.16119579946E+02 -0.27510804432E+02  0.21967606407E+00  0.59301741585E+02  0.49999630792E+02 0.  0.
         12    1    1    2    0    0  0.16119579946E+02  0.27510804432E+02 -0.21967606407E+00  0.31886258415E+02  0.00000000000E+00 0. -1.
         11    1    3    3    0    0 -0.29425594156E+02 -0.17219409227E+02 -0.11536109067E+02  0.35992436125E+02  0.51100000000E-03 0.  1.
        -11    1    3    3    0    0  0.40679331555E+01  0.20201965199E+01  0.13813922900E+01  0.47473696988E+01  0.51100000000E-03 0. -1.
        -12    1    3    3    0    0  0.92380810551E+01 -0.12311591725E+02  0.10374392841E+02  0.18561935761E+02  0.00000000000E+00 0.  1.
</event>
<event>
 7    1  0.3223600E-013  0.5930195E+02  0.7816164E-02  0.1266605E+00
        -11   -1    0    0    0    0  0.00000000000E+00  0.00000000000E+00  0.45593999997E+02  0.45594000000E+02  0.51100000000E-03 0. -1.
         11   -1    0    0    0    0 -0.00000000000E+00 -0.00000000000E+00 -0.45593999997E+02  0.45594000000E+02  0.51100000000E-03 0.  1.
    9900012    2    1    2    0    0  0.14537748641E+02 -0.12329855323E+02 -0.25560691694E+02  0.59301946188E+02  0.50000003940E+02 0.  0.
         12    1    1    2    0    0 -0.14537748641E+02  0.12329855323E+02  0.25560691694E+02  0.31886053812E+02  0.00000000000E+00 0. -1.
         11    1    3    3    0    0  0.35955013102E+01  0.73006933673E+01  0.44784953603E+01  0.92889544228E+01  0.51100000000E-03 0. -1.
        -11    1    3    3    0    0  0.53751479111E+01  0.80965402450E+00 -0.28232823882E+02  0.28751349522E+02  0.51100000000E-03 0.  1.
         12    1    3    3    0    0  0.55670994196E+01 -0.20440202715E+02 -0.18063631722E+01  0.21261642243E+02  0.00000000000E+00 0. -1.
</event>
<event>
 7    1  0.3223600E-013  0.5930192E+02  0.7816164E-02  0.1266605E+00
        -11   -1    0    0    0    0  0.00000000000E+00  0.00000000000E+00  0.45593999997E+02  0.45594000000E+02  0.51100000000E-03 0.  1.
         11   -1    0    0    0    0 -0.00000000000E+00 -0.00000000000E+00 -0.45593999997E+02  0.45594000000E+02  0.51100000000E-03 0. -1.
    9900012    2    1    2    0    0  0.17835655870E+02  0.13430584064E+02  0.22764684624E+02  0.59301920363E+02  0.49999956841E+02 0.  0.
         12    1    1    2    0    0 -0.17835655870E+02 -0.13430584064E+02 -0.22764684624E+02  0.31886079637E+02  0.00000000000E+00 0. -1.
         11    1    3    3    0    0  0.10968894617E+02 -0.60730578099E+01 -0.50049040928E+01  0.13499916500E+02  0.51100000000E-03 0. -1.
        -11    1    3    3    0    0  0.15902613200E+02  0.82437735702E+01  0.45851072090E+01  0.18489892311E+02  0.51100000000E-03 0.  1.
        -12    1    3    3    0    0 -0.90358519474E+01  0.11259868304E+02  0.23184481508E+02  0.27312111552E+02  0.00000000000E+00 0.  1.
</event>
<event>
 7    1  0.3223600E-013  0.5930195E+02  0.7816164E-02  0.1266605E+00
        -11   -1    0    0    0    0  0.00000000000E+00  0.00000000000E+00  0.45593999997E+02  0.45594000000E+02  0.51100000000E-03 0.  1.
         11   -1    0    0    0    0 -0.00000000000E+00 -0.00000000000E+00 -0.45593999997E+02  0.45594000000E+02  0.51100000000E-03 0. -1.
    9900012    2    1    2    0    0 -0.38053497967E+01  0.93943091473E+01  0.30232204754E+02  0.59301953903E+02  0.50000018010E+02 0.  0.
         12    1    1    2    0    0  0.38053497967E+01 -0.93943091473E+01 -0.30232204754E+02  0.31886046097E+02  0.00000000000E+00 0. -1.
         11    1    3    3    0    0  0.10673462377E+02 -0.20820673665E+01  0.37011314527E+01  0.11487218024E+02  0.51100000000E-03 0. -1.
        -11    1    3    3    0    0 -0.83258737842E+00  0.22062614405E+02  0.11373579387E+02  0.24835669197E+02  0.51100000000E-03 0.  1.
         12    1    3    3    0    0 -0.13646224795E+02 -0.10586237891E+02  0.15157493914E+02  0.22979066682E+02  0.00000000000E+00 0. -1.
</event>
<event>
 7    1  0.3223600E-013  0.5930194E+02  0.7816164E-02  0.1266605E+00
        -11   -1    0    0    0    0  0.00000000000E+00  0.00000000000E+00  0.45593999997E+02  0.45594000000E+02  0.51100000000E-03 0.  1.
         11   -1    0    0    0    0 -0.00000000000E+00 -0.00000000000E+00 -0.45593999997E+02  0.45594000000E+02  0.51100000000E-03 0. -1.
    9900012    2    1    2    0    0  0.17612099982E+02 -0.88355655248E+01  0.25069254961E+02  0.59301939907E+02  0.49999992486E+02 0.  0.
         12    1    1    2    0    0 -0.17612099982E+02  0.88355655248E+01 -0.25069254961E+02  0.31886060093E+02  0.00000000000E+00 0. -1.
         11    1    3    3    0    0  0.40004700808E+01 -0.35209366096E+01 -0.92133713593E+01  0.10643635072E+02  0.51100000000E-03 0. -1.
        -11    1    3    3    0    0 -0.25175588727E+01 -0.10725818377E+02  0.73297160924E+00  0.11041672435E+02  0.51100000000E-03 0.  1.
        -12    1    3    3    0    0  0.16129188774E+02  0.54111894616E+01  0.33549654711E+02  0.37616632400E+02  0.00000000000E+00 0.  1.
</event>
<event>
 7    1  0.3223600E-013  0.5930195E+02  0.7816164E-02  0.1266605E+00
        -11   -1    0    0    0    0  0.00000000000E+00  0.00000000000E+00  0.45593999997E+02  0.45594000000E+02  0.51100000000E-03 0.  1.
         11   -1    0    0    0    0 -0.00000000000E+00 -0.00000000000E+00 -0.45593999997E+02  0.45594000000E+02  0.51100000000E-03 0. -1.
    9900012    2    1    2    0    0  0.51298323187E+01 -0.18424544614E+02 -0.25513543928E+02  0.59301953717E+02  0.50000017670E+02 0.  0.
         12    1    1    2    0    0 -0.51298323187E+01  0.18424544614E+02  0.25513543928E+02  0.31886046283E+02  0.00000000000E+00 0. -1.
         11    1    3    3    0    0  0.14210566986E+02 -0.43745701291E+01 -0.26268384605E+02  0.30184517685E+02  0.51100000000E-03 0. -1.
        -11    1    3    3    0    0 -0.65926358300E+01  0.56412255844E+01 -0.24420034733E+01  0.90138590241E+01  0.51100000000E-03 0.  1.
        -12    1    3    3    0    0 -0.24880988371E+01 -0.19691200069E+02  0.31968441502E+01  0.20103577008E+02  0.00000000000E+00 0.  1.
</event>
<event>
 7    1  0.3223600E-013  0.5930196E+02  0.7816164E-02  0.1266605E+00
        -11   -1    0    0    0    0  0.00000000000E+00  0.00000000000E+00  0.45593999997E+02  0.45594000000E+02  0.51100000000E-03 0.  1.
         11   -1    0    0    0    0 -0.00000000000E+00 -0.00000000000E+00 -0.45593999997E+02  0.45594000000E+02  0.51100000000E-03 0. -1.
    9900012    2    1    2    0    0  0.16316339360E+02  0.26318484489E+02 -0.76048869394E+01  0.59301955070E+02  0.50000020139E+02 0.  0.
         12    1    1    2    0    0 -0.16316339360E+02 -0.26318484489E+02  0.76048869394E+01  0.31886044930E+02  0.00000000000E+00 0. -1.
         11    1    3    3    0    0  0.23947475023E+02  0.18845827990E+02  0.85846120145E+01  0.31659790844E+02  0.51100000000E-03 0. -1.
        -11    1    3    3    0    0 -0.49331731186E+00 -0.10024083188E+01  0.42489586320E+01  0.43933852694E+01  0.51100000000E-03 0.  1.
         12    1    3    3    0    0 -0.71378183510E+01  0.84750648176E+01 -0.20438457586E+02  0.23248778956E+02  0.00000000000E+00 0. -1.
</event>
<event>
 7    1  0.3223600E-013  0.5930196E+02  0.7816164E-02  0.1266605E+00
        -11   -1    0    0    0    0  0.00000000000E+00  0.00000000000E+00  0.45593999997E+02  0.45594000000E+02  0.51100000000E-03 0.  1.
         11   -1    0    0    0    0 -0.00000000000E+00 -0.00000000000E+00 -0.45593999997E+02  0.45594000000E+02  0.51100000000E-03 0. -1.
    9900012    2    1    2    0    0  0.27274470429E+02  0.15029422431E+01  0.16448821239E+02  0.59301963985E+02  0.50000036397E+02 0.  0.
         12    1    1    2    0    0 -0.27274470429E+02 -0.15029422431E+01 -0.16448821239E+02  0.31886036015E+02  0.00000000000E+00 0. -1.
         11    1    3    3    0    0 -0.51648098515E+01 -0.69248861592E+01  0.28581642259E+01  0.90993632812E+01  0.51100000000E-03 0. -1.
        -11    1    3    3    0    0  0.11234776183E+02 -0.10209792032E+02  0.15767490727E+02  0.21887754871E+02  0.51100000000E-03 0.  1.
         12    1    3    3    0    0  0.21204504098E+02  0.18637620434E+02 -0.21768337137E+01  0.28314845832E+02  0.00000000000E+00 0. -1.
</event>
<event>
 7    1  0.3223600E-013  0.5930194E+02  0.7816164E-02  0.1266605E+00
        -11   -1    0    0    0    0  0.00000000000E+00  0.00000000000E+00  0.45593999997E+02  0.45594000000E+02  0.51100000000E-03 0. -1.
         11   -1    0    0    0    0 -0.00000000000E+00 -0.00000000000E+00 -0.45593999997E+02  0.45594000000E+02  0.51100000000E-03 0.  1.
    9900012    2    1    2    0    0 -0.23662580486E+02  0.54869865865E+01 -0.20656620384E+02  0.59301941876E+02  0.49999996075E+02 0.  0.
         12    1    1    2    0    0  0.23662580486E+02 -0.54869865865E+01  0.20656620384E+02  0.31886058124E+02  0.00000000000E+00 0. -1.
         11    1    3    3    0    0 -0.25437603757E+02  0.38031011250E+01 -0.98061777832E+01  0.27526285366E+02  0.51100000000E-03 0. -1.
        -11    1    3    3    0    0 -0.77288686495E+01  0.38520488826E+01  0.72117087669E+01  0.11250885956E+02  0.51100000000E-03 0.  1.
        -12    1    3    3    0    0  0.95038919210E+01 -0.21681634211E+01 -0.18062151367E+02  0.20524770554E+02  0.00000000000E+00 0.  1.
</event>
<event>
 7    1  0.3223600E-013  0.5930194E+02  0.7816164E-02  0.1266605E+00
        -11   -1    0    0    0    0  0.00000000000E+00  0.00000000000E+00  0.45593999997E+02  0.45594000000E+02  0.51100000000E-03 0.  1.
         11   -1    0    0    0    0 -0.00000000000E+00 -0.00000000000E+00 -0.45593999997E+02  0.45594000000E+02  0.51100000000E-03 0. -1.
    9900012    2    1    2    0    0  0.26129743076E+02  0.17398172261E+02 -0.55911409413E+01  0.59301941475E+02  0.49999995344E+02 0.  0.
         12    1    1    2    0    0 -0.26129743076E+02 -0.17398172261E+02  0.55911409413E+01  0.31886058525E+02  0.00000000000E+00 0. -1.
         11    1    3    3    0    0  0.11536378828E+02  0.85415757725E+01 -0.13115807835E+02  0.19444047124E+02  0.51100000000E-03 0. -1.
        -11    1    3    3    0    0 -0.37226200997E+01  0.10873551423E+02 -0.93927600711E+01  0.14843044262E+02  0.51100000000E-03 0.  1.
        -12    1    3    3    0    0  0.18315984348E+02 -0.20169549346E+01  0.16917426965E+02  0.25014850088E+02  0.00000000000E+00 0.  1.
</event>
<event>
 7    1  0.3223600E-013  0.5930202E+02  0.7816164E-02  0.1266605E+00
        -11   -1    0    0    0    0  0.00000000000E+00  0.00000000000E+00  0.45593999997E+02  0.45594000000E+02  0.51100000000E-03 0.  1.
         11   -1    0    0    0    0 -0.00000000000E+00 -0.00000000000E+00 -0.45593999997E+02  0.45594000000E+02  0.51100000000E-03 0. -1.
    9900012    2    1    2    0    0  0.11308687977E+02 -0.15262289554E+02 -0.25610388517E+02  0.59302017089E+02  0.50000133246E+02 0.  0.
         12    1    1    2    0    0 -0.11308687977E+02  0.15262289554E+02  0.25610388517E+02  0.31885982911E+02  0.00000000000E+00 0. -1.
         11    1    3    3    0    0 -0.66915329654E+01 -0.14802544453E+02 -0.11666355867E+02  0.19999894879E+02  0.51100000000E-03 0. -1.
        -11    1    3    3    0    0  0.13161961203E+02 -0.15411266072E+02 -0.11772553145E+02  0.23437946849E+02  0.51100000000E-03 0.  1.
        -12    1    3    3    0    0  0.48382597392E+01  0.14951520971E+02 -0.21714795053E+01  0.15864175361E+02  0.00000000000E+00 0.  1.
</event>
<event>
 7    1  0.3223600E-013  0.5930195E+02  0.7816164E-02  0.1266605E+00
        -11   -1    0    0    0    0  0.00000000000E+00  0.00000000000E+00  0.45593999997E+02  0.45594000000E+02  0.51100000000E-03 0.  1.
         11   -1    0    0    0    0 -0.00000000000E+00 -0.00000000000E+00 -0.45593999997E+02  0.45594000000E+02  0.51100000000E-03 0. -1.
    9900012    2    1    2    0    0 -0.27323370701E+02  0.11362109114E+02 -0.11876715847E+02  0.59301945222E+02  0.50000002179E+02 0.  0.
         12    1    1    2    0    0  0.27323370701E+02 -0.11362109114E+02  0.11876715847E+02  0.31886054778E+02  0.00000000000E+00 0. -1.
         11    1    3    3    0    0 -0.34529186110E+02  0.15776696694E+02 -0.20639829425E+02  0.43210778874E+02  0.51100000000E-03 0. -1.
        -11    1    3    3    0    0 -0.90434182860E+00  0.15845566683E+01 -0.97609947701E+00  0.20691603196E+01  0.51100000000E-03 0.  1.
        -12    1    3    3    0    0  0.81101572378E+01 -0.59991442481E+01  0.97392130549E+01  0.14022006028E+02  0.00000000000E+00 0.  1.
</event>
<event>
 7    1  0.3223600E-013  0.5930191E+02  0.7816164E-02  0.1266605E+00
        -11   -1    0    0    0    0  0.00000000000E+00  0.00000000000E+00  0.45593999997E+02  0.45594000000E+02  0.51100000000E-03 0.  1.
         11   -1    0    0    0    0 -0.00000000000E+00 -0.00000000000E+00 -0.45593999997E+02  0.45594000000E+02  0.51100000000E-03 0. -1.
    9900012    2    1    2    0    0  0.19519752253E+02  0.57877308170E+01  0.24539851433E+02  0.59301907979E+02  0.49999934255E+02 0.  0.
         12    1    1    2    0    0 -0.19519752253E+02 -0.57877308170E+01 -0.24539851433E+02  0.31886092021E+02  0.00000000000E+00 0. -1.
         11    1    3    3    0    0 -0.93111842034E+01  0.88245680290E+01  0.30610753277E+01  0.13188682064E+02  0.51100000000E-03 0. -1.
        -11    1    3    3    0    0  0.26724810827E+01 -0.11485086643E+02  0.12525990319E+02  0.17203191682E+02  0.51100000000E-03 0.  1.
        -12    1    3    3    0    0  0.26158455373E+02  0.84482494307E+01  0.89527857871E+01  0.28910034232E+02  0.00000000000E+00 0.  1.
</event>
<event>
 7    1  0.3223600E-013  0.5930195E+02  0.7816164E-02  0.1266605E+00
        -11   -1    0    0    0    0  0.00000000000E+00  0.00000000000E+00  0.45593999997E+02  0.45594000000E+02  0.51100000000E-03 0. -1.
         11   -1    0    0    0    0 -0.00000000000E+00 -0.00000000000E+00 -0.45593999997E+02  0.45594000000E+02  0.51100000000E-03 0.  1.
    9900012    2    1    2    0    0 -0.15375357221E+01 -0.29527862839E+02 -0.11935727322E+02  0.59301948400E+02  0.50000007973E+02 0.  0.
         12    1    1    2    0    0  0.15375357221E+01  0.29527862839E+02  0.11935727322E+02  0.31886051600E+02  0.00000000000E+00 0. -1.
         11    1    3    3    0    0  0.11100917818E+01  0.10449478678E+01  0.30972898436E-01  0.15248538921E+01  0.51100000000E-03 0. -1.
        -11    1    3    3    0    0  0.92450307803E+01 -0.20019894627E+02 -0.27702219224E+02  0.35407339991E+02  0.51100000000E-03 0.  1.
        -12    1    3    3    0    0 -0.11892658284E+02 -0.10552916080E+02  0.15735519003E+02  0.22369754517E+02  0.00000000000E+00 0.  1.
</event>
<event>
 7    1  0.3223600E-013  0.5930187E+02  0.7816164E-02  0.1266605E+00
        -11   -1    0    0    0    0  0.00000000000E+00  0.00000000000E+00  0.45593999997E+02  0.45594000000E+02  0.51100000000E-03 0. -1.
         11   -1    0    0    0    0 -0.00000000000E+00 -0.00000000000E+00 -0.45593999997E+02  0.45594000000E+02  0.51100000000E-03 0.  1.
    9900012    2    1    2    0    0 -0.30991183891E+02  0.43262876210E+01 -0.61282205734E+01  0.59301869301E+02  0.49999863717E+02 0.  0.
         12    1    1    2    0    0  0.30991183891E+02 -0.43262876210E+01  0.61282205734E+01  0.31886130699E+02  0.00000000000E+00 0. -1.
         11    1    3    3    0    0 -0.24397474619E+02 -0.95682762689E+01 -0.97864471064E+01  0.27974331551E+02  0.51100000000E-03 0. -1.
        -11    1    3    3    0    0 -0.30726540676E+01 -0.18434092009E+01 -0.97291219583E+01  0.10367987984E+02  0.51100000000E-03 0.  1.
         12    1    3    3    0    0 -0.35210552046E+01  0.15737973091E+02  0.13387348491E+02  0.20959549766E+02  0.00000000000E+00 0. -1.
</event>
<event>
 7    1  0.3223600E-013  0.5930191E+02  0.7816164E-02  0.1266605E+00
        -11   -1    0    0    0    0  0.00000000000E+00  0.00000000000E+00  0.45593999997E+02  0.45594000000E+02  0.51100000000E-03 0. -1.
         11   -1    0    0    0    0 -0.00000000000E+00 -0.00000000000E+00 -0.45593999997E+02  0.45594000000E+02  0.51100000000E-03 0.  1.
    9900012    2    1    2    0    0 -0.22575236485E+02 -0.17409289145E+02  0.14282788702E+02  0.59301910493E+02  0.49999938841E+02 0.  0.
         12    1    1    2    0    0  0.22575236485E+02  0.17409289145E+02 -0.14282788702E+02  0.31886089507E+02  0.00000000000E+00 0. -1.
         11    1    3    3    0    0 -0.14939296893E+01  0.13022539370E+01  0.10365932698E+02  0.10553684295E+02  0.51100000000E-03 0. -1.
        -11    1    3    3    0    0 -0.10515691099E+02 -0.17956739904E+02  0.20409209198E+02  0.29147214062E+02  0.51100000000E-03 0.  1.
        -12    1    3    3    0    0 -0.10565615697E+02 -0.75480317861E+00 -0.16492353194E+02  0.19601012136E+02  0.00000000000E+00 0.  1.
</event>
<event>
 7    1  0.3434749E-013  0.5930200E+02  0.7816164E-02  0.1266605E+00
        -11   -1    0    0    0    0  0.00000000000E+00  0.00000000000E+00  0.45593999997E+02  0.45594000000E+02  0.51100000000E-03 0. -1.
         11   -1    0    0    0    0 -0.00000000000E+00 -0.00000000000E+00 -0.45593999997E+02  0.45594000000E+02  0.51100000000E-03 0.  1.
    9900012    2    1    2    0    0  0.18439091810E+02 -0.18988952972E+02 -0.17780228638E+02  0.59302000374E+02  0.50000102762E+02 0.  0.
         12    1    1    2    0    0 -0.18439091810E+02  0.18988952972E+02  0.17780228638E+02  0.31885999626E+02  0.00000000000E+00 0. -1.
         11    1    3    3    0    0  0.64659872169E+01  0.19190037612E+01  0.97629873988E+01  0.11866233157E+02  0.51100000000E-03 0. -1.
        -11    1    3    3    0    0  0.69685921082E+01  0.72091011454E+01 -0.80509903781E+01  0.12858882596E+02  0.51100000000E-03 0.  1.
        -12    1    3    3    0    0  0.50045124850E+01 -0.28117057878E+02 -0.19492225659E+02  0.34576884621E+02  0.00000000000E+00 0.  1.
</event>
<event>
 7    1  0.3223600E-013  0.5930191E+02  0.7816164E-02  0.1266605E+00
        -11   -1    0    0    0    0  0.00000000000E+00  0.00000000000E+00  0.45593999997E+02  0.45594000000E+02  0.51100000000E-03 0.  1.
         11   -1    0    0    0    0 -0.00000000000E+00 -0.00000000000E+00 -0.45593999997E+02  0.45594000000E+02  0.51100000000E-03 0. -1.
    9900012    2    1    2    0    0  0.27052021165E+02  0.13743377995E+02 -0.97995152853E+01  0.59301909182E+02  0.49999936449E+02 0.  0.
         12    1    1    2    0    0 -0.27052021165E+02 -0.13743377995E+02  0.97995152853E+01  0.31886090818E+02  0.00000000000E+00 0. -1.
         11    1    3    3    0    0 -0.26682127935E+01 -0.34194431014E+01 -0.27233810803E+01  0.51214017031E+01  0.51100000000E-03 0. -1.
        -11    1    3    3    0    0  0.10812821163E+01  0.93739358093E+01  0.14631177474E+02  0.17410088975E+02  0.51100000000E-03 0.  1.
         12    1    3    3    0    0  0.28638951842E+02  0.77888852872E+01 -0.21707311679E+02  0.36770418504E+02  0.00000000000E+00 0. -1.
</event>
<event>
 7    1  0.3223600E-013  0.5930198E+02  0.7816164E-02  0.1266605E+00
        -11   -1    0    0    0    0  0.00000000000E+00  0.00000000000E+00  0.45593999997E+02  0.45594000000E+02  0.51100000000E-03 0. -1.
         11   -1    0    0    0    0 -0.00000000000E+00 -0.00000000000E+00 -0.45593999997E+02  0.45594000000E+02  0.51100000000E-03 0.  1.
    9900012    2    1    2    0    0 -0.38217394608E+01 -0.20914876443E+02 -0.23763007488E+02  0.59301979960E+02  0.50000065532E+02 0.  0.
         12    1    1    2    0    0  0.38217394608E+01  0.20914876443E+02  0.23763007488E+02  0.31886020040E+02  0.00000000000E+00 0. -1.
         11    1    3    3    0    0 -0.13432813401E+02  0.21048410896E+01 -0.57833584370E+01  0.14775590240E+02  0.51100000000E-03 0. -1.
        -11    1    3    3    0    0  0.13129582448E+02  0.30293454781E+01 -0.16346462362E+01  0.13573317128E+02  0.51100000000E-03 0.  1.
        -12    1    3    3    0    0 -0.35185085082E+01 -0.26049063011E+02 -0.16345002815E+02  0.30953072592E+02  0.00000000000E+00 0.  1.
</event>
<event>
 7    1  0.3223600E-013  0.5930201E+02  0.7816164E-02  0.1266605E+00
        -11   -1    0    0    0    0  0.00000000000E+00  0.00000000000E+00  0.45593999997E+02  0.45594000000E+02  0.51100000000E-03 0.  1.
         11   -1    0    0    0    0 -0.00000000000E+00 -0.00000000000E+00 -0.45593999997E+02  0.45594000000E+02  0.51100000000E-03 0. -1.
    9900012    2    1    2    0    0 -0.30132271481E+02  0.19872986421E+01  0.10237843951E+02  0.59302006378E+02  0.50000113712E+02 0.  0.
         12    1    1    2    0    0  0.30132271481E+02 -0.19872986421E+01 -0.10237843951E+02  0.31885993622E+02  0.00000000000E+00 0. -1.
         11    1    3    3    0    0 -0.25986696134E+02 -0.33363841011E+01  0.17444724954E+00  0.26200577607E+02  0.51100000000E-03 0. -1.
        -11    1    3    3    0    0 -0.44940852389E+01 -0.12390844761E+02  0.75951739849E+01  0.15212379964E+02  0.51100000000E-03 0.  1.
        -12    1    3    3    0    0  0.34850989185E+00  0.17714527505E+02  0.24682227163E+01  0.17889048807E+02  0.00000000000E+00 0.  1.
</event>
<event>
 7    1  0.3223600E-013  0.5930194E+02  0.7816164E-02  0.1266605E+00
        -11   -1    0    0    0    0  0.00000000000E+00  0.00000000000E+00  0.45593999997E+02  0.45594000000E+02  0.51100000000E-03 0. -1.
         11   -1    0    0    0    0 -0.00000000000E+00 -0.00000000000E+00 -0.45593999997E+02  0.45594000000E+02  0.51100000000E-03 0.  1.
    9900012    2    1    2    0    0 -0.78866672839E+01 -0.30613840473E+02 -0.41610370655E+01  0.59301937546E+02  0.49999988179E+02 0.  0.
         12    1    1    2    0    0  0.78866672839E+01  0.30613840473E+02  0.41610370655E+01  0.31886062454E+02  0.00000000000E+00 0. -1.
         11    1    3    3    0    0  0.19292901307E+01  0.15854150214E+01 -0.44198345925E+01  0.50764790244E+01  0.51100000000E-03 0. -1.
        -11    1    3    3    0    0  0.16124773955E+02 -0.75764729422E+01 -0.38407512644E+01  0.18225329843E+02  0.51100000000E-03 0.  1.
        -12    1    3    3    0    0 -0.25940731369E+02 -0.24622782552E+02  0.40995487914E+01  0.36000128679E+02  0.00000000000E+00 0.  1.
</event>
<event>
 7    1  0.3223600E-013  0.5930193E+02  0.7816164E-02  0.1266605E+00
        -11   -1    0    0    0    0  0.00000000000E+00  0.00000000000E+00  0.45593999997E+02  0.45594000000E+02  0.51100000000E-03 0. -1.
         11   -1    0    0    0    0 -0.00000000000E+00 -0.00000000000E+00 -0.45593999997E+02  0.45594000000E+02  0.51100000000E-03 0.  1.
    9900012    2    1    2    0    0 -0.91162476954E+01 -0.24550178626E+02 -0.18190767429E+02  0.59301933102E+02  0.49999980073E+02 0.  0.
         12    1    1    2    0    0  0.91162476954E+01  0.24550178626E+02  0.18190767429E+02  0.31886066898E+02  0.00000000000E+00 0. -1.
         11    1    3    3    0    0 -0.11556298663E+01 -0.10579210132E+02 -0.13552727763E+02  0.17231703267E+02  0.51100000000E-03 0. -1.
        -11    1    3    3    0    0  0.55904315188E+01  0.80023463627E+01 -0.11766207345E+02  0.15288365100E+02  0.51100000000E-03 0.  1.
         12    1    3    3    0    0 -0.13551049348E+02 -0.21973314856E+02  0.71281676794E+01  0.26781864734E+02  0.00000000000E+00 0. -1.
</event>
<event>
 7    1  0.3223600E-013  0.5930194E+02  0.7816164E-02  0.1266605E+00
        -11   -1    0    0    0    0  0.00000000000E+00  0.00000000000E+00  0.45593999997E+02  0.45594000000E+02  0.51100000000E-03 0. -1.
         11   -1    0    0    0    0 -0.00000000000E+00 -0.00000000000E+00 -0.45593999997E+02  0.45594000000E+02  0.51100000000E-03 0.  1.
    9900012    2    1    2    0    0  0.96904639907E+01 -0.24019321317E+02 -0.18598067848E+02  0.59301936954E+02  0.49999987100E+02 0.  0.
         12    1    1    2    0    0 -0.96904639907E+01  0.24019321317E+02  0.18598067848E+02  0.31886063046E+02  0.00000000000E+00 0. -1.
         11    1    3    3    0    0 -0.14818054009E+01  0.78632966159E+01 -0.17314326959E+02  0.19073885268E+02  0.51100000000E-03 0. -1.
        -11    1    3    3    0    0  0.27456978175E+01 -0.16806008348E+02 -0.11133271602E+02  0.20345282253E+02  0.51100000000E-03 0.  1.
         12    1    3    3    0    0  0.84265715741E+01 -0.15076609585E+02  0.98495307136E+01  0.19882769433E+02  0.00000000000E+00 0. -1.
</event>
<event>
 7    1  0.3223600E-013  0.5930196E+02  0.7816164E-02  0.1266605E+00
        -11   -1    0    0    0    0  0.00000000000E+00  0.00000000000E+00  0.45593999997E+02  0.45594000000E+02  0.51100000000E-03 0.  1.
         11   -1    0    0    0    0 -0.00000000000E+00 -0.00000000000E+00 -0.45593999997E+02  0.45594000000E+02  0.51100000000E-03 0. -1.
    9900012    2    1    2    0    0  0.10943148650E+02  0.26545775694E+00  0.29948227418E+02  0.59301963939E+02  0.50000036314E+02 0.  0.
         12    1    1    2    0    0 -0.10943148650E+02 -0.26545775694E+00 -0.29948227418E+02  0.31886036061E+02  0.00000000000E+00 0. -1.
         11    1    3    3    0    0 -0.68661261661E+01  0.18087378038E+02  0.84241265524E+01  0.21101252125E+02  0.51100000000E-03 0. -1.
        -11    1    3    3    0    0  0.36669629536E+01  0.92705068366E+00  0.12470292469E+02  0.13031279093E+02  0.51100000000E-03 0.  1.
         12    1    3    3    0    0  0.14142311862E+02 -0.18748970964E+02  0.90538083962E+01  0.25169432721E+02  0.00000000000E+00 0. -1.
</event>
<event>
 7    1  0.3223600E-013  0.5930193E+02  0.7816164E-02  0.1266605E+00
        -11   -1    0    0    0    0  0.00000000000E+00  0.00000000000E+00  0.45593999997E+02  0.45594000000E+02  0.51100000000E-03 0. -1.
         11   -1    0    0    0    0 -0.00000000000E+00 -0.00000000000E+00 -0.45593999997E+02  0.45594000000E+02  0.51100000000E-03 0.  1.
    9900012    2    1    2    0    0 -0.69068407465E+01  0.24565101627E+02 -0.19119963894E+02  0.59301926451E+02  0.49999967944E+02 0.  0.
         12    1    1    2    0    0  0.69068407465E+01 -0.24565101627E+02  0.19119963894E+02  0.31886073549E+02  0.00000000000E+00 0. -1.
         11    1    3    3    0    0 -0.13965943501E+02  0.18379689130E+02 -0.15841983435E+01  0.23138068957E+02  0.51100000000E-03 0. -1.
        -11    1    3    3    0    0 -0.67516158268E+00 -0.57052850459E+01  0.62376510528E+01  0.84802365259E+01  0.51100000000E-03 0.  1.
        -12    1    3    3    0    0  0.77342643376E+01  0.11890697543E+02 -0.23773416604E+02  0.27683620968E+02  0.00000000000E+00 0.  1.
</event>
<event>
 7    1  0.3223600E-013  0.5930194E+02  0.7816164E-02  0.1266605E+00
        -11   -1    0    0    0    0  0.00000000000E+00  0.00000000000E+00  0.45593999997E+02  0.45594000000E+02  0.51100000000E-03 0.  1.
         11   -1    0    0    0    0 -0.00000000000E+00 -0.00000000000E+00 -0.45593999997E+02  0.45594000000E+02  0.51100000000E-03 0. -1.
    9900012    2    1    2    0    0  0.19964487290E+02  0.95266493544E+01 -0.22964815408E+02  0.59301944311E+02  0.50000000517E+02 0.  0.
         12    1    1    2    0    0 -0.19964487290E+02 -0.95266493544E+01  0.22964815408E+02  0.31886055689E+02  0.00000000000E+00 0. -1.
         11    1    3    3    0    0  0.28525607672E+02  0.80189919872E+01 -0.26572188398E+02  0.39800700020E+02  0.51100000000E-03 0. -1.
        -11    1    3    3    0    0 -0.12752218684E+02  0.85443689980E-01 -0.13873759300E+01  0.12827750941E+02  0.51100000000E-03 0.  1.
         12    1    3    3    0    0  0.41910983011E+01  0.14222136772E+01  0.49947489199E+01  0.66734933495E+01  0.00000000000E+00 0. -1.
</event>
<event>
 7    1  0.3223600E-013  0.5930196E+02  0.7816164E-02  0.1266605E+00
        -11   -1    0    0    0    0  0.00000000000E+00  0.00000000000E+00  0.45593999997E+02  0.45594000000E+02  0.51100000000E-03 0. -1.
         11   -1    0    0    0    0 -0.00000000000E+00 -0.00000000000E+00 -0.45593999997E+02  0.45594000000E+02  0.51100000000E-03 0.  1.
    9900012    2    1    2    0    0  0.69048472428E+00 -0.55750041857E+01 -0.31387290201E+02  0.59301961880E+02  0.50000032559E+02 0.  0.
         12    1    1    2    0    0 -0.69048472428E+00  0.55750041857E+01  0.31387290201E+02  0.31886038120E+02  0.00000000000E+00 0. -1.
         11    1    3    3    0    0  0.33262410618E-01 -0.90292562466E+01 -0.31343660811E+01  0.95578672174E+01  0.51100000000E-03 0. -1.
        -11    1    3    3    0    0 -0.15895225253E+02 -0.75439280196E+01 -0.33958290963E+01  0.17919282668E+02  0.51100000000E-03 0.  1.
        -12    1    3    3    0    0  0.16552447567E+02  0.10998180080E+02 -0.24857095023E+02  0.31824811995E+02  0.00000000000E+00 0.  1.
</event>
<event>
 7    1  0.3223600E-013  0.5930194E+02  0.7816164E-02  0.1266605E+00
        -11   -1    0    0    0    0  0.00000000000E+00  0.00000000000E+00  0.45593999997E+02  0.45594000000E+02  0.51100000000E-03 0. -1.
         11   -1    0    0    0    0 -0.00000000000E+00 -0.00000000000E+00 -0.45593999997E+02  0.45594000000E+02  0.51100000000E-03 0.  1.
    9900012    2    1    2    0    0  0.56670908679E+01  0.30604093087E+02 -0.69277774144E+01  0.59301944545E+02  0.50000000943E+02 0.  0.
         12    1    1    2    0    0 -0.56670908679E+01 -0.30604093087E+02  0.69277774144E+01  0.31886055455E+02  0.00000000000E+00 0. -1.
         11    1    3    3    0    0 -0.13101137716E+02  0.23587747648E+00 -0.10343833511E+01  0.13144025138E+02  0.51100000000E-03 0. -1.
        -11    1    3    3    0    0  0.17855657146E+02  0.26881734674E+01 -0.31182783254E+01  0.18324148784E+02  0.51100000000E-03 0.  1.
        -12    1    3    3    0    0  0.91257143838E+00  0.27680042143E+02 -0.27751157379E+01  0.27833770622E+02  0.00000000000E+00 0.  1.
</event>
<event>
 7    1  0.3223600E-013  0.5930194E+02  0.7816164E-02  0.1266605E+00
        -11   -1    0    0    0    0  0.00000000000E+00  0.00000000000E+00  0.45593999997E+02  0.45594000000E+02  0.51100000000E-03 0. -1.
         11   -1    0    0    0    0 -0.00000000000E+00 -0.00000000000E+00 -0.45593999997E+02  0.45594000000E+02  0.51100000000E-03 0.  1.
    9900012    2    1    2    0    0 -0.25923847942E+02  0.12490600038E+02  0.13735361322E+02  0.59301935143E+02  0.49999983797E+02 0.  0.
         12    1    1    2    0    0  0.25923847942E+02 -0.12490600038E+02 -0.13735361322E+02  0.31886064857E+02  0.00000000000E+00 0. -1.
         11    1    3    3    0    0 -0.25670140568E+02  0.29926178742E+02  0.11154000826E+02  0.40974919470E+02  0.51100000000E-03 0.  1.
        -11    1    3    3    0    0 -0.83143432619E+00 -0.24133232048E+01 -0.12072302192E+01  0.28236177137E+01  0.51100000000E-03 0. -1.
        -12    1    3    3    0    0  0.57772695232E+00 -0.15022255499E+02  0.37885907144E+01  0.15503397960E+02  0.00000000000E+00 0.  1.
</event>
<event>
 7    1  0.3223600E-013  0.5930194E+02  0.7816164E-02  0.1266605E+00
        -11   -1    0    0    0    0  0.00000000000E+00  0.00000000000E+00  0.45593999997E+02  0.45594000000E+02  0.51100000000E-03 0.  1.
         11   -1    0    0    0    0 -0.00000000000E+00 -0.00000000000E+00 -0.45593999997E+02  0.45594000000E+02  0.51100000000E-03 0. -1.
    9900012    2    1    2    0    0 -0.28225189054E+02 -0.11366518486E+02  0.95321522072E+01  0.59301937758E+02  0.49999988565E+02 0.  0.
         12    1    1    2    0    0  0.28225189054E+02  0.11366518486E+02 -0.95321522072E+01  0.31886062242E+02  0.00000000000E+00 0. -1.
         11    1    3    3    0    0 -0.20469529790E+02 -0.65119664379E+01 -0.74633437765E+00  0.21493356461E+02  0.51100000000E-03 0.  1.
        -11    1    3    3    0    0 -0.12884630991E+02  0.11189534477E+02 -0.16853522739E+01  0.17148172210E+02  0.51100000000E-03 0. -1.
        -12    1    3    3    0    0  0.51289717269E+01 -0.16044086525E+02  0.11963838859E+02  0.20660409087E+02  0.00000000000E+00 0.  1.
</event>
<event>
 7    1  0.3223600E-013  0.5930195E+02  0.7816164E-02  0.1266605E+00
        -11   -1    0    0    0    0  0.00000000000E+00  0.00000000000E+00  0.45593999997E+02  0.45594000000E+02  0.51100000000E-03 0.  1.
         11   -1    0    0    0    0 -0.00000000000E+00 -0.00000000000E+00 -0.45593999997E+02  0.45594000000E+02  0.51100000000E-03 0. -1.
    9900012    2    1    2    0    0 -0.19495141769E+02 -0.42788236380E+01  0.24866676315E+02  0.59301945442E+02  0.50000002580E+02 0.  0.
         12    1    1    2    0    0  0.19495141769E+02  0.42788236380E+01 -0.24866676315E+02  0.31886054558E+02  0.00000000000E+00 0. -1.
         11    1    3    3    0    0 -0.10729665290E+01 -0.28966377928E+01 -0.11005534926E+02  0.11430816548E+02  0.51100000000E-03 0. -1.
        -11    1    3    3    0    0  0.18240512667E+01  0.74617091868E+01  0.17590639252E+02  0.19194656980E+02  0.51100000000E-03 0.  1.
        -12    1    3    3    0    0 -0.20246226507E+02 -0.88438950321E+01  0.18281571989E+02  0.28676471915E+02  0.00000000000E+00 0.  1.
</event>
<event>
 7    1  0.3223600E-013  0.5930195E+02  0.7816164E-02  0.1266605E+00
        -11   -1    0    0    0    0  0.00000000000E+00  0.00000000000E+00  0.45593999997E+02  0.45594000000E+02  0.51100000000E-03 0.  1.
         11   -1    0    0    0    0 -0.00000000000E+00 -0.00000000000E+00 -0.45593999997E+02  0.45594000000E+02  0.51100000000E-03 0. -1.
    9900012    2    1    2    0    0  0.10638197034E+02 -0.28444658149E+02  0.97185465567E+01  0.59301953514E+02  0.50000017300E+02 0.  0.
         12    1    1    2    0    0 -0.10638197034E+02  0.28444658149E+02 -0.97185465567E+01  0.31886046486E+02  0.00000000000E+00 0. -1.
         11    1    3    3    0    0 -0.30627660778E+01 -0.20470844219E+02  0.12406487240E+02  0.24132072538E+02  0.51100000000E-03 0. -1.
        -11    1    3    3    0    0 -0.64768947947E+01  0.59342799604E+01  0.41667416153E+01  0.97225295464E+01  0.51100000000E-03 0.  1.
         12    1    3    3    0    0  0.20177857906E+02 -0.13908093891E+02 -0.68546822986E+01  0.25447351430E+02  0.00000000000E+00 0. -1.
</event>
<event>
 7    1  0.3223600E-013  0.5930198E+02  0.7816164E-02  0.1266605E+00
        -11   -1    0    0    0    0  0.00000000000E+00  0.00000000000E+00  0.45593999997E+02  0.45594000000E+02  0.51100000000E-03 0. -1.
         11   -1    0    0    0    0 -0.00000000000E+00 -0.00000000000E+00 -0.45593999997E+02  0.45594000000E+02  0.51100000000E-03 0.  1.
    9900012    2    1    2    0    0  0.29503175981E+02  0.10647342435E+02 -0.57371745334E+01  0.59301976957E+02  0.50000060055E+02 0.  0.
         12    1    1    2    0    0 -0.29503175981E+02 -0.10647342435E+02  0.57371745334E+01  0.31886023043E+02  0.00000000000E+00 0. -1.
         11    1    3    3    0    0  0.13532754135E+02  0.62864365655E+01 -0.10064497064E+02  0.17998578293E+02  0.51100000000E-03 0. -1.
        -11    1    3    3    0    0  0.26066784985E+02 -0.55625687166E+01  0.50516548809E+01  0.27128189535E+02  0.51100000000E-03 0.  1.
         12    1    3    3    0    0 -0.10096363139E+02  0.99234745859E+01 -0.72433235066E+00  0.14175209129E+02  0.00000000000E+00 0. -1.
</event>
<event>
 7    1  0.3223600E-013  0.5930197E+02  0.7816164E-02  0.1266605E+00
        -11   -1    0    0    0    0  0.00000000000E+00  0.00000000000E+00  0.45593999997E+02  0.45594000000E+02  0.51100000000E-03 0.  1.
         11   -1    0    0    0    0 -0.00000000000E+00 -0.00000000000E+00 -0.45593999997E+02  0.45594000000E+02  0.51100000000E-03 0. -1.
    9900012    2    1    2    0    0 -0.37954044198E+01 -0.22974581249E+02  0.21782620523E+02  0.59301968025E+02  0.50000043764E+02 0.  0.
         12    1    1    2    0    0  0.37954044198E+01  0.22974581249E+02 -0.21782620523E+02  0.31886031975E+02  0.00000000000E+00 0. -1.
         11    1    3    3    0    0  0.68566620093E+01 -0.86030196481E+00  0.45899280830E+01  0.82958648403E+01  0.51100000000E-03 0. -1.
        -11    1    3    3    0    0  0.14497932436E+02 -0.65792053044E+01  0.14129667044E+02  0.21286697217E+02  0.51100000000E-03 0.  1.
         12    1    3    3    0    0 -0.25149998865E+02 -0.15535073980E+02  0.30630253964E+01  0.29719405967E+02  0.00000000000E+00 0. -1.
</event>
<event>
 7    1  0.3223600E-013  0.5930194E+02  0.7816164E-02  0.1266605E+00
        -11   -1    0    0    0    0  0.00000000000E+00  0.00000000000E+00  0.45593999997E+02  0.45594000000E+02  0.51100000000E-03 0. -1.
         11   -1    0    0    0    0 -0.00000000000E+00 -0.00000000000E+00 -0.45593999997E+02  0.45594000000E+02  0.51100000000E-03 0.  1.
    9900012    2    1    2    0    0  0.90549783111E-01 -0.22246080913E+02 -0.22843483241E+02  0.59301936558E+02  0.49999986377E+02 0.  0.
         12    1    1    2    0    0 -0.90549783111E-01  0.22246080913E+02  0.22843483241E+02  0.31886063442E+02  0.00000000000E+00 0. -1.
         11    1    3    3    0    0  0.48005729748E+01 -0.20003057926E+01 -0.35961501499E+01  0.63228965128E+01  0.51100000000E-03 0. -1.
        -11    1    3    3    0    0  0.75164274684E+01 -0.25009057043E+02  0.38680201553E+01  0.26399075671E+02  0.51100000000E-03 0.  1.
         12    1    3    3    0    0 -0.12226450660E+02  0.47632819235E+01 -0.23115353247E+02  0.26579964374E+02  0.00000000000E+00 0. -1.
</event>
<event>
 7    1  0.3223600E-013  0.5930194E+02  0.7816164E-02  0.1266605E+00
        -11   -1    0    0    0    0  0.00000000000E+00  0.00000000000E+00  0.45593999997E+02  0.45594000000E+02  0.51100000000E-03 0. -1.
         11   -1    0    0    0    0 -0.00000000000E+00 -0.00000000000E+00 -0.45593999997E+02  0.45594000000E+02  0.51100000000E-03 0.  1.
    9900012    2    1    2    0    0  0.13705099030E+02  0.14487952711E+02 -0.24879518956E+02  0.59301937580E+02  0.49999988241E+02 0.  0.
         12    1    1    2    0    0 -0.13705099030E+02 -0.14487952711E+02  0.24879518956E+02  0.31886062420E+02  0.00000000000E+00 0. -1.
         11    1    3    3    0    0  0.14742017262E+01  0.99549781789E+01 -0.13739472463E+01  0.10156898767E+02  0.51100000000E-03 0. -1.
        -11    1    3    3    0    0 -0.59886870296E+00  0.12668826799E+02 -0.30039797760E+02  0.32607472547E+02  0.51100000000E-03 0.  1.
        -12    1    3    3    0    0  0.12829766007E+02 -0.81358522675E+01  0.65342260501E+01  0.16537566265E+02  0.00000000000E+00 0.  1.
</event>
<event>
 7    1  0.3223600E-013  0.5930197E+02  0.7816164E-02  0.1266605E+00
        -11   -1    0    0    0    0  0.00000000000E+00  0.00000000000E+00  0.45593999997E+02  0.45594000000E+02  0.51100000000E-03 0.  1.
         11   -1    0    0    0    0 -0.00000000000E+00 -0.00000000000E+00 -0.45593999997E+02  0.45594000000E+02  0.51100000000E-03 0. -1.
    9900012    2    1    2    0    0 -0.31727283702E+02 -0.21203759093E+01  0.23668803780E+01  0.59301974098E+02  0.50000054841E+02 0.  0.
         12    1    1    2    0    0  0.31727283702E+02  0.21203759093E+01 -0.23668803780E+01  0.31886025902E+02  0.00000000000E+00 0. -1.
         11    1    3    3    0    0 -0.12792205286E+02  0.94054917989E+00  0.10030258342E+02  0.16282850841E+02  0.51100000000E-03 0. -1.
        -11    1    3    3    0    0 -0.27575178842E+02 -0.19985666520E+01  0.45515323357E+01  0.28019657452E+02  0.51100000000E-03 0.  1.
         12    1    3    3    0    0  0.86401004262E+01 -0.10623584371E+01 -0.12214910300E+02  0.14999465806E+02  0.00000000000E+00 0. -1.
</event>
<event>
 7    1  0.3223600E-013  0.5930195E+02  0.7816164E-02  0.1266605E+00
        -11   -1    0    0    0    0  0.00000000000E+00  0.00000000000E+00  0.45593999997E+02  0.45594000000E+02  0.51100000000E-03 0.  1.
         11   -1    0    0    0    0 -0.00000000000E+00 -0.00000000000E+00 -0.45593999997E+02  0.45594000000E+02  0.51100000000E-03 0. -1.
    9900012    2    1    2    0    0 -0.22329396696E+02  0.14296165529E+02  0.17712640852E+02  0.59301953654E+02  0.50000017556E+02 0.  0.
         12    1    1    2    0    0  0.22329396696E+02 -0.14296165529E+02 -0.17712640852E+02  0.31886046346E+02  0.00000000000E+00 0. -1.
         11    1    3    3    0    0 -0.42011959229E+01 -0.97425140285E+01 -0.65602283484E+01  0.12474102093E+02  0.51100000000E-03 0. -1.
        -11    1    3    3    0    0  0.38033451280E+01  0.58018913930E+01  0.15506976175E+02  0.16988045451E+02  0.51100000000E-03 0.  1.
        -12    1    3    3    0    0 -0.21931545901E+02  0.18236788164E+02  0.87658930260E+01  0.29839806110E+02  0.00000000000E+00 0.  1.
</event>
<event>
 7    1  0.3223600E-013  0.5930195E+02  0.7816164E-02  0.1266605E+00
        -11   -1    0    0    0    0  0.00000000000E+00  0.00000000000E+00  0.45593999997E+02  0.45594000000E+02  0.51100000000E-03 0. -1.
         11   -1    0    0    0    0 -0.00000000000E+00 -0.00000000000E+00 -0.45593999997E+02  0.45594000000E+02  0.51100000000E-03 0.  1.
    9900012    2    1    2    0    0 -0.23164485653E+02 -0.11356322293E+02 -0.18739289629E+02  0.59301946192E+02  0.50000003948E+02 0.  0.
         12    1    1    2    0    0  0.23164485653E+02  0.11356322293E+02  0.18739289629E+02  0.31886053808E+02  0.00000000000E+00 0. -1.
         11    1    3    3    0    0  0.24163804253E+01 -0.25198279404E+00 -0.39276361638E+01  0.46183022621E+01  0.51100000000E-03 0. -1.
        -11    1    3    3    0    0 -0.42299859402E+01  0.11532592605E+00 -0.27228822492E+02  0.27555668304E+02  0.51100000000E-03 0.  1.
         12    1    3    3    0    0 -0.21350880138E+02 -0.11219665425E+02  0.12417169026E+02  0.27127975626E+02  0.00000000000E+00 0. -1.
</event>
<event>
 7    1  0.3223600E-013  0.5930195E+02  0.7816164E-02  0.1266605E+00
        -11   -1    0    0    0    0  0.00000000000E+00  0.00000000000E+00  0.45593999997E+02  0.45594000000E+02  0.51100000000E-03 0. -1.
         11   -1    0    0    0    0 -0.00000000000E+00 -0.00000000000E+00 -0.45593999997E+02  0.45594000000E+02  0.51100000000E-03 0.  1.
    9900012    2    1    2    0    0 -0.86561727026E+01 -0.30417459058E+02  0.40704702915E+01  0.59301954936E+02  0.50000019894E+02 0.  0.
         12    1    1    2    0    0  0.86561727026E+01  0.30417459058E+02 -0.40704702915E+01  0.31886045064E+02  0.00000000000E+00 0. -1.
         11    1    3    3    0    0 -0.24231127549E+01 -0.16685250038E+02 -0.16753920385E+02  0.23768948079E+02  0.51100000000E-03 0. -1.
        -11    1    3    3    0    0 -0.62426805620E+01 -0.13420559568E+02  0.95471635578E-01  0.14801742966E+02  0.51100000000E-03 0.  1.
         12    1    3    3    0    0  0.96206142630E-02 -0.31164945228E+00  0.20728919041E+02  0.20731263892E+02  0.00000000000E+00 0. -1.
</event>
<event>
 7    1  0.3223600E-013  0.5930196E+02  0.7816164E-02  0.1266605E+00
        -11   -1    0    0    0    0  0.00000000000E+00  0.00000000000E+00  0.45593999997E+02  0.45594000000E+02  0.51100000000E-03 0. -1.
         11   -1    0    0    0    0 -0.00000000000E+00 -0.00000000000E+00 -0.45593999997E+02  0.45594000000E+02  0.51100000000E-03 0.  1.
    9900012    2    1    2    0    0 -0.16402593051E+01 -0.52168862987E+01 -0.31413581310E+02  0.59301961614E+02  0.50000032073E+02 0.  0.
         12    1    1    2    0    0  0.16402593051E+01  0.52168862987E+01  0.31413581310E+02  0.31886038386E+02  0.00000000000E+00 0. -1.
         11    1    3    3    0    0 -0.71856343735E+01  0.79137856837E+01 -0.15801736030E+01  0.10805475190E+02  0.51100000000E-03 0. -1.
        -11    1    3    3    0    0 -0.10815880998E+02 -0.17130980103E+02 -0.10377775361E+02  0.22762951978E+02  0.51100000000E-03 0.  1.
         12    1    3    3    0    0  0.16361256067E+02  0.40003081203E+01 -0.19455632345E+02  0.25733534446E+02  0.00000000000E+00 0. -1.
</event>
<event>
 7    1  0.3223600E-013  0.5930195E+02  0.7816164E-02  0.1266605E+00
        -11   -1    0    0    0    0  0.00000000000E+00  0.00000000000E+00  0.45593999997E+02  0.45594000000E+02  0.51100000000E-03 0. -1.
         11   -1    0    0    0    0 -0.00000000000E+00 -0.00000000000E+00 -0.45593999997E+02  0.45594000000E+02  0.51100000000E-03 0.  1.
    9900012    2    1    2    0    0  0.17773935313E+02 -0.25874853796E+02  0.55946043631E+01  0.59301946098E+02  0.50000003776E+02 0.  0.
         12    1    1    2    0    0 -0.17773935313E+02  0.25874853796E+02 -0.55946043631E+01  0.31886053902E+02  0.00000000000E+00 0. -1.
         11    1    3    3    0    0 -0.15885581442E+02 -0.63202690170E+01  0.57759794359E+00  0.17106464212E+02  0.51100000000E-03 0.  1.
        -11    1    3    3    0    0  0.10605477912E+01 -0.19274858135E+01  0.46387938148E+01  0.51340404650E+01  0.51100000000E-03 0. -1.
        -12    1    3    3    0    0  0.32598968964E+02 -0.17627098965E+02  0.37821260478E+00  0.37061441421E+02  0.00000000000E+00 0.  1.
</event>
<event>
 7    1  0.3223600E-013  0.5930194E+02  0.7816164E-02  0.1266605E+00
        -11   -1    0    0    0    0  0.00000000000E+00  0.00000000000E+00  0.45593999997E+02  0.45594000000E+02  0.51100000000E-03 0. -1.
         11   -1    0    0    0    0 -0.00000000000E+00 -0.00000000000E+00 -0.45593999997E+02  0.45594000000E+02  0.51100000000E-03 0.  1.
    9900012    2    1    2    0    0 -0.27973016127E+02 -0.13387688641E+02 -0.74162818630E+01  0.59301936037E+02  0.49999985426E+02 0.  0.
         12    1    1    2    0    0  0.27973016127E+02  0.13387688641E+02  0.74162818630E+01  0.31886063963E+02  0.00000000000E+00 0. -1.
         11    1    3    3    0    0  0.77384650999E+01  0.66202712759E+01 -0.45889067107E+01  0.11170044715E+02  0.51100000000E-03 0. -1.
        -11    1    3    3    0    0  0.30094633033E+01 -0.49392589815E+01 -0.31395385012E+01  0.65810220271E+01  0.51100000000E-03 0.  1.
         12    1    3    3    0    0 -0.38720944530E+02 -0.15068700936E+02  0.31216334885E+00  0.41550869295E+02  0.00000000000E+00 0. -1.
</event>
<event>
 7    1  0.3223600E-013  0.5930195E+02  0.7816164E-02  0.1266605E+00
        -11   -1    0    0    0    0  0.00000000000E+00  0.00000000000E+00  0.45593999997E+02  0.45594000000E+02  0.51100000000E-03 0.  1.
         11   -1    0    0    0    0 -0.00000000000E+00 -0.00000000000E+00 -0.45593999997E+02  0.45594000000E+02  0.51100000000E-03 0. -1.
    9900012    2    1    2    0    0  0.25274553130E+02  0.18273754748E+02  0.66322528013E+01  0.59301954060E+02  0.50000018296E+02 0.  0.
         12    1    1    2    0    0 -0.25274553130E+02 -0.18273754748E+02 -0.66322528013E+01  0.31886045940E+02  0.00000000000E+00 0. -1.
         11    1    3    3    0    0  0.11007947990E+02  0.20049977218E+02 -0.79132445636E+01  0.24203221793E+02  0.51100000000E-03 0. -1.
        -11    1    3    3    0    0  0.82732836778E+01  0.98611667504E-01 -0.81119812402E+01  0.11587112970E+02  0.51100000000E-03 0.  1.
        -12    1    3    3    0    0  0.59933214618E+01 -0.18748341379E+01  0.22657478605E+02  0.23511619296E+02  0.00000000000E+00 0.  1.
</event>
<event>
 7    1  0.3223600E-013  0.5930195E+02  0.7816164E-02  0.1266605E+00
        -11   -1    0    0    0    0  0.00000000000E+00  0.00000000000E+00  0.45593999997E+02  0.45594000000E+02  0.51100000000E-03 0. -1.
         11   -1    0    0    0    0 -0.00000000000E+00 -0.00000000000E+00 -0.45593999997E+02  0.45594000000E+02  0.51100000000E-03 0.  1.
    9900012    2    1    2    0    0  0.16707822437E+02 -0.27040569584E+02  0.25251313771E+01  0.59301952543E+02  0.50000015529E+02 0.  0.
         12    1    1    2    0    0 -0.16707822437E+02  0.27040569584E+02 -0.25251313771E+01  0.31886047457E+02  0.00000000000E+00 0. -1.
         11    1    3    3    0    0  0.68229321102E+01 -0.42542872117E+01  0.13094629019E+02  0.15366218522E+02  0.51100000000E-03 0. -1.
        -11    1    3    3    0    0 -0.38074849375E+01 -0.19430937358E+02  0.73631682617E+01  0.21125210419E+02  0.51100000000E-03 0.  1.
        -12    1    3    3    0    0  0.13692375264E+02 -0.33553450143E+01 -0.17932665904E+02  0.22810523601E+02  0.00000000000E+00 0.  1.
</event>
<event>
 7    1  0.3223600E-013  0.5930194E+02  0.7816164E-02  0.1266605E+00
        -11   -1    0    0    0    0  0.00000000000E+00  0.00000000000E+00  0.45593999997E+02  0.45594000000E+02  0.51100000000E-03 0.  1.
         11   -1    0    0    0    0 -0.00000000000E+00 -0.00000000000E+00 -0.45593999997E+02  0.45594000000E+02  0.51100000000E-03 0. -1.
    9900012    2    1    2    0    0 -0.29523331572E+02 -0.11114440966E+02 -0.46435817581E+01  0.59301941030E+02  0.49999994534E+02 0.  0.
         12    1    1    2    0    0  0.29523331572E+02  0.11114440966E+02  0.46435817581E+01  0.31886058970E+02  0.00000000000E+00 0. -1.
         11    1    3    3    0    0 -0.20046210058E+02 -0.34873381875E+01 -0.67394503296E+01  0.21434370911E+02  0.51100000000E-03 0. -1.
        -11    1    3    3    0    0 -0.17839065638E+02  0.64804404003E+01  0.77779292435E+01  0.20511571227E+02  0.51100000000E-03 0.  1.
        -12    1    3    3    0    0  0.83619441248E+01 -0.14107543178E+02 -0.56820606720E+01  0.17355998893E+02  0.00000000000E+00 0.  1.
</event>
<event>
 7    1  0.3223600E-013  0.5930196E+02  0.7816164E-02  0.1266605E+00
        -11   -1    0    0    0    0  0.00000000000E+00  0.00000000000E+00  0.45593999997E+02  0.45594000000E+02  0.51100000000E-03 0.  1.
         11   -1    0    0    0    0 -0.00000000000E+00 -0.00000000000E+00 -0.45593999997E+02  0.45594000000E+02  0.51100000000E-03 0. -1.
    9900012    2    1    2    0    0  0.22936633093E+02  0.21374535991E+02  0.58102964478E+01  0.59301961185E+02  0.50000031291E+02 0.  0.
         12    1    1    2    0    0 -0.22936633093E+02 -0.21374535991E+02 -0.58102964478E+01  0.31886038815E+02  0.00000000000E+00 0. -1.
         11    1    3    3    0    0  0.57959182105E+01  0.12518839929E+02 -0.19357193316E+02  0.23770043214E+02  0.51100000000E-03 0. -1.
        -11    1    3    3    0    0  0.70291593486E+01 -0.40311775073E+01  0.12172746197E+02  0.14623105808E+02  0.51100000000E-03 0.  1.
        -12    1    3    3    0    0  0.10111555534E+02  0.12886873570E+02  0.12994743567E+02  0.20908812163E+02  0.00000000000E+00 0.  1.
</event>
<event>
 7    1  0.3223600E-013  0.5930200E+02  0.7816164E-02  0.1266605E+00
        -11   -1    0    0    0    0  0.00000000000E+00  0.00000000000E+00  0.45593999997E+02  0.45594000000E+02  0.51100000000E-03 0.  1.
         11   -1    0    0    0    0 -0.00000000000E+00 -0.00000000000E+00 -0.45593999997E+02  0.45594000000E+02  0.51100000000E-03 0. -1.
    9900012    2    1    2    0    0  0.19804475535E+02  0.19499181569E+02  0.15629518438E+02  0.59301997119E+02  0.50000096826E+02 0.  0.
         12    1    1    2    0    0 -0.19804475535E+02 -0.19499181569E+02 -0.15629518438E+02  0.31886002881E+02  0.00000000000E+00 0. -1.
         11    1    3    3    0    0 -0.57676329713E+01 -0.25271640832E+01  0.85304321605E+01  0.10602849688E+02  0.51100000000E-03 0. -1.
        -11    1    3    3    0    0 -0.57663436919E+01  0.89550983042E+01 -0.60937558976E+01  0.12271037707E+02  0.51100000000E-03 0.  1.
        -12    1    3    3    0    0  0.31338452198E+02  0.13071247348E+02  0.13192842175E+02  0.36428109724E+02  0.00000000000E+00 0.  1.
</event>
<event>
 7    1  0.3223600E-013  0.5930196E+02  0.7816164E-02  0.1266605E+00
        -11   -1    0    0    0    0  0.00000000000E+00  0.00000000000E+00  0.45593999997E+02  0.45594000000E+02  0.51100000000E-03 0. -1.
         11   -1    0    0    0    0 -0.00000000000E+00 -0.00000000000E+00 -0.45593999997E+02  0.45594000000E+02  0.51100000000E-03 0.  1.
    9900012    2    1    2    0    0 -0.23414275851E+02  0.36707872934E+01 -0.21331120173E+02  0.59301957900E+02  0.50000025300E+02 0.  0.
         12    1    1    2    0    0  0.23414275851E+02 -0.36707872934E+01  0.21331120173E+02  0.31886042100E+02  0.00000000000E+00 0. -1.
         11    1    3    3    0    0 -0.12274029035E+01  0.11547309991E+02  0.34004350201E+01  0.12099993574E+02  0.51100000000E-03 0. -1.
        -11    1    3    3    0    0 -0.18221942075E+02  0.92230918932E+01 -0.20926960464E+02  0.29241105854E+02  0.51100000000E-03 0.  1.
         12    1    3    3    0    0 -0.39649308726E+01 -0.17099614591E+02 -0.38045947286E+01  0.17960858471E+02  0.00000000000E+00 0. -1.
</event>
<event>
 7    1  0.3223600E-013  0.5930195E+02  0.7816164E-02  0.1266605E+00
        -11   -1    0    0    0    0  0.00000000000E+00  0.00000000000E+00  0.45593999997E+02  0.45594000000E+02  0.51100000000E-03 0.  1.
         11   -1    0    0    0    0 -0.00000000000E+00 -0.00000000000E+00 -0.45593999997E+02  0.45594000000E+02  0.51100000000E-03 0. -1.
    9900012    2    1    2    0    0  0.47856847365E+01 -0.31505354707E+02 -0.11090383394E+01  0.59301951018E+02  0.50000012749E+02 0.  0.
         12    1    1    2    0    0 -0.47856847365E+01  0.31505354707E+02  0.11090383394E+01  0.31886048982E+02  0.00000000000E+00 0. -1.
         11    1    3    3    0    0 -0.48040800655E+01 -0.21297456913E+02 -0.17467744156E+02  0.27960381657E+02  0.51100000000E-03 0. -1.
        -11    1    3    3    0    0  0.58814094988E+01 -0.16867324031E+02  0.67952539941E+01  0.19112118531E+02  0.51100000000E-03 0.  1.
        -12    1    3    3    0    0  0.37083553033E+01  0.66594262357E+01  0.95634518228E+01  0.12229450830E+02  0.00000000000E+00 0.  1.
</event>
<event>
 7    1  0.3223600E-013  0.5930206E+02  0.7816164E-02  0.1266604E+00
        -11   -1    0    0    0    0  0.00000000000E+00  0.00000000000E+00  0.45593999997E+02  0.45594000000E+02  0.51100000000E-03 0.  1.
         11   -1    0    0    0    0 -0.00000000000E+00 -0.00000000000E+00 -0.45593999997E+02  0.45594000000E+02  0.51100000000E-03 0. -1.
    9900012    2    1    2    0    0  0.12729849480E+02 -0.19129234861E+02  0.22107379259E+02  0.59302064043E+02  0.50000218879E+02 0.  0.
         12    1    1    2    0    0 -0.12729849480E+02  0.19129234861E+02 -0.22107379259E+02  0.31885935957E+02  0.00000000000E+00 0. -1.
         11    1    3    3    0    0 -0.40388804194E+01  0.45501817737E+01  0.17104646359E+02  0.18154493563E+02  0.51100000000E-03 0. -1.
        -11    1    3    3    0    0  0.15542277070E+02 -0.26622621296E+01  0.11036374148E+02  0.19247118505E+02  0.51100000000E-03 0.  1.
         12    1    3    3    0    0  0.12264528294E+01 -0.21017154505E+02 -0.60336412474E+01  0.21900451975E+02  0.00000000000E+00 0. -1.
</event>
<event>
 7    1  0.3223600E-013  0.5930194E+02  0.7816164E-02  0.1266605E+00
        -11   -1    0    0    0    0  0.00000000000E+00  0.00000000000E+00  0.45593999997E+02  0.45594000000E+02  0.51100000000E-03 0. -1.
         11   -1    0    0    0    0 -0.00000000000E+00 -0.00000000000E+00 -0.45593999997E+02  0.45594000000E+02  0.51100000000E-03 0.  1.
    9900012    2    1    2    0    0  0.15756582628E+02  0.92223801319E+01 -0.26141894669E+02  0.59301939593E+02  0.49999991911E+02 0.  0.
         12    1    1    2    0    0 -0.15756582628E+02 -0.92223801319E+01  0.26141894669E+02  0.31886060407E+02  0.00000000000E+00 0. -1.
         11    1    3    3    0    0  0.10194197175E+02 -0.11754525668E+02 -0.10982510529E+02  0.19044843593E+02  0.51100000000E-03 0.  1.
        -11    1    3    3    0    0 -0.98335953299E+01  0.19406002761E+02 -0.77047687756E+01  0.23079341464E+02  0.51100000000E-03 0. -1.
         12    1    3    3    0    0  0.15395980783E+02  0.15709030386E+01 -0.74546153645E+01  0.17177754535E+02  0.00000000000E+00 0. -1.
</event>
<event>
 7    1  0.3223600E-013  0.5930193E+02  0.7816164E-02  0.1266605E+00
        -11   -1    0    0    0    0  0.00000000000E+00  0.00000000000E+00  0.45593999997E+02  0.45594000000E+02  0.51100000000E-03 0.  1.
         11   -1    0    0    0    0 -0.00000000000E+00 -0.00000000000E+00 -0.45593999997E+02  0.45594000000E+02  0.51100000000E-03 0. -1.
    9900012    2    1    2    0    0 -0.20393988227E+01 -0.33133319187E+01  0.31647809874E+02  0.59301934301E+02  0.49999982260E+02 0.  0.
         12    1    1    2    0    0  0.20393988227E+01  0.33133319187E+01 -0.31647809874E+02  0.31886065699E+02  0.00000000000E+00 0. -1.
         11    1    3    3    0    0 -0.14410742070E+02  0.88304854090E+01  0.21817456567E+02  0.27597977659E+02  0.51100000000E-03 0.  1.
        -11    1    3    3    0    0 -0.29514806717E+00 -0.16137734885E+02  0.87982389768E+01  0.18382671431E+02  0.51100000000E-03 0. -1.
        -12    1    3    3    0    0  0.12666491314E+02  0.39939175574E+01  0.10321143305E+01  0.13321285211E+02  0.00000000000E+00 0.  1.
</event>
<event>
 7    1  0.3223600E-013  0.5930194E+02  0.7816164E-02  0.1266605E+00
        -11   -1    0    0    0    0  0.00000000000E+00  0.00000000000E+00  0.45593999997E+02  0.45594000000E+02  0.51100000000E-03 0.  1.
         11   -1    0    0    0    0 -0.00000000000E+00 -0.00000000000E+00 -0.45593999997E+02  0.45594000000E+02  0.51100000000E-03 0. -1.
    9900012    2    1    2    0    0  0.29951924319E+02  0.48892903852E+01 -0.97825248196E+01  0.59301941561E+02  0.49999995502E+02 0.  0.
         12    1    1    2    0    0 -0.29951924319E+02 -0.48892903852E+01  0.97825248196E+01  0.31886058439E+02  0.00000000000E+00 0. -1.
         11    1    3    3    0    0  0.49226815300E+01 -0.15544778675E+02 -0.15009606947E+02  0.22162157803E+02  0.51100000000E-03 0. -1.
        -11    1    3    3    0    0 -0.89096567686E+00  0.19402505966E+01 -0.35216421153E+01  0.41182952377E+01  0.51100000000E-03 0.  1.
        -12    1    3    3    0    0  0.25920208466E+02  0.18493818463E+02  0.87487242431E+01  0.33021488521E+02  0.00000000000E+00 0.  1.
</event>
<event>
 7    1  0.3223600E-013  0.5930195E+02  0.7816164E-02  0.1266605E+00
        -11   -1    0    0    0    0  0.00000000000E+00  0.00000000000E+00  0.45593999997E+02  0.45594000000E+02  0.51100000000E-03 0.  1.
         11   -1    0    0    0    0 -0.00000000000E+00 -0.00000000000E+00 -0.45593999997E+02  0.45594000000E+02  0.51100000000E-03 0. -1.
    9900012    2    1    2    0    0 -0.16179205317E+02  0.16378517506E+02  0.22061225664E+02  0.59301949787E+02  0.50000010504E+02 0.  0.
         12    1    1    2    0    0  0.16179205317E+02 -0.16378517506E+02 -0.22061225664E+02  0.31886050213E+02  0.00000000000E+00 0. -1.
         11    1    3    3    0    0 -0.40490189766E+01 -0.54543410117E+01  0.58599178332E+01  0.89712333499E+01  0.51100000000E-03 0. -1.
        -11    1    3    3    0    0 -0.18516429193E+02  0.73993414542E+01  0.25221540585E+02  0.32151742002E+02  0.51100000000E-03 0.  1.
         12    1    3    3    0    0  0.63862428528E+01  0.14433517063E+02 -0.90202327539E+01  0.18178974435E+02  0.00000000000E+00 0. -1.
</event>
<event>
 7    1  0.3223600E-013  0.5930191E+02  0.7816164E-02  0.1266605E+00
        -11   -1    0    0    0    0  0.00000000000E+00  0.00000000000E+00  0.45593999997E+02  0.45594000000E+02  0.51100000000E-03 0.  1.
         11   -1    0    0    0    0 -0.00000000000E+00 -0.00000000000E+00 -0.45593999997E+02  0.45594000000E+02  0.51100000000E-03 0. -1.
    9900012    2    1    2    0    0 -0.10664137918E+02 -0.20555284925E+01  0.29979558424E+02  0.59301906507E+02  0.49999931571E+02 0.  0.
         12    1    1    2    0    0  0.10664137918E+02  0.20555284925E+01 -0.29979558424E+02  0.31886093493E+02  0.00000000000E+00 0. -1.
         11    1    3    3    0    0 -0.38274693442E+01 -0.18047958558E+02 -0.19227538805E+01  0.18549267167E+02  0.51100000000E-03 0. -1.
        -11    1    3    3    0    0  0.11644634018E+01 -0.38005826104E+01  0.58031132388E+01  0.70339552683E+01  0.51100000000E-03 0.  1.
        -12    1    3    3    0    0 -0.80011319760E+01  0.19793012675E+02  0.26099199066E+02  0.33718684072E+02  0.00000000000E+00 0.  1.
</event>
<event>
 7    1  0.3223600E-013  0.5930194E+02  0.7816164E-02  0.1266605E+00
        -11   -1    0    0    0    0  0.00000000000E+00  0.00000000000E+00  0.45593999997E+02  0.45594000000E+02  0.51100000000E-03 0.  1.
         11   -1    0    0    0    0 -0.00000000000E+00 -0.00000000000E+00 -0.45593999997E+02  0.45594000000E+02  0.51100000000E-03 0. -1.
    9900012    2    1    2    0    0  0.14190990368E+02 -0.17858123897E+02  0.22280574566E+02  0.59301940355E+02  0.49999993301E+02 0.  0.
         12    1    1    2    0    0 -0.14190990368E+02  0.17858123897E+02 -0.22280574566E+02  0.31886059645E+02  0.00000000000E+00 0. -1.
         11    1    3    3    0    0  0.22786568474E+01 -0.32418393418E+02  0.14725445410E+02  0.35678890840E+02  0.51100000000E-03 0. -1.
        -11    1    3    3    0    0  0.28711249640E+01 -0.14072855364E+01  0.36685150305E+01  0.48663964008E+01  0.51100000000E-03 0.  1.
         12    1    3    3    0    0  0.90412085563E+01  0.15967555057E+02  0.38866141254E+01  0.18756653114E+02  0.00000000000E+00 0. -1.
</event>
<event>
 7    1  0.3223600E-013  0.5930194E+02  0.7816164E-02  0.1266605E+00
        -11   -1    0    0    0    0  0.00000000000E+00  0.00000000000E+00  0.45593999997E+02  0.45594000000E+02  0.51100000000E-03 0.  1.
         11   -1    0    0    0    0 -0.00000000000E+00 -0.00000000000E+00 -0.45593999997E+02  0.45594000000E+02  0.51100000000E-03 0. -1.
    9900012    2    1    2    0    0  0.41244047525E+01 -0.21421804742E+02  0.23255453780E+02  0.59301944059E+02  0.50000000058E+02 0.  0.
         12    1    1    2    0    0 -0.41244047525E+01  0.21421804742E+02 -0.23255453780E+02  0.31886055941E+02  0.00000000000E+00 0. -1.
         11    1    3    3    0    0 -0.81230215789E+00 -0.58675197228E+01  0.30250278691E+01  0.66511966114E+01  0.51100000000E-03 0. -1.
        -11    1    3    3    0    0 -0.98971087407E+01  0.11146288234E+02  0.15910708557E+02  0.21802365694E+02  0.51100000000E-03 0.  1.
         12    1    3    3    0    0  0.14833815651E+02 -0.26700573253E+02  0.43197173534E+01  0.30848381754E+02  0.00000000000E+00 0. -1.
</event>
<event>
 7    1  0.3223600E-013  0.5930195E+02  0.7816164E-02  0.1266605E+00
        -11   -1    0    0    0    0  0.00000000000E+00  0.00000000000E+00  0.45593999997E+02  0.45594000000E+02  0.51100000000E-03 0. -1.
         11   -1    0    0    0    0 -0.00000000000E+00 -0.00000000000E+00 -0.45593999997E+02  0.45594000000E+02  0.51100000000E-03 0.  1.
    9900012    2    1    2    0    0  0.28392442658E+02  0.55152413462E+01 -0.13422803750E+02  0.59301947442E+02  0.50000006227E+02 0.  0.
         12    1    1    2    0    0 -0.28392442658E+02 -0.55152413462E+01  0.13422803750E+02  0.31886052558E+02  0.00000000000E+00 0. -1.
         11    1    3    3    0    0  0.18586842251E+02 -0.84001357149E+01 -0.87484985152E+01  0.22193900320E+02  0.51100000000E-03 0. -1.
        -11    1    3    3    0    0  0.12127255047E+02  0.81083175311E+01 -0.17533483058E+02  0.22808729833E+02  0.51100000000E-03 0.  1.
         12    1    3    3    0    0 -0.23216546397E+01  0.58070595300E+01  0.12859177823E+02  0.14299317289E+02  0.00000000000E+00 0. -1.
</event>
<event>
 7    1  0.3223600E-013  0.5930197E+02  0.7816164E-02  0.1266605E+00
        -11   -1    0    0    0    0  0.00000000000E+00  0.00000000000E+00  0.45593999997E+02  0.45594000000E+02  0.51100000000E-03 0.  1.
         11   -1    0    0    0    0 -0.00000000000E+00 -0.00000000000E+00 -0.45593999997E+02  0.45594000000E+02  0.51100000000E-03 0. -1.
    9900012    2    1    2    0    0 -0.27005506187E+02  0.82386728718E+01  0.14817087753E+02  0.59301965681E+02  0.50000039491E+02 0.  0.
         12    1    1    2    0    0  0.27005506187E+02 -0.82386728718E+01 -0.14817087753E+02  0.31886034319E+02  0.00000000000E+00 0. -1.
         11    1    3    3    0    0  0.16638674893E+01 -0.34190171930E+00 -0.28307299450E+01  0.33012700723E+01  0.51100000000E-03 0. -1.
        -11    1    3    3    0    0 -0.27582949322E+02  0.12416852418E+02 -0.69869387706E+01  0.31045364080E+02  0.51100000000E-03 0.  1.
         12    1    3    3    0    0 -0.10864243543E+01 -0.38362778270E+01  0.24634756469E+02  0.24955331529E+02  0.00000000000E+00 0. -1.
</event>
<event>
 7    1  0.3223600E-013  0.5930198E+02  0.7816164E-02  0.1266605E+00
        -11   -1    0    0    0    0  0.00000000000E+00  0.00000000000E+00  0.45593999997E+02  0.45594000000E+02  0.51100000000E-03 0. -1.
         11   -1    0    0    0    0 -0.00000000000E+00 -0.00000000000E+00 -0.45593999997E+02  0.45594000000E+02  0.51100000000E-03 0.  1.
    9900012    2    1    2    0    0  0.13654716589E+02 -0.28735812120E+02 -0.21260823135E+01  0.59301977838E+02  0.50000061662E+02 0.  0.
         12    1    1    2    0    0 -0.13654716589E+02  0.28735812120E+02  0.21260823135E+01  0.31886022162E+02  0.00000000000E+00 0. -1.
         11    1    3    3    0    0 -0.12492322905E+01  0.20034383666E+01  0.29963208872E+01  0.38147458270E+01  0.51100000000E-03 0. -1.
        -11    1    3    3    0    0 -0.67038159966E+01 -0.12693926516E+02 -0.19230801708E+02  0.23997930200E+02  0.51100000000E-03 0.  1.
         12    1    3    3    0    0  0.21607764876E+02 -0.18045323971E+02  0.14108398507E+02  0.31489301811E+02  0.00000000000E+00 0. -1.
</event>
<event>
 7    1  0.3223600E-013  0.5930194E+02  0.7816164E-02  0.1266605E+00
        -11   -1    0    0    0    0  0.00000000000E+00  0.00000000000E+00  0.45593999997E+02  0.45594000000E+02  0.51100000000E-03 0. -1.
         11   -1    0    0    0    0 -0.00000000000E+00 -0.00000000000E+00 -0.45593999997E+02  0.45594000000E+02  0.51100000000E-03 0.  1.
    9900012    2    1    2    0    0  0.20733835276E+02 -0.23623065934E+02 -0.53646552934E+01  0.59301941984E+02  0.49999996274E+02 0.  0.
         12    1    1    2    0    0 -0.20733835276E+02  0.23623065934E+02  0.53646552934E+01  0.31886058016E+02  0.00000000000E+00 0. -1.
         11    1    3    3    0    0 -0.57999760764E+01 -0.46894461296E+01  0.34842321242E+01  0.82322840844E+01  0.51100000000E-03 0. -1.
        -11    1    3    3    0    0 -0.14627005889E+01 -0.21428296681E+02  0.39317182783E+00  0.21481759146E+02  0.51100000000E-03 0.  1.
         12    1    3    3    0    0  0.27996511941E+02  0.24946768768E+01 -0.92420592455E+01  0.29587898754E+02  0.00000000000E+00 0. -1.
</event>
<event>
 7    1  0.3223600E-013  0.5930193E+02  0.7816164E-02  0.1266605E+00
        -11   -1    0    0    0    0  0.00000000000E+00  0.00000000000E+00  0.45593999997E+02  0.45594000000E+02  0.51100000000E-03 0.  1.
         11   -1    0    0    0    0 -0.00000000000E+00 -0.00000000000E+00 -0.45593999997E+02  0.45594000000E+02  0.51100000000E-03 0. -1.
    9900012    2    1    2    0    0 -0.11849129297E+02  0.28862083601E+02  0.65802751077E+01  0.59301925369E+02  0.49999965970E+02 0.  0.
         12    1    1    2    0    0  0.11849129297E+02 -0.28862083601E+02 -0.65802751077E+01  0.31886074631E+02  0.00000000000E+00 0. -1.
         11    1    3    3    0    0 -0.14367221057E+02  0.24154105683E+02  0.21292220236E+02  0.35258991833E+02  0.51100000000E-03 0.  1.
        -11    1    3    3    0    0 -0.60347421978E+01  0.61777194955E+01 -0.23700672060E+01  0.89554201678E+01  0.51100000000E-03 0. -1.
        -12    1    3    3    0    0  0.85528339572E+01 -0.14697415771E+01 -0.12341877922E+02  0.15087513368E+02  0.00000000000E+00 0.  1.
</event>
<event>
 7    1  0.3223600E-013  0.5930197E+02  0.7816164E-02  0.1266605E+00
        -11   -1    0    0    0    0  0.00000000000E+00  0.00000000000E+00  0.45593999997E+02  0.45594000000E+02  0.51100000000E-03 0.  1.
         11   -1    0    0    0    0 -0.00000000000E+00 -0.00000000000E+00 -0.45593999997E+02  0.45594000000E+02  0.51100000000E-03 0. -1.
    9900012    2    1    2    0    0 -0.26817824541E+02  0.10812702084E+02  0.13439076235E+02  0.59301968426E+02  0.50000044496E+02 0.  0.
         12    1    1    2    0    0  0.26817824541E+02 -0.10812702084E+02 -0.13439076235E+02  0.31886031574E+02  0.00000000000E+00 0. -1.
         11    1    3    3    0    0 -0.20058269386E+02  0.22456506337E+01 -0.47834554182E-01  0.20183642039E+02  0.51100000000E-03 0.  1.
        -11    1    3    3    0    0  0.57020847902E-01  0.21255122836E+02  0.12552125142E+02  0.24684799857E+02  0.51100000000E-03 0. -1.
         12    1    3    3    0    0 -0.68165760028E+01 -0.12688071385E+02  0.93478564690E+00  0.14433526530E+02  0.00000000000E+00 0. -1.
</event>
<event>
 7    1  0.3223600E-013  0.5930194E+02  0.7816164E-02  0.1266605E+00
        -11   -1    0    0    0    0  0.00000000000E+00  0.00000000000E+00  0.45593999997E+02  0.45594000000E+02  0.51100000000E-03 0.  1.
         11   -1    0    0    0    0 -0.00000000000E+00 -0.00000000000E+00 -0.45593999997E+02  0.45594000000E+02  0.51100000000E-03 0. -1.
    9900012    2    1    2    0    0  0.30810400729E+02  0.15393102857E+01  0.80666238773E+01  0.59301942074E+02  0.49999996438E+02 0.  0.
         12    1    1    2    0    0 -0.30810400729E+02 -0.15393102857E+01 -0.80666238773E+01  0.31886057926E+02  0.00000000000E+00 0. -1.
         11    1    3    3    0    0  0.23745657267E+02 -0.11666705912E+01  0.13458165985E+02  0.27319216520E+02  0.51100000000E-03 0. -1.
        -11    1    3    3    0    0  0.72678248266E+01 -0.13492134759E+02 -0.27117608245E+01  0.15563181715E+02  0.51100000000E-03 0.  1.
         12    1    3    3    0    0 -0.20308136420E+00  0.16198115636E+02 -0.26797812832E+01  0.16419543840E+02  0.00000000000E+00 0. -1.
</event>
<event>
 7    1  0.3223600E-013  0.5930193E+02  0.7816164E-02  0.1266605E+00
        -11   -1    0    0    0    0  0.00000000000E+00  0.00000000000E+00  0.45593999997E+02  0.45594000000E+02  0.51100000000E-03 0. -1.
         11   -1    0    0    0    0 -0.00000000000E+00 -0.00000000000E+00 -0.45593999997E+02  0.45594000000E+02  0.51100000000E-03 0.  1.
    9900012    2    1    2    0    0  0.30937042739E+02  0.11435866138E+00  0.77205914035E+01  0.59301933718E+02  0.49999981198E+02 0.  0.
         12    1    1    2    0    0 -0.30937042739E+02 -0.11435866138E+00 -0.77205914035E+01  0.31886066282E+02  0.00000000000E+00 0. -1.
         11    1    3    3    0    0 -0.56805743408E+00 -0.95649203328E+01 -0.24123448786E+01  0.98807792352E+01  0.51100000000E-03 0. -1.
        -11    1    3    3    0    0  0.77343464046E+01 -0.67309376219E+01  0.16888008532E+02  0.19756782836E+02  0.51100000000E-03 0.  1.
        -12    1    3    3    0    0  0.23770753768E+02  0.16410216616E+02 -0.67550722503E+01  0.29664371647E+02  0.00000000000E+00 0.  1.
</event>
<event>
 7    1  0.3223600E-013  0.5930195E+02  0.7816164E-02  0.1266605E+00
        -11   -1    0    0    0    0  0.00000000000E+00  0.00000000000E+00  0.45593999997E+02  0.45594000000E+02  0.51100000000E-03 0. -1.
         11   -1    0    0    0    0 -0.00000000000E+00 -0.00000000000E+00 -0.45593999997E+02  0.45594000000E+02  0.51100000000E-03 0.  1.
    9900012    2    1    2    0    0  0.14879120715E+02  0.22070047919E+02 -0.17556902439E+02  0.59301951771E+02  0.50000014123E+02 0.  0.
         12    1    1    2    0    0 -0.14879120715E+02 -0.22070047919E+02  0.17556902439E+02  0.31886048229E+02  0.00000000000E+00 0. -1.
         11    1    3    3    0    0 -0.18045596833E+01  0.10008573516E+02 -0.90430890607E+01  0.13609020520E+02  0.51100000000E-03 0. -1.
        -11    1    3    3    0    0  0.90482462294E+01  0.25642754140E+02 -0.12007700355E+02  0.29725518798E+02  0.51100000000E-03 0.  1.
         12    1    3    3    0    0  0.76354341689E+01 -0.13581279738E+02  0.34938869769E+01  0.15967412454E+02  0.00000000000E+00 0. -1.
</event>
<event>
 7    1  0.3223600E-013  0.5930187E+02  0.7816164E-02  0.1266605E+00
        -11   -1    0    0    0    0  0.00000000000E+00  0.00000000000E+00  0.45593999997E+02  0.45594000000E+02  0.51100000000E-03 0.  1.
         11   -1    0    0    0    0 -0.00000000000E+00 -0.00000000000E+00 -0.45593999997E+02  0.45594000000E+02  0.51100000000E-03 0. -1.
    9900012    2    1    2    0    0  0.18611733180E+00 -0.31691290358E+02  0.35146747871E+01  0.59301867229E+02  0.49999859938E+02 0.  0.
         12    1    1    2    0    0 -0.18611733180E+00  0.31691290358E+02 -0.35146747871E+01  0.31886132771E+02  0.00000000000E+00 0. -1.
         11    1    3    3    0    0  0.42268542048E+01  0.71633912227E+01  0.12184327814E+02  0.14752569770E+02  0.51100000000E-03 0. -1.
        -11    1    3    3    0    0 -0.10336463488E+01 -0.16121708230E+02  0.61059276305E+01  0.17270212898E+02  0.51100000000E-03 0.  1.
         12    1    3    3    0    0 -0.30070905243E+01 -0.22732973350E+02 -0.14775580657E+02  0.27279084562E+02  0.00000000000E+00 0. -1.
</event>
<event>
 7    1  0.3223600E-013  0.5930184E+02  0.7816164E-02  0.1266605E+00
        -11   -1    0    0    0    0  0.00000000000E+00  0.00000000000E+00  0.45593999997E+02  0.45594000000E+02  0.51100000000E-03 0.  1.
         11   -1    0    0    0    0 -0.00000000000E+00 -0.00000000000E+00 -0.45593999997E+02  0.45594000000E+02  0.51100000000E-03 0. -1.
    9900012    2    1    2    0    0 -0.12929961766E+02 -0.27331002796E+02  0.10127169710E+02  0.59301840127E+02  0.49999810509E+02 0.  0.
         12    1    1    2    0    0  0.12929961766E+02  0.27331002796E+02 -0.10127169710E+02  0.31886159873E+02  0.00000000000E+00 0. -1.
         11    1    3    3    0    0  0.37707843744E+01 -0.23157181152E+01 -0.18682190873E+01  0.48032913722E+01  0.51100000000E-03 0. -1.
        -11    1    3    3    0    0  0.28481567041E+01 -0.71656117327E+01  0.24163353672E+02  0.25363865026E+02  0.51100000000E-03 0.  1.
        -12    1    3    3    0    0 -0.19548902844E+02 -0.17849672949E+02 -0.12167964874E+02  0.29134683729E+02  0.00000000000E+00 0.  1.
</event>
<event>
 7    1  0.3223600E-013  0.5930169E+02  0.7816164E-02  0.1266606E+00
        -11   -1    0    0    0    0  0.00000000000E+00  0.00000000000E+00  0.45593999997E+02  0.45594000000E+02  0.51100000000E-03 0. -1.
         11   -1    0    0    0    0 -0.00000000000E+00 -0.00000000000E+00 -0.45593999997E+02  0.45594000000E+02  0.51100000000E-03 0.  1.
    9900012    2    1    2    0    0 -0.15075492756E+00 -0.92853549866E+01 -0.30504040985E+02  0.59301685370E+02  0.49999528268E+02 0.  0.
         12    1    1    2    0    0  0.15075492756E+00  0.92853549866E+01  0.30504040985E+02  0.31886314630E+02  0.00000000000E+00 0. -1.
         11    1    3    3    0    0  0.85498339480E+01  0.14619528219E+02 -0.94317440874E+01  0.19385253743E+02  0.51100000000E-03 0. -1.
        -11    1    3    3    0    0 -0.43687582559E+01 -0.54629802634E+01 -0.19720601528E+02  0.20924443288E+02  0.51100000000E-03 0.  1.
        -12    1    3    3    0    0 -0.43318306197E+01 -0.18441902943E+02 -0.13516953703E+01  0.18991988338E+02  0.00000000000E+00 0.  1.
</event>
<event>
 7    1  0.3223600E-013  0.5930194E+02  0.7816164E-02  0.1266605E+00
        -11   -1    0    0    0    0  0.00000000000E+00  0.00000000000E+00  0.45593999997E+02  0.45594000000E+02  0.51100000000E-03 0.  1.
         11   -1    0    0    0    0 -0.00000000000E+00 -0.00000000000E+00 -0.45593999997E+02  0.45594000000E+02  0.51100000000E-03 0. -1.
    9900012    2    1    2    0    0 -0.85608832518E+01 -0.13769727158E+02  0.27455907203E+02  0.59301938023E+02  0.49999989049E+02 0.  0.
         12    1    1    2    0    0  0.85608832518E+01  0.13769727158E+02 -0.27455907203E+02  0.31886061977E+02  0.00000000000E+00 0. -1.
         11    1    3    3    0    0 -0.32883272943E+01  0.71045530820E+01 -0.14963880787E+01  0.79703794410E+01  0.51100000000E-03 0. -1.
        -11    1    3    3    0    0 -0.25298975935E+01  0.73262960856E+01  0.20264031369E+02  0.21695759119E+02  0.51100000000E-03 0.  1.
         12    1    3    3    0    0 -0.27426583640E+01 -0.28200576325E+02  0.86882639131E+01  0.29635799463E+02  0.00000000000E+00 0. -1.
</event>
<event>
 7    1  0.3223600E-013  0.5930197E+02  0.7816164E-02  0.1266605E+00
        -11   -1    0    0    0    0  0.00000000000E+00  0.00000000000E+00  0.45593999997E+02  0.45594000000E+02  0.51100000000E-03 0. -1.
         11   -1    0    0    0    0 -0.00000000000E+00 -0.00000000000E+00 -0.45593999997E+02  0.45594000000E+02  0.51100000000E-03 0.  1.
    9900012    2    1    2    0    0 -0.12834057358E+02 -0.28523556205E+02 -0.61978138579E+01  0.59301965699E+02  0.50000039523E+02 0.  0.
         12    1    1    2    0    0  0.12834057358E+02  0.28523556205E+02  0.61978138579E+01  0.31886034301E+02  0.00000000000E+00 0. -1.
         11    1    3    3    0    0 -0.85351489673E+01 -0.13945582307E+02  0.27500276965E+01  0.16579827694E+02  0.51100000000E-03 0. -1.
        -11    1    3    3    0    0 -0.17337739072E+02 -0.18999252941E+01 -0.15557566196E+02  0.23371880079E+02  0.51100000000E-03 0.  1.
         12    1    3    3    0    0  0.13038830681E+02 -0.12678048603E+02  0.66097246414E+01  0.19350257925E+02  0.00000000000E+00 0. -1.
</event>
<event>
 7    1  0.3223600E-013  0.5930196E+02  0.7816164E-02  0.1266605E+00
        -11   -1    0    0    0    0  0.00000000000E+00  0.00000000000E+00  0.45593999997E+02  0.45594000000E+02  0.51100000000E-03 0.  1.
         11   -1    0    0    0    0 -0.00000000000E+00 -0.00000000000E+00 -0.45593999997E+02  0.45594000000E+02  0.51100000000E-03 0. -1.
    9900012    2    1    2    0    0 -0.31620091600E+02  0.10899248550E+01 -0.39624673128E+01  0.59301964244E+02  0.50000036870E+02 0.  0.
         12    1    1    2    0    0  0.31620091600E+02 -0.10899248550E+01  0.39624673128E+01  0.31886035756E+02  0.00000000000E+00 0. -1.
         11    1    3    3    0    0 -0.84289082824E+01  0.29350785431E+01 -0.90661376467E+01  0.12722265246E+02  0.51100000000E-03 0.  1.
        -11    1    3    3    0    0 -0.15073730482E+02 -0.11874166677E+00 -0.17147479917E+02  0.22831283757E+02  0.51100000000E-03 0. -1.
        -12    1    3    3    0    0 -0.81174528356E+01 -0.17264120214E+01  0.22251150251E+02  0.23748415242E+02  0.00000000000E+00 0.  1.
</event>
<event>
 7    1  0.3223600E-013  0.5930194E+02  0.7816164E-02  0.1266605E+00
        -11   -1    0    0    0    0  0.00000000000E+00  0.00000000000E+00  0.45593999997E+02  0.45594000000E+02  0.51100000000E-03 0.  1.
         11   -1    0    0    0    0 -0.00000000000E+00 -0.00000000000E+00 -0.45593999997E+02  0.45594000000E+02  0.51100000000E-03 0. -1.
    9900012    2    1    2    0    0  0.19444167073E+02 -0.19478563738E+02  0.16100649112E+02  0.59301937523E+02  0.49999988137E+02 0.  0.
         12    1    1    2    0    0 -0.19444167073E+02  0.19478563738E+02 -0.16100649112E+02  0.31886062477E+02  0.00000000000E+00 0. -1.
         11    1    3    3    0    0  0.32511646710E+01 -0.22940281291E+01 -0.37214209556E+01  0.54480832377E+01  0.51100000000E-03 0. -1.
        -11    1    3    3    0    0  0.23679115378E+01  0.14904875582E+02  0.49910890085E+01  0.15895700390E+02  0.51100000000E-03 0.  1.
         12    1    3    3    0    0  0.13825090864E+02 -0.32089411190E+02  0.14830981059E+02  0.37958153895E+02  0.00000000000E+00 0. -1.
</event>
<event>
 7    1  0.3223600E-013  0.5930197E+02  0.7816164E-02  0.1266605E+00
        -11   -1    0    0    0    0  0.00000000000E+00  0.00000000000E+00  0.45593999997E+02  0.45594000000E+02  0.51100000000E-03 0. -1.
         11   -1    0    0    0    0 -0.00000000000E+00 -0.00000000000E+00 -0.45593999997E+02  0.45594000000E+02  0.51100000000E-03 0.  1.
    9900012    2    1    2    0    0 -0.95909153525E+01 -0.13879703064E+02 -0.27057103748E+02  0.59301973630E+02  0.50000053987E+02 0.  0.
         12    1    1    2    0    0  0.95909153525E+01  0.13879703064E+02  0.27057103748E+02  0.31886026370E+02  0.00000000000E+00 0. -1.
         11    1    3    3    0    0  0.14994257573E+01 -0.84050431022E+01 -0.19202993773E+02  0.21015422843E+02  0.51100000000E-03 0. -1.
        -11    1    3    3    0    0  0.12804720292E+02 -0.38015706507E+01 -0.45248386175E+01  0.14102729025E+02  0.51100000000E-03 0.  1.
         12    1    3    3    0    0 -0.23895061402E+02 -0.16730893113E+01 -0.33292713573E+01  0.24183821762E+02  0.00000000000E+00 0. -1.
</event>
<event>
 7    1  0.3223600E-013  0.5930194E+02  0.7816164E-02  0.1266605E+00
        -11   -1    0    0    0    0  0.00000000000E+00  0.00000000000E+00  0.45593999997E+02  0.45594000000E+02  0.51100000000E-03 0.  1.
         11   -1    0    0    0    0 -0.00000000000E+00 -0.00000000000E+00 -0.45593999997E+02  0.45594000000E+02  0.51100000000E-03 0. -1.
    9900012    2    1    2    0    0  0.20066851292E+02 -0.23941971461E+02 -0.63893788360E+01  0.59301942230E+02  0.49999996721E+02 0.  0.
         12    1    1    2    0    0 -0.20066851292E+02  0.23941971461E+02  0.63893788360E+01  0.31886057770E+02  0.00000000000E+00 0. -1.
         11    1    3    3    0    0 -0.73567048152E+00  0.29845443369E+01  0.55896931824E+01  0.63791367826E+01  0.51100000000E-03 0. -1.
        -11    1    3    3    0    0  0.27518775685E+01 -0.32428404661E+02 -0.94111009221E+01  0.33878357100E+02  0.51100000000E-03 0.  1.
         12    1    3    3    0    0  0.18050644205E+02  0.55018888631E+01 -0.25679710963E+01  0.19044448347E+02  0.00000000000E+00 0. -1.
</event>
<event>
 7    1  0.3223600E-013  0.5930193E+02  0.7816164E-02  0.1266605E+00
        -11   -1    0    0    0    0  0.00000000000E+00  0.00000000000E+00  0.45593999997E+02  0.45594000000E+02  0.51100000000E-03 0. -1.
         11   -1    0    0    0    0 -0.00000000000E+00 -0.00000000000E+00 -0.45593999997E+02  0.45594000000E+02  0.51100000000E-03 0.  1.
    9900012    2    1    2    0    0  0.19660371219E+02 -0.11418747643E+02 -0.22356278178E+02  0.59301934576E+02  0.49999982763E+02 0.  0.
         12    1    1    2    0    0 -0.19660371219E+02  0.11418747643E+02  0.22356278178E+02  0.31886065424E+02  0.00000000000E+00 0. -1.
         11    1    3    3    0    0 -0.70905610477E+01 -0.74620501131E+01 -0.47953328655E+00  0.10304765902E+02  0.51100000000E-03 0. -1.
        -11    1    3    3    0    0 -0.46670706934E+01 -0.95251442583E+01 -0.11014018426E+02  0.15291125667E+02  0.51100000000E-03 0.  1.
         12    1    3    3    0    0  0.31418002960E+02  0.55684467286E+01 -0.10862726465E+02  0.33706043008E+02  0.00000000000E+00 0. -1.
</event>
<event>
 7    1  0.3223600E-013  0.5930194E+02  0.7816164E-02  0.1266605E+00
        -11   -1    0    0    0    0  0.00000000000E+00  0.00000000000E+00  0.45593999997E+02  0.45594000000E+02  0.51100000000E-03 0.  1.
         11   -1    0    0    0    0 -0.00000000000E+00 -0.00000000000E+00 -0.45593999997E+02  0.45594000000E+02  0.51100000000E-03 0. -1.
    9900012    2    1    2    0    0  0.20259888766E+02 -0.21856663198E+02  0.11337738848E+02  0.59301935000E+02  0.49999983536E+02 0.  0.
         12    1    1    2    0    0 -0.20259888766E+02  0.21856663198E+02 -0.11337738848E+02  0.31886065000E+02  0.00000000000E+00 0. -1.
         11    1    3    3    0    0 -0.37353248264E+01 -0.68686752081E+01 -0.13594856407E+01  0.79359657347E+01  0.51100000000E-03 0. -1.
        -11    1    3    3    0    0  0.91903438797E+01 -0.28257310011E+02  0.97169312519E+01  0.31262705304E+02  0.51100000000E-03 0.  1.
         12    1    3    3    0    0  0.14804869713E+02  0.13269322022E+02  0.29802932370E+01  0.20103263962E+02  0.00000000000E+00 0. -1.
</event>
<event>
 7    1  0.3223600E-013  0.5930193E+02  0.7816164E-02  0.1266605E+00
        -11   -1    0    0    0    0  0.00000000000E+00  0.00000000000E+00  0.45593999997E+02  0.45594000000E+02  0.51100000000E-03 0.  1.
         11   -1    0    0    0    0 -0.00000000000E+00 -0.00000000000E+00 -0.45593999997E+02  0.45594000000E+02  0.51100000000E-03 0. -1.
    9900012    2    1    2    0    0 -0.11341614134E+02  0.29448177972E+02 -0.45709872001E+01  0.59301932180E+02  0.49999978393E+02 0.  0.
         12    1    1    2    0    0  0.11341614134E+02 -0.29448177972E+02  0.45709872001E+01  0.31886067820E+02  0.00000000000E+00 0. -1.
         11    1    3    3    0    0  0.29428231585E+01  0.17971962749E+01  0.61912039309E+01  0.70866867412E+01  0.51100000000E-03 0. -1.
        -11    1    3    3    0    0 -0.15717315366E+02  0.15763227776E+02  0.12877114480E+02  0.25716403905E+02  0.51100000000E-03 0.  1.
         12    1    3    3    0    0  0.14328780736E+01  0.11887753921E+02 -0.23639305611E+02  0.26498841534E+02  0.00000000000E+00 0. -1.
</event>
<event>
 7    1  0.3223600E-013  0.5930194E+02  0.7816164E-02  0.1266605E+00
        -11   -1    0    0    0    0  0.00000000000E+00  0.00000000000E+00  0.45593999997E+02  0.45594000000E+02  0.51100000000E-03 0.  1.
         11   -1    0    0    0    0 -0.00000000000E+00 -0.00000000000E+00 -0.45593999997E+02  0.45594000000E+02  0.51100000000E-03 0. -1.
    9900012    2    1    2    0    0  0.24406687886E+02  0.19305214324E+02 -0.69529087733E+01  0.59301942639E+02  0.49999997467E+02 0.  0.
         12    1    1    2    0    0 -0.24406687886E+02 -0.19305214324E+02  0.69529087733E+01  0.31886057361E+02  0.00000000000E+00 0. -1.
         11    1    3    3    0    0  0.14962303010E+02  0.12153465723E+02  0.82113748878E+01  0.20952420344E+02  0.51100000000E-03 0.  1.
        -11    1    3    3    0    0  0.10353525951E+02  0.97472430822E+01  0.71154141167E+01  0.15900734751E+02  0.51100000000E-03 0. -1.
         12    1    3    3    0    0 -0.90914107569E+00 -0.25954944818E+01 -0.22279697778E+02  0.22448787543E+02  0.00000000000E+00 0. -1.
</event>
<event>
 7    1  0.3223600E-013  0.5930196E+02  0.7816164E-02  0.1266605E+00
        -11   -1    0    0    0    0  0.00000000000E+00  0.00000000000E+00  0.45593999997E+02  0.45594000000E+02  0.51100000000E-03 0.  1.
         11   -1    0    0    0    0 -0.00000000000E+00 -0.00000000000E+00 -0.45593999997E+02  0.45594000000E+02  0.51100000000E-03 0. -1.
    9900012    2    1    2    0    0  0.17620562560E+02  0.10030938213E+02  0.24609259018E+02  0.59301959547E+02  0.50000028303E+02 0.  0.
         12    1    1    2    0    0 -0.17620562560E+02 -0.10030938213E+02 -0.24609259018E+02  0.31886040453E+02  0.00000000000E+00 0. -1.
         11    1    3    3    0    0  0.19506922720E+02  0.43189043298E+01  0.10381504256E+02  0.22515519081E+02  0.51100000000E-03 0. -1.
        -11    1    3    3    0    0  0.82705642666E+01  0.92126468026E+01  0.20790324019E+02  0.24197369020E+02  0.51100000000E-03 0.  1.
         12    1    3    3    0    0 -0.10156924426E+02 -0.35006129193E+01 -0.65625692570E+01  0.12589071446E+02  0.00000000000E+00 0. -1.
</event>
<event>
 7    1  0.3223600E-013  0.5930200E+02  0.7816164E-02  0.1266605E+00
        -11   -1    0    0    0    0  0.00000000000E+00  0.00000000000E+00  0.45593999997E+02  0.45594000000E+02  0.51100000000E-03 0.  1.
         11   -1    0    0    0    0 -0.00000000000E+00 -0.00000000000E+00 -0.45593999997E+02  0.45594000000E+02  0.51100000000E-03 0. -1.
    9900012    2    1    2    0    0  0.46146691235E+01 -0.13603567834E+02  0.28466906537E+02  0.59301999989E+02  0.50000102060E+02 0.  0.
         12    1    1    2    0    0 -0.46146691235E+01  0.13603567834E+02 -0.28466906537E+02  0.31886000011E+02  0.00000000000E+00 0. -1.
         11    1    3    3    0    0  0.61875538733E+01 -0.35201914216E+01 -0.74239037512E+01  0.10285519809E+02  0.51100000000E-03 0. -1.
        -11    1    3    3    0    0 -0.54470007010E+01 -0.16155248898E+02  0.56969649270E+01  0.17975463644E+02  0.51100000000E-03 0.  1.
        -12    1    3    3    0    0  0.38741159512E+01  0.60718724858E+01  0.30193845361E+02  0.31041016536E+02  0.00000000000E+00 0.  1.
</event>
<event>
 7    1  0.3223600E-013  0.5930194E+02  0.7816164E-02  0.1266605E+00
        -11   -1    0    0    0    0  0.00000000000E+00  0.00000000000E+00  0.45593999997E+02  0.45594000000E+02  0.51100000000E-03 0.  1.
         11   -1    0    0    0    0 -0.00000000000E+00 -0.00000000000E+00 -0.45593999997E+02  0.45594000000E+02  0.51100000000E-03 0. -1.
    9900012    2    1    2    0    0  0.98128155080E+01 -0.25950862238E+02  0.15715668020E+02  0.59301940030E+02  0.49999992709E+02 0.  0.
         12    1    1    2    0    0 -0.98128155080E+01  0.25950862238E+02 -0.15715668020E+02  0.31886059970E+02  0.00000000000E+00 0. -1.
         11    1    3    3    0    0 -0.30155949425E+01 -0.21102793585E+02  0.30234111359E+01  0.21530506848E+02  0.51100000000E-03 0. -1.
        -11    1    3    3    0    0  0.13945623487E+02 -0.17703008754E+02  0.64722263161E+01  0.23447103171E+02  0.51100000000E-03 0.  1.
         12    1    3    3    0    0 -0.11172130362E+01  0.12854940101E+02  0.62200305683E+01  0.14324330011E+02  0.00000000000E+00 0. -1.
</event>
<event>
 7    1  0.3223600E-013  0.5930185E+02  0.7816164E-02  0.1266605E+00
        -11   -1    0    0    0    0  0.00000000000E+00  0.00000000000E+00  0.45593999997E+02  0.45594000000E+02  0.51100000000E-03 0.  1.
         11   -1    0    0    0    0 -0.00000000000E+00 -0.00000000000E+00 -0.45593999997E+02  0.45594000000E+02  0.51100000000E-03 0. -1.
    9900012    2    1    2    0    0 -0.12913704013E+02 -0.28639644251E+02 -0.54528281244E+01  0.59301853968E+02  0.49999835753E+02 0.  0.
         12    1    1    2    0    0  0.12913704013E+02  0.28639644251E+02  0.54528281244E+01  0.31886146032E+02  0.00000000000E+00 0. -1.
         11    1    3    3    0    0 -0.17534171490E+02 -0.63905928014E+01 -0.15032890692E+02  0.23964028230E+02  0.51100000000E-03 0. -1.
        -11    1    3    3    0    0 -0.28209396155E+01 -0.18209871812E+02 -0.44445828777E+01  0.18955512363E+02  0.51100000000E-03 0.  1.
         12    1    3    3    0    0  0.74414070921E+01 -0.40391796382E+01  0.14024645445E+02  0.16382313375E+02  0.00000000000E+00 0. -1.
</event>
<event>
 7    1  0.3223600E-013  0.5930197E+02  0.7816164E-02  0.1266605E+00
        -11   -1    0    0    0    0  0.00000000000E+00  0.00000000000E+00  0.45593999997E+02  0.45594000000E+02  0.51100000000E-03 0.  1.
         11   -1    0    0    0    0 -0.00000000000E+00 -0.00000000000E+00 -0.45593999997E+02  0.45594000000E+02  0.51100000000E-03 0. -1.
    9900012    2    1    2    0    0 -0.15450835194E+02  0.26549198279E+02  0.85516435106E+01  0.59301971019E+02  0.50000049226E+02 0.  0.
         12    1    1    2    0    0  0.15450835194E+02 -0.26549198279E+02 -0.85516435106E+01  0.31886028981E+02  0.00000000000E+00 0. -1.
         11    1    3    3    0    0  0.89273073562E+01  0.30773490272E+01 -0.16275190293E+00  0.94442248020E+01  0.51100000000E-03 0. -1.
        -11    1    3    3    0    0  0.26496043769E+01  0.12313184153E+02 -0.91716431250E+01  0.15580563058E+02  0.51100000000E-03 0.  1.
        -12    1    3    3    0    0 -0.27027746927E+02  0.11158665098E+02  0.17886038539E+02  0.34277183159E+02  0.00000000000E+00 0.  1.
</event>
<event>
 7    1  0.3223600E-013  0.5930199E+02  0.7816164E-02  0.1266605E+00
        -11   -1    0    0    0    0  0.00000000000E+00  0.00000000000E+00  0.45593999997E+02  0.45594000000E+02  0.51100000000E-03 0.  1.
         11   -1    0    0    0    0 -0.00000000000E+00 -0.00000000000E+00 -0.45593999997E+02  0.45594000000E+02  0.51100000000E-03 0. -1.
    9900012    2    1    2    0    0 -0.18427073537E+02  0.25986398634E+02  0.13667268054E+01  0.59301985899E+02  0.50000076362E+02 0.  0.
         12    1    1    2    0    0  0.18427073537E+02 -0.25986398634E+02 -0.13667268054E+01  0.31886014101E+02  0.00000000000E+00 0. -1.
         11    1    3    3    0    0 -0.16565392195E+02  0.24501390962E+02 -0.33873752615E+01  0.29769190266E+02  0.51100000000E-03 0. -1.
        -11    1    3    3    0    0 -0.15175285931E+02  0.33259369076E+01  0.41439932107E+01  0.16078676544E+02  0.51100000000E-03 0.  1.
         12    1    3    3    0    0  0.13313604590E+02 -0.18409292356E+01  0.61010885618E+00  0.13454119089E+02  0.00000000000E+00 0. -1.
</event>
<event>
 7    1  0.3223600E-013  0.5930196E+02  0.7816164E-02  0.1266605E+00
        -11   -1    0    0    0    0  0.00000000000E+00  0.00000000000E+00  0.45593999997E+02  0.45594000000E+02  0.51100000000E-03 0.  1.
         11   -1    0    0    0    0 -0.00000000000E+00 -0.00000000000E+00 -0.45593999997E+02  0.45594000000E+02  0.51100000000E-03 0. -1.
    9900012    2    1    2    0    0  0.35417442117E+01 -0.24983823639E+02  0.19493176604E+02  0.59301963403E+02  0.50000035337E+02 0.  0.
         12    1    1    2    0    0 -0.35417442117E+01  0.24983823639E+02 -0.19493176604E+02  0.31886036597E+02  0.00000000000E+00 0. -1.
         11    1    3    3    0    0  0.10209746595E+01 -0.33613806960E+01 -0.12626229671E+02  0.13105836310E+02  0.51100000000E-03 0. -1.
        -11    1    3    3    0    0 -0.10902068769E+02 -0.58104829736E+01  0.13816771105E+02  0.18534291997E+02  0.51100000000E-03 0.  1.
        -12    1    3    3    0    0  0.13422838321E+02 -0.15811959970E+02  0.18302635170E+02  0.27661835096E+02  0.00000000000E+00 0.  1.
</event>
<event>
 7    1  0.3223600E-013  0.5930196E+02  0.7816164E-02  0.1266605E+00
        -11   -1    0    0    0    0  0.00000000000E+00  0.00000000000E+00  0.45593999997E+02  0.45594000000E+02  0.51100000000E-03 0. -1.
         11   -1    0    0    0    0 -0.00000000000E+00 -0.00000000000E+00 -0.45593999997E+02  0.45594000000E+02  0.51100000000E-03 0.  1.
    9900012    2    1    2    0    0  0.53497269395E+00  0.23163248104E+02 -0.21906562155E+02  0.59301957223E+02  0.50000024065E+02 0.  0.
         12    1    1    2    0    0 -0.53497269395E+00 -0.23163248104E+02  0.21906562155E+02  0.31886042777E+02  0.00000000000E+00 0. -1.
         11    1    3    3    0    0 -0.11183396544E+00 -0.10226394693E+01  0.38936059736E+01  0.40272156707E+01  0.51100000000E-03 0. -1.
        -11    1    3    3    0    0  0.16097033096E+02  0.23037767017E+02 -0.37900877653E+01  0.28358736734E+02  0.51100000000E-03 0.  1.
        -12    1    3    3    0    0 -0.15450226437E+02  0.11481205565E+01 -0.22010080363E+02  0.26916004818E+02  0.00000000000E+00 0.  1.
</event>
<event>
 7    1  0.3223600E-013  0.5930194E+02  0.7816164E-02  0.1266605E+00
        -11   -1    0    0    0    0  0.00000000000E+00  0.00000000000E+00  0.45593999997E+02  0.45594000000E+02  0.51100000000E-03 0.  1.
         11   -1    0    0    0    0 -0.00000000000E+00 -0.00000000000E+00 -0.45593999997E+02  0.45594000000E+02  0.51100000000E-03 0. -1.
    9900012    2    1    2    0    0  0.30734440654E+02 -0.39077573852E+01  0.75395233437E+01  0.59301939999E+02  0.49999992653E+02 0.  0.
         12    1    1    2    0    0 -0.30734440654E+02  0.39077573852E+01 -0.75395233437E+01  0.31886060001E+02  0.00000000000E+00 0. -1.
         11    1    3    3    0    0  0.68524603916E+01  0.17024376396E+00 -0.20430729903E+02  0.21549940162E+02  0.51100000000E-03 0. -1.
        -11    1    3    3    0    0  0.81491556480E+01 -0.50222490557E+01  0.11327591889E+02  0.14830578600E+02  0.51100000000E-03 0.  1.
        -12    1    3    3    0    0  0.15732824615E+02  0.94424790655E+00  0.16642661358E+02  0.22921421237E+02  0.00000000000E+00 0.  1.
</event>
<event>
 7    1  0.3223600E-013  0.5930191E+02  0.7816164E-02  0.1266605E+00
        -11   -1    0    0    0    0  0.00000000000E+00  0.00000000000E+00  0.45593999997E+02  0.45594000000E+02  0.51100000000E-03 0.  1.
         11   -1    0    0    0    0 -0.00000000000E+00 -0.00000000000E+00 -0.45593999997E+02  0.45594000000E+02  0.51100000000E-03 0. -1.
    9900012    2    1    2    0    0  0.27163356840E+02 -0.34674397941E+01  0.16335591944E+02  0.59301911220E+02  0.49999940166E+02 0.  0.
         12    1    1    2    0    0 -0.27163356840E+02  0.34674397941E+01 -0.16335591944E+02  0.31886088780E+02  0.00000000000E+00 0. -1.
         11    1    3    3    0    0  0.10891396906E+02  0.57286415038E+01 -0.96485850150E+01  0.15637616605E+02  0.51100000000E-03 0. -1.
        -11    1    3    3    0    0  0.72689364415E+01  0.91169267799E+01  0.14454597113E+01  0.11749261464E+02  0.51100000000E-03 0.  1.
         12    1    3    3    0    0  0.90030234927E+01 -0.18313008078E+02  0.24538717248E+02  0.31915033151E+02  0.00000000000E+00 0. -1.
</event>
<event>
 7    1  0.3223600E-013  0.5930184E+02  0.7816164E-02  0.1266605E+00
        -11   -1    0    0    0    0  0.00000000000E+00  0.00000000000E+00  0.45593999997E+02  0.45594000000E+02  0.51100000000E-03 0.  1.
         11   -1    0    0    0    0 -0.00000000000E+00 -0.00000000000E+00 -0.45593999997E+02  0.45594000000E+02  0.51100000000E-03 0. -1.
    9900012    2    1    2    0    0 -0.75423994927E+01 -0.20633733480E+02  0.23110349140E+02  0.59301843367E+02  0.49999816419E+02 0.  0.
         12    1    1    2    0    0  0.75423994927E+01  0.20633733480E+02 -0.23110349140E+02  0.31886156633E+02  0.00000000000E+00 0. -1.
         11    1    3    3    0    0 -0.98195080343E+01  0.12677693121E+02  0.11172425020E+02  0.19544045692E+02  0.51100000000E-03 0. -1.
        -11    1    3    3    0    0 -0.40554765469E+01 -0.78775930305E+01  0.10169536394E+02  0.13487877250E+02  0.51100000000E-03 0.  1.
        -12    1    3    3    0    0  0.63325850886E+01 -0.25433833571E+02  0.17683877262E+01  0.26269920426E+02  0.00000000000E+00 0.  1.
</event>
<event>
 7    1  0.3223600E-013  0.5930196E+02  0.7816164E-02  0.1266605E+00
        -11   -1    0    0    0    0  0.00000000000E+00  0.00000000000E+00  0.45593999997E+02  0.45594000000E+02  0.51100000000E-03 0. -1.
         11   -1    0    0    0    0 -0.00000000000E+00 -0.00000000000E+00 -0.45593999997E+02  0.45594000000E+02  0.51100000000E-03 0.  1.
    9900012    2    1    2    0    0  0.54567330931E+01  0.31311643919E+02  0.25543067090E+01  0.59301961304E+02  0.50000031508E+02 0.  0.
         12    1    1    2    0    0 -0.54567330931E+01 -0.31311643919E+02 -0.25543067090E+01  0.31886038696E+02  0.00000000000E+00 0. -1.
         11    1    3    3    0    0  0.12481037483E+02 -0.33660583909E+01 -0.34760398933E+01  0.13386168210E+02  0.51100000000E-03 0. -1.
        -11    1    3    3    0    0  0.62075510704E+01  0.57984534775E+01  0.10856817461E+02  0.13785000495E+02  0.51100000000E-03 0.  1.
        -12    1    3    3    0    0 -0.13231855461E+02  0.28879248832E+02 -0.48264708584E+01  0.32130792598E+02  0.00000000000E+00 0.  1.
</event>
<event>
 7    1  0.3223600E-013  0.5930193E+02  0.7816164E-02  0.1266605E+00
        -11   -1    0    0    0    0  0.00000000000E+00  0.00000000000E+00  0.45593999997E+02  0.45594000000E+02  0.51100000000E-03 0. -1.
         11   -1    0    0    0    0 -0.00000000000E+00 -0.00000000000E+00 -0.45593999997E+02  0.45594000000E+02  0.51100000000E-03 0.  1.
    9900012    2    1    2    0    0  0.19343763083E+01  0.15993495324E+02 -0.27517041249E+02  0.59301933082E+02  0.49999980038E+02 0.  0.
         12    1    1    2    0    0 -0.19343763083E+01 -0.15993495324E+02  0.27517041249E+02  0.31886066918E+02  0.00000000000E+00 0. -1.
         11    1    3    3    0    0  0.39356428761E+01 -0.62498655257E+01 -0.15608668172E+02  0.17267907410E+02  0.51100000000E-03 0. -1.
        -11    1    3    3    0    0 -0.65204316368E+01  0.19911875078E+02 -0.22217614208E+02  0.30538847051E+02  0.51100000000E-03 0.  1.
         12    1    3    3    0    0  0.45191650689E+01  0.23314857715E+01  0.10309241131E+02  0.11495178621E+02  0.00000000000E+00 0. -1.
</event>
<event>
 7    1  0.3223600E-013  0.5930194E+02  0.7816164E-02  0.1266605E+00
        -11   -1    0    0    0    0  0.00000000000E+00  0.00000000000E+00  0.45593999997E+02  0.45594000000E+02  0.51100000000E-03 0. -1.
         11   -1    0    0    0    0 -0.00000000000E+00 -0.00000000000E+00 -0.45593999997E+02  0.45594000000E+02  0.51100000000E-03 0.  1.
    9900012    2    1    2    0    0 -0.27071592471E+02  0.17368610956E+01 -0.16758064632E+02  0.59301944496E+02  0.50000000854E+02 0.  0.
         12    1    1    2    0    0  0.27071592471E+02 -0.17368610956E+01  0.16758064632E+02  0.31886055504E+02  0.00000000000E+00 0. -1.
         11    1    3    3    0    0 -0.21341378664E+02  0.12413002124E+02  0.31908192640E+01  0.24894143746E+02  0.51100000000E-03 0. -1.
        -11    1    3    3    0    0 -0.12861660425E+02 -0.41990222018E+00 -0.27633821915E+01  0.13161873277E+02  0.51100000000E-03 0.  1.
         12    1    3    3    0    0  0.71314466178E+01 -0.10256238808E+02 -0.17185501705E+02  0.21245927473E+02  0.00000000000E+00 0. -1.
</event>
<event>
 7    1  0.3223600E-013  0.5930197E+02  0.7816164E-02  0.1266605E+00
        -11   -1    0    0    0    0  0.00000000000E+00  0.00000000000E+00  0.45593999997E+02  0.45594000000E+02  0.51100000000E-03 0. -1.
         11   -1    0    0    0    0 -0.00000000000E+00 -0.00000000000E+00 -0.45593999997E+02  0.45594000000E+02  0.51100000000E-03 0.  1.
    9900012    2    1    2    0    0  0.15132290363E+01 -0.17473615757E+02 -0.26628970636E+02  0.59301965646E+02  0.50000039426E+02 0.  0.
         12    1    1    2    0    0 -0.15132290363E+01  0.17473615757E+02  0.26628970636E+02  0.31886034354E+02  0.00000000000E+00 0. -1.
         11    1    3    3    0    0 -0.73272319122E+01 -0.10207651292E+01  0.21740860898E+00  0.74011861015E+01  0.51100000000E-03 0. -1.
        -11    1    3    3    0    0 -0.14007527395E+02 -0.12345553772E+02 -0.35369458656E+01  0.19003513043E+02  0.51100000000E-03 0.  1.
         12    1    3    3    0    0  0.22847988344E+02 -0.41072968560E+01 -0.23309433379E+02  0.32897266501E+02  0.00000000000E+00 0. -1.
</event>
<event>
 7    1  0.3223600E-013  0.5930192E+02  0.7816164E-02  0.1266605E+00
        -11   -1    0    0    0    0  0.00000000000E+00  0.00000000000E+00  0.45593999997E+02  0.45594000000E+02  0.51100000000E-03 0. -1.
         11   -1    0    0    0    0 -0.00000000000E+00 -0.00000000000E+00 -0.45593999997E+02  0.45594000000E+02  0.51100000000E-03 0.  1.
    9900012    2    1    2    0    0 -0.12807797475E+02  0.29198069165E+02 -0.39427871165E+00  0.59301915656E+02  0.49999948256E+02 0.  0.
         12    1    1    2    0    0  0.12807797475E+02 -0.29198069165E+02  0.39427871165E+00  0.31886084344E+02  0.00000000000E+00 0. -1.
         11    1    3    3    0    0  0.21126470015E+01 -0.56916077891E+01  0.55947201199E+01  0.82558203747E+01  0.51100000000E-03 0. -1.
        -11    1    3    3    0    0 -0.78080562617E+01 -0.55185248579E+01 -0.24131912820E+01  0.98612043695E+01  0.51100000000E-03 0.  1.
        -12    1    3    3    0    0 -0.71123882150E+01  0.40408201812E+02 -0.35758075496E+01  0.41184890912E+02  0.00000000000E+00 0.  1.
</event>
<event>
 7    1  0.3223600E-013  0.5930194E+02  0.7816164E-02  0.1266605E+00
        -11   -1    0    0    0    0  0.00000000000E+00  0.00000000000E+00  0.45593999997E+02  0.45594000000E+02  0.51100000000E-03 0. -1.
         11   -1    0    0    0    0 -0.00000000000E+00 -0.00000000000E+00 -0.45593999997E+02  0.45594000000E+02  0.51100000000E-03 0.  1.
    9900012    2    1    2    0    0 -0.12937742579E+02  0.17811013882E+02 -0.23067362595E+02  0.59301943241E+02  0.49999998565E+02 0.  0.
         12    1    1    2    0    0  0.12937742579E+02 -0.17811013882E+02  0.23067362595E+02  0.31886056759E+02  0.00000000000E+00 0. -1.
         11    1    3    3    0    0  0.13873984708E+02  0.36581397684E+00 -0.35263684309E+01  0.14319795603E+02  0.51100000000E-03 0. -1.
        -11    1    3    3    0    0  0.34728636683E+01  0.70860266549E+01 -0.71863965872E+01  0.10673183779E+02  0.51100000000E-03 0.  1.
         12    1    3    3    0    0 -0.30284590955E+02  0.10359173251E+02 -0.12354597577E+02  0.34308963859E+02  0.00000000000E+00 0. -1.
</event>
<event>
 7    1  0.3223600E-013  0.5930195E+02  0.7816164E-02  0.1266605E+00
        -11   -1    0    0    0    0  0.00000000000E+00  0.00000000000E+00  0.45593999997E+02  0.45594000000E+02  0.51100000000E-03 0.  1.
         11   -1    0    0    0    0 -0.00000000000E+00 -0.00000000000E+00 -0.45593999997E+02  0.45594000000E+02  0.51100000000E-03 0. -1.
    9900012    2    1    2    0    0 -0.21755934766E+02 -0.23056340928E+01  0.23196628187E+02  0.59301949674E+02  0.50000010298E+02 0.  0.
         12    1    1    2    0    0  0.21755934766E+02  0.23056340928E+01 -0.23196628187E+02  0.31886050326E+02  0.00000000000E+00 0. -1.
         11    1    3    3    0    0 -0.18353561675E+01 -0.83450414305E+01  0.23652275244E+01  0.88658079294E+01  0.51100000000E-03 0. -1.
        -11    1    3    3    0    0 -0.24314875350E+02 -0.12159568084E+02  0.11509849057E+02  0.29521939043E+02  0.51100000000E-03 0.  1.
        -12    1    3    3    0    0  0.43942967511E+01  0.18198975422E+02  0.93215516057E+01  0.20914202702E+02  0.00000000000E+00 0.  1.
</event>
<event>
 7    1  0.3223600E-013  0.5930194E+02  0.7816164E-02  0.1266605E+00
        -11   -1    0    0    0    0  0.00000000000E+00  0.00000000000E+00  0.45593999997E+02  0.45594000000E+02  0.51100000000E-03 0.  1.
         11   -1    0    0    0    0 -0.00000000000E+00 -0.00000000000E+00 -0.45593999997E+02  0.45594000000E+02  0.51100000000E-03 0. -1.
    9900012    2    1    2    0    0 -0.66441645936E+01  0.28124214508E+02  0.13476067999E+02  0.59301940765E+02  0.49999994049E+02 0.  0.
         12    1    1    2    0    0  0.66441645936E+01 -0.28124214508E+02 -0.13476067999E+02  0.31886059235E+02  0.00000000000E+00 0. -1.
         11    1    3    3    0    0 -0.43617906246E+00  0.65387885213E+01 -0.11263611414E+02  0.13031306529E+02  0.51100000000E-03 0. -1.
        -11    1    3    3    0    0  0.83207826453E+01  0.11186837979E+02 -0.20271676665E+01  0.14088654187E+02  0.51100000000E-03 0.  1.
        -12    1    3    3    0    0 -0.14528768177E+02  0.10398588008E+02  0.26766847079E+02  0.32181980049E+02  0.00000000000E+00 0.  1.
</event>
<event>
 7    1  0.3223600E-013  0.5930194E+02  0.7816164E-02  0.1266605E+00
        -11   -1    0    0    0    0  0.00000000000E+00  0.00000000000E+00  0.45593999997E+02  0.45594000000E+02  0.51100000000E-03 0. -1.
         11   -1    0    0    0    0 -0.00000000000E+00 -0.00000000000E+00 -0.45593999997E+02  0.45594000000E+02  0.51100000000E-03 0.  1.
    9900012    2    1    2    0    0 -0.30669955922E+02 -0.57371848916E+01  0.65695536951E+01  0.59301944702E+02  0.50000001229E+02 0.  0.
         12    1    1    2    0    0  0.30669955922E+02  0.57371848916E+01 -0.65695536951E+01  0.31886055298E+02  0.00000000000E+00 0. -1.
         11    1    3    3    0    0  0.64694717726E+01 -0.88724073999E+01  0.11517345817E+02  0.15912980017E+02  0.51100000000E-03 0. -1.
        -11    1    3    3    0    0  0.12988596975E+01  0.12074351687E+01 -0.45683605856E+01  0.49004953731E+01  0.51100000000E-03 0.  1.
         12    1    3    3    0    0 -0.38438287392E+02  0.19277873397E+01 -0.37943153657E+00  0.38488469312E+02  0.00000000000E+00 0. -1.
</event>
<event>
 7    1  0.3223600E-013  0.5930178E+02  0.7816164E-02  0.1266605E+00
        -11   -1    0    0    0    0  0.00000000000E+00  0.00000000000E+00  0.45593999997E+02  0.45594000000E+02  0.51100000000E-03 0.  1.
         11   -1    0    0    0    0 -0.00000000000E+00 -0.00000000000E+00 -0.45593999997E+02  0.45594000000E+02  0.51100000000E-03 0. -1.
    9900012    2    1    2    0    0 -0.15252931408E+02 -0.16828322673E+02  0.22380499608E+02  0.59301778474E+02  0.49999698069E+02 0.  0.
         12    1    1    2    0    0  0.15252931408E+02  0.16828322673E+02 -0.22380499608E+02  0.31886221526E+02  0.00000000000E+00 0. -1.
         11    1    3    3    0    0 -0.14385704478E+02 -0.22081233483E+01  0.78628453000E+01  0.16542328691E+02  0.51100000000E-03 0. -1.
        -11    1    3    3    0    0 -0.71957732148E+01 -0.15598610489E+02  0.25085022988E+02  0.30403193581E+02  0.51100000000E-03 0.  1.
         12    1    3    3    0    0  0.63285462852E+01  0.97841116413E+00 -0.10567368680E+02  0.12356256202E+02  0.00000000000E+00 0. -1.
</event>
<event>
 7    1  0.3223600E-013  0.5930183E+02  0.7816164E-02  0.1266605E+00
        -11   -1    0    0    0    0  0.00000000000E+00  0.00000000000E+00  0.45593999997E+02  0.45594000000E+02  0.51100000000E-03 0. -1.
         11   -1    0    0    0    0 -0.00000000000E+00 -0.00000000000E+00 -0.45593999997E+02  0.45594000000E+02  0.51100000000E-03 0.  1.
    9900012    2    1    2    0    0 -0.41114554252E+01  0.26230410183E+02 -0.17657564332E+02  0.59301826473E+02  0.49999785608E+02 0.  0.
         12    1    1    2    0    0  0.41114554252E+01 -0.26230410183E+02  0.17657564332E+02  0.31886173527E+02  0.00000000000E+00 0. -1.
         11    1    3    3    0    0 -0.17165963788E+02 -0.14673420192E+01  0.54826233507E+01  0.18079893928E+02  0.51100000000E-03 0. -1.
        -11    1    3    3    0    0  0.95148688942E+01  0.95324256616E+01 -0.28640796342E+01  0.13769634036E+02  0.51100000000E-03 0.  1.
        -12    1    3    3    0    0  0.35396394684E+01  0.18165326540E+02 -0.20276108048E+02  0.27452298510E+02  0.00000000000E+00 0.  1.
</event>
<event>
 7    1  0.3223600E-013  0.5930186E+02  0.7816164E-02  0.1266605E+00
        -11   -1    0    0    0    0  0.00000000000E+00  0.00000000000E+00  0.45593999997E+02  0.45594000000E+02  0.51100000000E-03 0. -1.
         11   -1    0    0    0    0 -0.00000000000E+00 -0.00000000000E+00 -0.45593999997E+02  0.45594000000E+02  0.51100000000E-03 0.  1.
    9900012    2    1    2    0    0 -0.80817259842E+01  0.79602132758E+01 -0.29800112700E+02  0.59301858697E+02  0.49999844377E+02 0.  0.
         12    1    1    2    0    0  0.80817259842E+01 -0.79602132758E+01  0.29800112700E+02  0.31886141303E+02  0.00000000000E+00 0. -1.
         11    1    3    3    0    0 -0.54248943513E+01  0.12011430442E+02 -0.53888807043E+01  0.14238819315E+02  0.51100000000E-03 0. -1.
        -11    1    3    3    0    0 -0.67730559821E+01  0.11656516762E+02 -0.25441072833E+02  0.28792305526E+02  0.51100000000E-03 0.  1.
         12    1    3    3    0    0  0.41162243493E+01 -0.15707733928E+02  0.10298408378E+01  0.16270733855E+02  0.00000000000E+00 0. -1.
</event>
<event>
 7    1  0.3223600E-013  0.5930196E+02  0.7816164E-02  0.1266605E+00
        -11   -1    0    0    0    0  0.00000000000E+00  0.00000000000E+00  0.45593999997E+02  0.45594000000E+02  0.51100000000E-03 0.  1.
         11   -1    0    0    0    0 -0.00000000000E+00 -0.00000000000E+00 -0.45593999997E+02  0.45594000000E+02  0.51100000000E-03 0. -1.
    9900012    2    1    2    0    0  0.90007796848E+01 -0.12960406519E+02  0.27708003479E+02  0.59301958714E+02  0.50000026784E+02 0.  0.
         12    1    1    2    0    0 -0.90007796848E+01  0.12960406519E+02 -0.27708003479E+02  0.31886041286E+02  0.00000000000E+00 0. -1.
         11    1    3    3    0    0 -0.11442523090E+02 -0.68973814193E+00  0.52850072216E+01  0.12622930522E+02  0.51100000000E-03 0. -1.
        -11    1    3    3    0    0  0.19323948944E+02  0.64743092518E+01  0.48240241466E+01  0.20942848237E+02  0.51100000000E-03 0.  1.
        -12    1    3    3    0    0  0.11193538305E+01 -0.18744977629E+02  0.17598972111E+02  0.25736179955E+02  0.00000000000E+00 0.  1.
</event>
<event>
 7    1  0.3223600E-013  0.5930199E+02  0.7816164E-02  0.1266605E+00
        -11   -1    0    0    0    0  0.00000000000E+00  0.00000000000E+00  0.45593999997E+02  0.45594000000E+02  0.51100000000E-03 0. -1.
         11   -1    0    0    0    0 -0.00000000000E+00 -0.00000000000E+00 -0.45593999997E+02  0.45594000000E+02  0.51100000000E-03 0.  1.
    9900012    2    1    2    0    0 -0.19451908065E+02  0.24588589628E+02  0.58088120319E+01  0.59301987949E+02  0.50000080103E+02 0.  0.
         12    1    1    2    0    0  0.19451908065E+02 -0.24588589628E+02 -0.58088120319E+01  0.31886012051E+02  0.00000000000E+00 0. -1.
         11    1    3    3    0    0  0.82808355743E+01  0.41228297963E+01 -0.89619006631E+01  0.12879659432E+02  0.51100000000E-03 0.  1.
        -11    1    3    3    0    0 -0.90829556405E+01  0.11168994982E+02 -0.72382172598E+01  0.16113296417E+02  0.51100000000E-03 0. -1.
         12    1    3    3    0    0 -0.18649787999E+02  0.92967648500E+01  0.22008929955E+02  0.30309032100E+02  0.00000000000E+00 0. -1.
</event>
<event>
 7    1  0.3223600E-013  0.5930194E+02  0.7816164E-02  0.1266605E+00
        -11   -1    0    0    0    0  0.00000000000E+00  0.00000000000E+00  0.45593999997E+02  0.45594000000E+02  0.51100000000E-03 0. -1.
         11   -1    0    0    0    0 -0.00000000000E+00 -0.00000000000E+00 -0.45593999997E+02  0.45594000000E+02  0.51100000000E-03 0.  1.
    9900012    2    1    2    0    0  0.74552595716E+01  0.20004429374E+01 -0.30937652745E+02  0.59301936829E+02  0.49999986871E+02 0.  0.
         12    1    1    2    0    0 -0.74552595716E+01 -0.20004429374E+01  0.30937652745E+02  0.31886063171E+02  0.00000000000E+00 0. -1.
         11    1    3    3    0    0 -0.60162863003E+01  0.16198843479E+02 -0.17422086970E+02  0.24538283264E+02  0.51100000000E-03 0. -1.
        -11    1    3    3    0    0 -0.36269635602E+01  0.40217245386E+01  0.14907911579E+01  0.56170803331E+01  0.51100000000E-03 0.  1.
        -12    1    3    3    0    0  0.17098509432E+02 -0.18220125080E+02 -0.15006356932E+02  0.29146573231E+02  0.00000000000E+00 0.  1.
</event>
<event>
 7    1  0.3223600E-013  0.5930196E+02  0.7816164E-02  0.1266605E+00
        -11   -1    0    0    0    0  0.00000000000E+00  0.00000000000E+00  0.45593999997E+02  0.45594000000E+02  0.51100000000E-03 0.  1.
         11   -1    0    0    0    0 -0.00000000000E+00 -0.00000000000E+00 -0.45593999997E+02  0.45594000000E+02  0.51100000000E-03 0. -1.
    9900012    2    1    2    0    0 -0.18546154413E+02 -0.24078199657E+02  0.96436346298E+01  0.59301964952E+02  0.50000038160E+02 0.  0.
         12    1    1    2    0    0  0.18546154413E+02  0.24078199657E+02 -0.96436346298E+01  0.31886035048E+02  0.00000000000E+00 0. -1.
         11    1    3    3    0    0  0.52661359457E+01  0.59517196176E+00 -0.70211247502E+01  0.87967386275E+01  0.51100000000E-03 0. -1.
        -11    1    3    3    0    0 -0.39506018084E+01  0.79975645322E+01  0.62043279014E+01  0.10865632888E+02  0.51100000000E-03 0.  1.
        -12    1    3    3    0    0 -0.19861688551E+02 -0.32670936151E+02  0.10460431479E+02  0.39639593436E+02  0.00000000000E+00 0.  1.
</event>
<event>
 7    1  0.3223600E-013  0.5930194E+02  0.7816164E-02  0.1266605E+00
        -11   -1    0    0    0    0  0.00000000000E+00  0.00000000000E+00  0.45593999997E+02  0.45594000000E+02  0.51100000000E-03 0.  1.
         11   -1    0    0    0    0 -0.00000000000E+00 -0.00000000000E+00 -0.45593999997E+02  0.45594000000E+02  0.51100000000E-03 0. -1.
    9900012    2    1    2    0    0  0.22191757393E+02 -0.38907479230E+01  0.22563436276E+02  0.59301942355E+02  0.49999996949E+02 0.  0.
         12    1    1    2    0    0 -0.22191757393E+02  0.38907479230E+01 -0.22563436276E+02  0.31886057645E+02  0.00000000000E+00 0. -1.
         11    1    3    3    0    0  0.38313793192E+01 -0.17098539131E+02  0.24427680589E+01  0.17691993216E+02  0.51100000000E-03 0.  1.
        -11    1    3    3    0    0  0.18534019509E+02 -0.35790846659E+01  0.14839605990E+02  0.24011114768E+02  0.51100000000E-03 0. -1.
         12    1    3    3    0    0 -0.17364143527E+00  0.16786875874E+02  0.52810622271E+01  0.17598834371E+02  0.00000000000E+00 0. -1.
</event>
<event>
 7    1  0.3223600E-013  0.5930194E+02  0.7816164E-02  0.1266605E+00
        -11   -1    0    0    0    0  0.00000000000E+00  0.00000000000E+00  0.45593999997E+02  0.45594000000E+02  0.51100000000E-03 0.  1.
         11   -1    0    0    0    0 -0.00000000000E+00 -0.00000000000E+00 -0.45593999997E+02  0.45594000000E+02  0.51100000000E-03 0. -1.
    9900012    2    1    2    0    0 -0.10026169953E+02 -0.27002746345E+02  0.13676570595E+02  0.59301937570E+02  0.49999988222E+02 0.  0.
         12    1    1    2    0    0  0.10026169953E+02  0.27002746345E+02 -0.13676570595E+02  0.31886062430E+02  0.00000000000E+00 0. -1.
         11    1    3    3    0    0  0.22284332949E+01 -0.15887163013E+02 -0.27634324216E+01  0.16278956434E+02  0.51100000000E-03 0. -1.
        -11    1    3    3    0    0  0.19581385803E+01  0.83699235592E+01 -0.56751928990E+01  0.10300375808E+02  0.51100000000E-03 0.  1.
        -12    1    3    3    0    0 -0.14212741828E+02 -0.19485506890E+02  0.22115195915E+02  0.32722605328E+02  0.00000000000E+00 0.  1.
</event>
<event>
 7    1  0.3443398E-013  0.5930192E+02  0.7816164E-02  0.1266605E+00
        -11   -1    0    0    0    0  0.00000000000E+00  0.00000000000E+00  0.45593999997E+02  0.45594000000E+02  0.51100000000E-03 0. -1.
         11   -1    0    0    0    0 -0.00000000000E+00 -0.00000000000E+00 -0.45593999997E+02  0.45594000000E+02  0.51100000000E-03 0.  1.
    9900012    2    1    2    0    0 -0.27794873129E+02 -0.23562565105E+01 -0.15447176795E+02  0.59301918586E+02  0.49999953601E+02 0.  0.
         12    1    1    2    0    0  0.27794873129E+02  0.23562565105E+01  0.15447176795E+02  0.31886081414E+02  0.00000000000E+00 0. -1.
         11    1    3    3    0    0  0.76006620387E+01 -0.18001809619E+01  0.35879266023E+01  0.85955763324E+01  0.51100000000E-03 0. -1.
        -11    1    3    3    0    0 -0.10161663461E+01 -0.80161897250E+01 -0.12561875841E+02  0.14936285236E+02  0.51100000000E-03 0.  1.
        -12    1    3    3    0    0 -0.34379368821E+02  0.74601141764E+01 -0.64732275562E+01  0.35770057018E+02  0.00000000000E+00 0.  1.
</event>
<event>
 7    1  0.3223600E-013  0.5930192E+02  0.7816164E-02  0.1266605E+00
        -11   -1    0    0    0    0  0.00000000000E+00  0.00000000000E+00  0.45593999997E+02  0.45594000000E+02  0.51100000000E-03 0.  1.
         11   -1    0    0    0    0 -0.00000000000E+00 -0.00000000000E+00 -0.45593999997E+02  0.45594000000E+02  0.51100000000E-03 0. -1.
    9900012    2    1    2    0    0  0.21503193947E+02 -0.47470966442E+01  0.23060781088E+02  0.59301923087E+02  0.49999961810E+02 0.  0.
         12    1    1    2    0    0 -0.21503193947E+02  0.47470966442E+01 -0.23060781088E+02  0.31886076913E+02  0.00000000000E+00 0. -1.
         11    1    3    3    0    0  0.51933230149E+01 -0.56231091618E+01  0.12920228952E+02  0.15017399143E+02  0.51100000000E-03 0.  1.
        -11    1    3    3    0    0  0.21020806421E+02  0.14847126148E+02 -0.10776657999E+01  0.25757966171E+02  0.51100000000E-03 0. -1.
         12    1    3    3    0    0 -0.47109354892E+01 -0.13971113631E+02  0.11218217937E+02  0.18526557773E+02  0.00000000000E+00 0. -1.
</event>
<event>
 7    1  0.3223600E-013  0.5930194E+02  0.7816164E-02  0.1266605E+00
        -11   -1    0    0    0    0  0.00000000000E+00  0.00000000000E+00  0.45593999997E+02  0.45594000000E+02  0.51100000000E-03 0.  1.
         11   -1    0    0    0    0 -0.00000000000E+00 -0.00000000000E+00 -0.45593999997E+02  0.45594000000E+02  0.51100000000E-03 0. -1.
    9900012    2    1    2    0    0 -0.15653727875E+02  0.91099391587E+01  0.26242915343E+02  0.59301940451E+02  0.49999993477E+02 0.  0.
         12    1    1    2    0    0  0.15653727875E+02 -0.91099391587E+01 -0.26242915343E+02  0.31886059549E+02  0.00000000000E+00 0. -1.
         11    1    3    3    0    0  0.90596120425E-01  0.15669403842E+01 -0.29908927836E+01  0.33777136836E+01  0.51100000000E-03 0. -1.
        -11    1    3    3    0    0  0.58949602056E+01 -0.65421680053E+01  0.28783732923E+02  0.30100727554E+02  0.51100000000E-03 0.  1.
         12    1    3    3    0    0 -0.21639284201E+02  0.14085166780E+02  0.45007520392E+00  0.25823499213E+02  0.00000000000E+00 0. -1.
</event>
<event>
 7    1  0.3223600E-013  0.5930195E+02  0.7816164E-02  0.1266605E+00
        -11   -1    0    0    0    0  0.00000000000E+00  0.00000000000E+00  0.45593999997E+02  0.45594000000E+02  0.51100000000E-03 0.  1.
         11   -1    0    0    0    0 -0.00000000000E+00 -0.00000000000E+00 -0.45593999997E+02  0.45594000000E+02  0.51100000000E-03 0. -1.
    9900012    2    1    2    0    0  0.17055573037E+02  0.26785718175E+02 -0.28901433900E+01  0.59301949781E+02  0.50000010493E+02 0.  0.
         12    1    1    2    0    0 -0.17055573037E+02 -0.26785718175E+02  0.28901433900E+01  0.31886050219E+02  0.00000000000E+00 0. -1.
         11    1    3    3    0    0  0.18446903182E+02  0.27578745805E+02 -0.21908919578E+01  0.33251698679E+02  0.51100000000E-03 0. -1.
        -11    1    3    3    0    0  0.48633482606E+01  0.83647252865E+01  0.75134954557E+01  0.12250444875E+02  0.51100000000E-03 0.  1.
        -12    1    3    3    0    0 -0.62546784059E+01 -0.91577529170E+01 -0.82127468879E+01  0.13799806227E+02  0.00000000000E+00 0.  1.
</event>
<event>
 7    1  0.3223600E-013  0.5930193E+02  0.7816164E-02  0.1266605E+00
        -11   -1    0    0    0    0  0.00000000000E+00  0.00000000000E+00  0.45593999997E+02  0.45594000000E+02  0.51100000000E-03 0. -1.
         11   -1    0    0    0    0 -0.00000000000E+00 -0.00000000000E+00 -0.45593999997E+02  0.45594000000E+02  0.51100000000E-03 0.  1.
    9900012    2    1    2    0    0 -0.23156386618E+02 -0.18164590215E+02 -0.12269920893E+02  0.59301928784E+02  0.49999972199E+02 0.  0.
         12    1    1    2    0    0  0.23156386618E+02  0.18164590215E+02  0.12269920893E+02  0.31886071216E+02  0.00000000000E+00 0. -1.
         11    1    3    3    0    0 -0.78090737073E+01  0.15564672794E+01 -0.25368587134E+01  0.83570254846E+01  0.51100000000E-03 0. -1.
        -11    1    3    3    0    0 -0.15035559033E+02 -0.27040074579E+02  0.78305749880E+01  0.31914754795E+02  0.51100000000E-03 0.  1.
         12    1    3    3    0    0 -0.31175387819E+00  0.73190170850E+01 -0.17563637167E+02  0.19030148505E+02  0.00000000000E+00 0. -1.
</event>
<event>
 7    1  0.3223600E-013  0.5930166E+02  0.7816164E-02  0.1266606E+00
        -11   -1    0    0    0    0  0.00000000000E+00  0.00000000000E+00  0.45593999997E+02  0.45594000000E+02  0.51100000000E-03 0. -1.
         11   -1    0    0    0    0 -0.00000000000E+00 -0.00000000000E+00 -0.45593999997E+02  0.45594000000E+02  0.51100000000E-03 0.  1.
    9900012    2    1    2    0    0  0.29769100190E+02 -0.11424496455E+02 -0.14152896017E+00  0.59301663180E+02  0.49999487798E+02 0.  0.
         12    1    1    2    0    0 -0.29769100190E+02  0.11424496455E+02  0.14152896017E+00  0.31886336820E+02  0.00000000000E+00 0. -1.
         11    1    3    3    0    0  0.13595343964E+02 -0.52371776559E+01  0.90698317599E+01  0.17161679863E+02  0.51100000000E-03 0. -1.
        -11    1    3    3    0    0  0.28060960552E+02 -0.39276905032E+01 -0.28715345148E+01  0.28479641335E+02  0.51100000000E-03 0.  1.
        -12    1    3    3    0    0 -0.11887204327E+02 -0.22596282963E+01 -0.63398262052E+01  0.13660341982E+02  0.00000000000E+00 0.  1.
</event>
<event>
 7    1  0.3223600E-013  0.5930194E+02  0.7816164E-02  0.1266605E+00
        -11   -1    0    0    0    0  0.00000000000E+00  0.00000000000E+00  0.45593999997E+02  0.45594000000E+02  0.51100000000E-03 0.  1.
         11   -1    0    0    0    0 -0.00000000000E+00 -0.00000000000E+00 -0.45593999997E+02  0.45594000000E+02  0.51100000000E-03 0. -1.
    9900012    2    1    2    0    0 -0.10099822188E+02  0.59365319095E+01  0.29655896801E+02  0.59301936674E+02  0.49999986589E+02 0.  0.
         12    1    1    2    0    0  0.10099822188E+02 -0.59365319095E+01 -0.29655896801E+02  0.31886063326E+02  0.00000000000E+00 0. -1.
         11    1    3    3    0    0  0.86616846953E+01  0.13762659346E+02  0.37840633913E+01  0.16695948911E+02  0.51100000000E-03 0. -1.
        -11    1    3    3    0    0 -0.17258002634E+02  0.33692808349E+01  0.25906113229E+02  0.31310020939E+02  0.51100000000E-03 0.  1.
        -12    1    3    3    0    0 -0.15035042488E+01 -0.11195408271E+02 -0.34279819352E-01  0.11295966824E+02  0.00000000000E+00 0.  1.
</event>
<event>
 7    1  0.3223600E-013  0.5930193E+02  0.7816164E-02  0.1266605E+00
        -11   -1    0    0    0    0  0.00000000000E+00  0.00000000000E+00  0.45593999997E+02  0.45594000000E+02  0.51100000000E-03 0.  1.
         11   -1    0    0    0    0 -0.00000000000E+00 -0.00000000000E+00 -0.45593999997E+02  0.45594000000E+02  0.51100000000E-03 0. -1.
    9900012    2    1    2    0    0 -0.10731184789E+02 -0.12724632099E+02  0.27196452343E+02  0.59301927663E+02  0.49999970155E+02 0.  0.
         12    1    1    2    0    0  0.10731184789E+02  0.12724632099E+02 -0.27196452343E+02  0.31886072337E+02  0.00000000000E+00 0. -1.
         11    1    3    3    0    0  0.76721209214E+01  0.12070357325E+02  0.68488461734E+01  0.15857542671E+02  0.51100000000E-03 0. -1.
        -11    1    3    3    0    0 -0.13554016128E+02 -0.35960896043E+01  0.15985901292E+02  0.21264812579E+02  0.51100000000E-03 0.  1.
        -12    1    3    3    0    0 -0.48492895822E+01 -0.21198899820E+02  0.43617048776E+01  0.22179572414E+02  0.00000000000E+00 0.  1.
</event>
<event>
 7    1  0.3223600E-013  0.5930196E+02  0.7816164E-02  0.1266605E+00
        -11   -1    0    0    0    0  0.00000000000E+00  0.00000000000E+00  0.45593999997E+02  0.45594000000E+02  0.51100000000E-03 0.  1.
         11   -1    0    0    0    0 -0.00000000000E+00 -0.00000000000E+00 -0.45593999997E+02  0.45594000000E+02  0.51100000000E-03 0. -1.
    9900012    2    1    2    0    0  0.21251814538E+02  0.82977369768E+01  0.22276158394E+02  0.59301963983E+02  0.50000036394E+02 0.  0.
         12    1    1    2    0    0 -0.21251814538E+02 -0.82977369768E+01 -0.22276158394E+02  0.31886036017E+02  0.00000000000E+00 0. -1.
         11    1    3    3    0    0 -0.10680530483E+01 -0.23787947012E+01 -0.20336580396E+01  0.33068363775E+01  0.51100000000E-03 0. -1.
        -11    1    3    3    0    0 -0.85715329568E+01 -0.92537850056E+01  0.11486911840E+02  0.17060271335E+02  0.51100000000E-03 0.  1.
        -12    1    3    3    0    0  0.30891400543E+02  0.19930316684E+02  0.12822904594E+02  0.38934856271E+02  0.00000000000E+00 0.  1.
</event>
<event>
 7    1  0.3223600E-013  0.5930195E+02  0.7816164E-02  0.1266605E+00
        -11   -1    0    0    0    0  0.00000000000E+00  0.00000000000E+00  0.45593999997E+02  0.45594000000E+02  0.51100000000E-03 0.  1.
         11   -1    0    0    0    0 -0.00000000000E+00 -0.00000000000E+00 -0.45593999997E+02  0.45594000000E+02  0.51100000000E-03 0. -1.
    9900012    2    1    2    0    0 -0.15604853220E+02 -0.23827933756E+02  0.14333109977E+02  0.59301954264E+02  0.50000018668E+02 0.  0.
         12    1    1    2    0    0  0.15604853220E+02  0.23827933756E+02 -0.14333109977E+02  0.31886045736E+02  0.00000000000E+00 0. -1.
         11    1    3    3    0    0  0.39598452407E+01  0.87812176203E+01  0.16535849614E+01  0.97736636279E+01  0.51100000000E-03 0. -1.
        -11    1    3    3    0    0 -0.14764588645E+02 -0.62310110226E+01  0.15838284380E+02  0.22531529655E+02  0.51100000000E-03 0.  1.
         12    1    3    3    0    0 -0.48001098151E+01 -0.26378140353E+02 -0.31587593644E+01  0.26996760981E+02  0.00000000000E+00 0. -1.
</event>
<event>
 7    1  0.3223600E-013  0.5930196E+02  0.7816164E-02  0.1266605E+00
        -11   -1    0    0    0    0  0.00000000000E+00  0.00000000000E+00  0.45593999997E+02  0.45594000000E+02  0.51100000000E-03 0.  1.
         11   -1    0    0    0    0 -0.00000000000E+00 -0.00000000000E+00 -0.45593999997E+02  0.45594000000E+02  0.51100000000E-03 0. -1.
    9900012    2    1    2    0    0 -0.20383983881E+02  0.16744604218E+02  0.17911763193E+02  0.59301955561E+02  0.50000021034E+02 0.  0.
         12    1    1    2    0    0  0.20383983881E+02 -0.16744604218E+02 -0.17911763193E+02  0.31886044439E+02  0.00000000000E+00 0. -1.
         11    1    3    3    0    0  0.10624768964E+02  0.20106802409E-01 -0.40342776809E+01  0.11364924834E+02  0.51100000000E-03 0. -1.
        -11    1    3    3    0    0 -0.88737503181E+01  0.94092690148E+01  0.20928419740E+02  0.24602368609E+02  0.51100000000E-03 0.  1.
        -12    1    3    3    0    0 -0.22135002526E+02  0.73152284006E+01  0.10176211348E+01  0.23334662118E+02  0.00000000000E+00 0.  1.
</event>
<event>
 7    1  0.3223600E-013  0.5930191E+02  0.7816164E-02  0.1266605E+00
        -11   -1    0    0    0    0  0.00000000000E+00  0.00000000000E+00  0.45593999997E+02  0.45594000000E+02  0.51100000000E-03 0.  1.
         11   -1    0    0    0    0 -0.00000000000E+00 -0.00000000000E+00 -0.45593999997E+02  0.45594000000E+02  0.51100000000E-03 0. -1.
    9900012    2    1    2    0    0 -0.28594312908E+02  0.66406782180E+01  0.12449468131E+02  0.59301912209E+02  0.49999941971E+02 0.  0.
         12    1    1    2    0    0  0.28594312908E+02 -0.66406782180E+01 -0.12449468131E+02  0.31886087791E+02  0.00000000000E+00 0. -1.
         11    1    3    3    0    0 -0.18003901987E+02  0.49284830198E+01 -0.41771460660E+01  0.19127963330E+02  0.51100000000E-03 0. -1.
        -11    1    3    3    0    0 -0.19345257857E+01  0.17572454078E+02  0.39851593554E+01  0.18122224690E+02  0.51100000000E-03 0.  1.
         12    1    3    3    0    0 -0.86558851345E+01 -0.15860258880E+02  0.12641454842E+02  0.22051724189E+02  0.00000000000E+00 0. -1.
</event>
<event>
 7    1  0.3223600E-013  0.5930196E+02  0.7816164E-02  0.1266605E+00
        -11   -1    0    0    0    0  0.00000000000E+00  0.00000000000E+00  0.45593999997E+02  0.45594000000E+02  0.51100000000E-03 0. -1.
         11   -1    0    0    0    0 -0.00000000000E+00 -0.00000000000E+00 -0.45593999997E+02  0.45594000000E+02  0.51100000000E-03 0.  1.
    9900012    2    1    2    0    0  0.14275620599E+02 -0.96798787101E+01 -0.26818391282E+02  0.59301960637E+02  0.50000030292E+02 0.  0.
         12    1    1    2    0    0 -0.14275620599E+02  0.96798787101E+01  0.26818391282E+02  0.31886039363E+02  0.00000000000E+00 0. -1.
         11    1    3    3    0    0 -0.37272569611E+01  0.27512170741E+01 -0.31630076191E-01  0.46327789248E+01  0.51100000000E-03 0. -1.
        -11    1    3    3    0    0  0.10110352338E+02  0.15150480521E+02 -0.57708846921E+01  0.19106527544E+02  0.51100000000E-03 0.  1.
        -12    1    3    3    0    0  0.78925252223E+01 -0.27581576305E+02 -0.21015876513E+02  0.35562654168E+02  0.00000000000E+00 0.  1.
</event>
<event>
 7    1  0.3223600E-013  0.5930200E+02  0.7816164E-02  0.1266605E+00
        -11   -1    0    0    0    0  0.00000000000E+00  0.00000000000E+00  0.45593999997E+02  0.45594000000E+02  0.51100000000E-03 0. -1.
         11   -1    0    0    0    0 -0.00000000000E+00 -0.00000000000E+00 -0.45593999997E+02  0.45594000000E+02  0.51100000000E-03 0.  1.
    9900012    2    1    2    0    0  0.23584857501E+02  0.34096184544E+01 -0.21185984233E+02  0.59302001047E+02  0.50000103989E+02 0.  0.
         12    1    1    2    0    0 -0.23584857501E+02 -0.34096184544E+01  0.21185984233E+02  0.31885998953E+02  0.00000000000E+00 0. -1.
         11    1    3    3    0    0  0.18682486644E+02  0.56531971716E+01 -0.72780123012E+01  0.20831788420E+02  0.51100000000E-03 0. -1.
        -11    1    3    3    0    0  0.11336380884E+02  0.13729623256E+02 -0.11209602664E+02  0.21039754715E+02  0.51100000000E-03 0.  1.
        -12    1    3    3    0    0 -0.64340100272E+01 -0.15973201973E+02 -0.26983692675E+01  0.17430457912E+02  0.00000000000E+00 0.  1.
</event>
<event>
 7    1  0.3223600E-013  0.5930193E+02  0.7816164E-02  0.1266605E+00
        -11   -1    0    0    0    0  0.00000000000E+00  0.00000000000E+00  0.45593999997E+02  0.45594000000E+02  0.51100000000E-03 0. -1.
         11   -1    0    0    0    0 -0.00000000000E+00 -0.00000000000E+00 -0.45593999997E+02  0.45594000000E+02  0.51100000000E-03 0.  1.
    9900012    2    1    2    0    0 -0.19165349066E+02 -0.14764812396E+02  0.20770434569E+02  0.59301933417E+02  0.49999980649E+02 0.  0.
         12    1    1    2    0    0  0.19165349066E+02  0.14764812396E+02 -0.20770434569E+02  0.31886066583E+02  0.00000000000E+00 0. -1.
         11    1    3    3    0    0 -0.39158668657E+01 -0.11948633868E+02 -0.63429106805E+01  0.14083194978E+02  0.51100000000E-03 0. -1.
        -11    1    3    3    0    0  0.29619345713E+01  0.97294354569E+00 -0.62702459784E+01  0.70025467109E+01  0.51100000000E-03 0.  1.
         12    1    3    3    0    0 -0.18211416772E+02 -0.37891220731E+01  0.33383591228E+02  0.38216191728E+02  0.00000000000E+00 0. -1.
</event>
<event>
 7    1  0.3223600E-013  0.5930196E+02  0.7816164E-02  0.1266605E+00
        -11   -1    0    0    0    0  0.00000000000E+00  0.00000000000E+00  0.45593999997E+02  0.45594000000E+02  0.51100000000E-03 0. -1.
         11   -1    0    0    0    0 -0.00000000000E+00 -0.00000000000E+00 -0.45593999997E+02  0.45594000000E+02  0.51100000000E-03 0.  1.
    9900012    2    1    2    0    0  0.23627989239E+02  0.14333541609E+02 -0.15905576510E+02  0.59301958310E+02  0.50000026047E+02 0.  0.
         12    1    1    2    0    0 -0.23627989239E+02 -0.14333541609E+02  0.15905576510E+02  0.31886041690E+02  0.00000000000E+00 0. -1.
         11    1    3    3    0    0  0.18579034427E+02  0.23617815916E+02 -0.36067205100E+01  0.30265329702E+02  0.51100000000E-03 0. -1.
        -11    1    3    3    0    0  0.13217829694E+02  0.67857826659E+00 -0.79469971795E+01  0.15437818976E+02  0.51100000000E-03 0.  1.
         12    1    3    3    0    0 -0.81688748819E+01 -0.99628525730E+01 -0.43518588204E+01  0.13598809632E+02  0.00000000000E+00 0. -1.
</event>
<event>
 7    1  0.3223600E-013  0.5930196E+02  0.7816164E-02  0.1266605E+00
        -11   -1    0    0    0    0  0.00000000000E+00  0.00000000000E+00  0.45593999997E+02  0.45594000000E+02  0.51100000000E-03 0.  1.
         11   -1    0    0    0    0 -0.00000000000E+00 -0.00000000000E+00 -0.45593999997E+02  0.45594000000E+02  0.51100000000E-03 0. -1.
    9900012    2    1    2    0    0 -0.16448421066E+02 -0.80238967016E+01 -0.26111036902E+02  0.59301957255E+02  0.50000024123E+02 0.  0.
         12    1    1    2    0    0  0.16448421066E+02  0.80238967016E+01  0.26111036902E+02  0.31886042745E+02  0.00000000000E+00 0. -1.
         11    1    3    3    0    0  0.68078998336E+00  0.11704522973E+01 -0.32523264752E+02  0.32551439047E+02  0.51100000000E-03 0. -1.
        -11    1    3    3    0    0 -0.16391807254E+02 -0.17011259739E+01 -0.55913844213E+00  0.16489324143E+02  0.51100000000E-03 0.  1.
        -12    1    3    3    0    0 -0.73740379455E+00 -0.74932230250E+01  0.69713662922E+01  0.10261194065E+02  0.00000000000E+00 0.  1.
</event>
<event>
 7    1  0.3223600E-013  0.5930195E+02  0.7816164E-02  0.1266605E+00
        -11   -1    0    0    0    0  0.00000000000E+00  0.00000000000E+00  0.45593999997E+02  0.45594000000E+02  0.51100000000E-03 0.  1.
         11   -1    0    0    0    0 -0.00000000000E+00 -0.00000000000E+00 -0.45593999997E+02  0.45594000000E+02  0.51100000000E-03 0. -1.
    9900012    2    1    2    0    0 -0.22923813080E+01  0.17311314291E+02  0.26679273261E+02  0.59301949189E+02  0.50000009413E+02 0.  0.
         12    1    1    2    0    0  0.22923813080E+01 -0.17311314291E+02 -0.26679273261E+02  0.31886050811E+02  0.00000000000E+00 0. -1.
         11    1    3    3    0    0 -0.41258542137E+01 -0.94612114889E+01  0.42535633343E+01  0.11163780593E+02  0.51100000000E-03 0. -1.
        -11    1    3    3    0    0  0.66214483020E+01  0.87473316716E+01  0.26820108169E+02  0.28977190882E+02  0.51100000000E-03 0.  1.
        -12    1    3    3    0    0 -0.47879753962E+01  0.18025194109E+02 -0.43943982417E+01  0.19160977714E+02  0.00000000000E+00 0.  1.
</event>
<event>
 7    1  0.3223600E-013  0.5930193E+02  0.7816164E-02  0.1266605E+00
        -11   -1    0    0    0    0  0.00000000000E+00  0.00000000000E+00  0.45593999997E+02  0.45594000000E+02  0.51100000000E-03 0. -1.
         11   -1    0    0    0    0 -0.00000000000E+00 -0.00000000000E+00 -0.45593999997E+02  0.45594000000E+02  0.51100000000E-03 0.  1.
    9900012    2    1    2    0    0 -0.11848213073E+02 -0.10885363309E+02 -0.27529083772E+02  0.59301925599E+02  0.49999966390E+02 0.  0.
         12    1    1    2    0    0  0.11848213073E+02  0.10885363309E+02  0.27529083772E+02  0.31886074401E+02  0.00000000000E+00 0. -1.
         11    1    3    3    0    0 -0.68187543554E+01  0.21361107199E+00  0.40947986278E+00  0.68343774163E+01  0.51100000000E-03 0. -1.
        -11    1    3    3    0    0 -0.21212052673E+02 -0.12796616397E+02 -0.26273853254E+02  0.36111216192E+02  0.51100000000E-03 0.  1.
         12    1    3    3    0    0  0.16182593955E+02  0.16976420162E+01 -0.16647103805E+01  0.16356331990E+02  0.00000000000E+00 0. -1.
</event>
<event>
 7    1  0.3223600E-013  0.5930211E+02  0.7816164E-02  0.1266604E+00
        -11   -1    0    0    0    0  0.00000000000E+00  0.00000000000E+00  0.45593999997E+02  0.45594000000E+02  0.51100000000E-03 0. -1.
         11   -1    0    0    0    0 -0.00000000000E+00 -0.00000000000E+00 -0.45593999997E+02  0.45594000000E+02  0.51100000000E-03 0.  1.
    9900012    2    1    2    0    0 -0.20381465970E+02 -0.23756226538E+02 -0.60784612700E+01  0.59302107417E+02  0.50000297982E+02 0.  0.
         12    1    1    2    0    0  0.20381465970E+02  0.23756226538E+02  0.60784612700E+01  0.31885892583E+02  0.00000000000E+00 0. -1.
         11    1    3    3    0    0  0.24394502914E+00 -0.68635263610E+01 -0.15367423391E+02  0.16832266788E+02  0.51100000000E-03 0.  1.
        -11    1    3    3    0    0  0.55778405059E+01 -0.69125350736E-01  0.98565505938E+01  0.11325576051E+02  0.51100000000E-03 0. -1.
        -12    1    3    3    0    0 -0.26203251505E+02 -0.16823574826E+02 -0.56758847234E+00  0.31144264577E+02  0.00000000000E+00 0.  1.
</event>
<event>
 7    1  0.3223600E-013  0.5930195E+02  0.7816164E-02  0.1266605E+00
        -11   -1    0    0    0    0  0.00000000000E+00  0.00000000000E+00  0.45593999997E+02  0.45594000000E+02  0.51100000000E-03 0.  1.
         11   -1    0    0    0    0 -0.00000000000E+00 -0.00000000000E+00 -0.45593999997E+02  0.45594000000E+02  0.51100000000E-03 0. -1.
    9900012    2    1    2    0    0 -0.14920349537E+02 -0.20141793696E+02  0.19708164448E+02  0.59301946160E+02  0.50000003888E+02 0.  0.
         12    1    1    2    0    0  0.14920349537E+02  0.20141793696E+02 -0.19708164448E+02  0.31886053840E+02  0.00000000000E+00 0. -1.
         11    1    3    3    0    0 -0.15211603043E+02 -0.17949102035E+01  0.21685079467E+02  0.26549147661E+02  0.51100000000E-03 0. -1.
        -11    1    3    3    0    0  0.10854033881E+01  0.11996667904E+01  0.97907512901E+01  0.99235130881E+01  0.51100000000E-03 0.  1.
         12    1    3    3    0    0 -0.79414988213E+00 -0.19546550283E+02 -0.11767666309E+02  0.22829285411E+02  0.00000000000E+00 0. -1.
</event>
<event>
 7    1  0.3223600E-013  0.5930192E+02  0.7816164E-02  0.1266605E+00
        -11   -1    0    0    0    0  0.00000000000E+00  0.00000000000E+00  0.45593999997E+02  0.45594000000E+02  0.51100000000E-03 0.  1.
         11   -1    0    0    0    0 -0.00000000000E+00 -0.00000000000E+00 -0.45593999997E+02  0.45594000000E+02  0.51100000000E-03 0. -1.
    9900012    2    1    2    0    0  0.13572371566E+02 -0.23496786426E+02  0.16745563300E+02  0.59301919455E+02  0.49999955186E+02 0.  0.
         12    1    1    2    0    0 -0.13572371566E+02  0.23496786426E+02 -0.16745563300E+02  0.31886080545E+02  0.00000000000E+00 0. -1.
         11    1    3    3    0    0  0.98925826407E+01 -0.63639235755E+00  0.59027149413E+01  0.11537340702E+02  0.51100000000E-03 0. -1.
        -11    1    3    3    0    0  0.21435560159E+02 -0.11246405670E+02  0.10900281162E+02  0.26547711945E+02  0.51100000000E-03 0.  1.
         12    1    3    3    0    0 -0.17755771234E+02 -0.11613988398E+02 -0.57432803270E-01  0.21216866808E+02  0.00000000000E+00 0. -1.
</event>
<event>
 7    1  0.3223600E-013  0.5930191E+02  0.7816164E-02  0.1266605E+00
        -11   -1    0    0    0    0  0.00000000000E+00  0.00000000000E+00  0.45593999997E+02  0.45594000000E+02  0.51100000000E-03 0.  1.
         11   -1    0    0    0    0 -0.00000000000E+00 -0.00000000000E+00 -0.45593999997E+02  0.45594000000E+02  0.51100000000E-03 0. -1.
    9900012    2    1    2    0    0 -0.18916413012E+02 -0.18845685080E+02 -0.17427921046E+02  0.59301906490E+02  0.49999931539E+02 0.  0.
         12    1    1    2    0    0  0.18916413012E+02  0.18845685080E+02  0.17427921046E+02  0.31886093510E+02  0.00000000000E+00 0. -1.
         11    1    3    3    0    0 -0.10760552186E+01  0.55860522616E+01 -0.10666419572E+02  0.12088605439E+02  0.51100000000E-03 0. -1.
        -11    1    3    3    0    0  0.69256042121E+01  0.47789798626E+01 -0.16904585889E+01  0.85825574703E+01  0.51100000000E-03 0.  1.
        -12    1    3    3    0    0 -0.24765962006E+02 -0.29210717204E+02 -0.50710428849E+01  0.38630743580E+02  0.00000000000E+00 0.  1.
</event>
<event>
 7    1  0.3223600E-013  0.5930194E+02  0.7816164E-02  0.1266605E+00
        -11   -1    0    0    0    0  0.00000000000E+00  0.00000000000E+00  0.45593999997E+02  0.45594000000E+02  0.51100000000E-03 0.  1.
         11   -1    0    0    0    0 -0.00000000000E+00 -0.00000000000E+00 -0.45593999997E+02  0.45594000000E+02  0.51100000000E-03 0. -1.
    9900012    2    1    2    0    0  0.17226669293E+02  0.26777605952E+02 -0.17095140600E+01  0.59301941075E+02  0.49999994615E+02 0.  0.
         12    1    1    2    0    0 -0.17226669293E+02 -0.26777605952E+02  0.17095140600E+01  0.31886058925E+02  0.00000000000E+00 0. -1.
         11    1    3    3    0    0  0.13990868718E+02  0.16667784234E+02 -0.16036897416E+02  0.27032231091E+02  0.51100000000E-03 0. -1.
        -11    1    3    3    0    0  0.81820112189E+01  0.13017135349E+02 -0.14869875891E+01  0.15446755408E+02  0.51100000000E-03 0.  1.
         12    1    3    3    0    0 -0.49462106431E+01 -0.29073136317E+01  0.15814370945E+02  0.16822954576E+02  0.00000000000E+00 0. -1.
</event>
<event>
 7    1  0.3223600E-013  0.5930200E+02  0.7816164E-02  0.1266605E+00
        -11   -1    0    0    0    0  0.00000000000E+00  0.00000000000E+00  0.45593999997E+02  0.45594000000E+02  0.51100000000E-03 0.  1.
         11   -1    0    0    0    0 -0.00000000000E+00 -0.00000000000E+00 -0.45593999997E+02  0.45594000000E+02  0.51100000000E-03 0. -1.
    9900012    2    1    2    0    0 -0.52503231106E+01  0.28629427598E+02  0.13019483267E+02  0.59302000535E+02  0.50000103055E+02 0.  0.
         12    1    1    2    0    0  0.52503231106E+01 -0.28629427598E+02 -0.13019483267E+02  0.31885999465E+02  0.00000000000E+00 0. -1.
         11    1    3    3    0    0 -0.48347667504E+01 -0.53414537216E+01  0.85408875794E+01  0.11173757573E+02  0.51100000000E-03 0. -1.
        -11    1    3    3    0    0 -0.52690034011E+01  0.43572091691E+01 -0.12060379669E+02  0.13863636846E+02  0.51100000000E-03 0.  1.
        -12    1    3    3    0    0  0.48534470409E+01  0.29613672151E+02  0.16538975356E+02  0.34264606116E+02  0.00000000000E+00 0.  1.
</event>
<event>
 7    1  0.3223600E-013  0.5930190E+02  0.7816164E-02  0.1266605E+00
        -11   -1    0    0    0    0  0.00000000000E+00  0.00000000000E+00  0.45593999997E+02  0.45594000000E+02  0.51100000000E-03 0.  1.
         11   -1    0    0    0    0 -0.00000000000E+00 -0.00000000000E+00 -0.45593999997E+02  0.45594000000E+02  0.51100000000E-03 0. -1.
    9900012    2    1    2    0    0 -0.93032383366E+00  0.27518401933E+02  0.16080902777E+02  0.59301899870E+02  0.49999919466E+02 0.  0.
         12    1    1    2    0    0  0.93032383366E+00 -0.27518401933E+02 -0.16080902777E+02  0.31886100130E+02  0.00000000000E+00 0. -1.
         11    1    3    3    0    0 -0.81162756838E+01  0.50163098798E+01  0.22951385110E+02  0.24855650757E+02  0.51100000000E-03 0. -1.
        -11    1    3    3    0    0  0.59653421537E+01  0.10860113623E+02  0.85733163476E+01  0.15067485801E+02  0.51100000000E-03 0.  1.
         12    1    3    3    0    0  0.12206096965E+01  0.11641978431E+02 -0.15443798681E+02  0.19378763312E+02  0.00000000000E+00 0. -1.
</event>
<event>
 7    1  0.3223600E-013  0.5930194E+02  0.7816164E-02  0.1266605E+00
        -11   -1    0    0    0    0  0.00000000000E+00  0.00000000000E+00  0.45593999997E+02  0.45594000000E+02  0.51100000000E-03 0. -1.
         11   -1    0    0    0    0 -0.00000000000E+00 -0.00000000000E+00 -0.45593999997E+02  0.45594000000E+02  0.51100000000E-03 0.  1.
    9900012    2    1    2    0    0  0.87887871665E+01 -0.22292174665E+02 -0.21036569245E+02  0.59301936011E+02  0.49999985379E+02 0.  0.
         12    1    1    2    0    0 -0.87887871665E+01  0.22292174665E+02  0.21036569245E+02  0.31886063989E+02  0.00000000000E+00 0. -1.
         11    1    3    3    0    0 -0.19640962721E+00  0.85402557721E+01 -0.54612390467E+00  0.85599530942E+01  0.51100000000E-03 0. -1.
        -11    1    3    3    0    0 -0.10029066587E+02 -0.20404942519E+02 -0.31046940446E+01  0.22947395956E+02  0.51100000000E-03 0.  1.
         12    1    3    3    0    0  0.19014263380E+02 -0.10427487918E+02 -0.17385751296E+02  0.27794586960E+02  0.00000000000E+00 0. -1.
</event>
<event>
 7    1  0.3223600E-013  0.5930195E+02  0.7816164E-02  0.1266605E+00
        -11   -1    0    0    0    0  0.00000000000E+00  0.00000000000E+00  0.45593999997E+02  0.45594000000E+02  0.51100000000E-03 0. -1.
         11   -1    0    0    0    0 -0.00000000000E+00 -0.00000000000E+00 -0.45593999997E+02  0.45594000000E+02  0.51100000000E-03 0.  1.
    9900012    2    1    2    0    0  0.76924520940E+00  0.24959428995E+02  0.19828149620E+02  0.59301947386E+02  0.50000006125E+02 0.  0.
         12    1    1    2    0    0 -0.76924520940E+00 -0.24959428995E+02 -0.19828149620E+02  0.31886052614E+02  0.00000000000E+00 0. -1.
         11    1    3    3    0    0 -0.10889133613E+02  0.97726641671E+01 -0.62174724175E+01  0.15897646344E+02  0.51100000000E-03 0. -1.
        -11    1    3    3    0    0  0.13443145513E+02  0.22574823681E+02  0.15841246761E+02  0.30680383386E+02  0.51100000000E-03 0.  1.
         12    1    3    3    0    0 -0.17847666905E+01 -0.73880588527E+01  0.10204375276E+02  0.12723917656E+02  0.00000000000E+00 0. -1.
</event>
<event>
 7    1  0.3223600E-013  0.5930194E+02  0.7816164E-02  0.1266605E+00
        -11   -1    0    0    0    0  0.00000000000E+00  0.00000000000E+00  0.45593999997E+02  0.45594000000E+02  0.51100000000E-03 0. -1.
         11   -1    0    0    0    0 -0.00000000000E+00 -0.00000000000E+00 -0.45593999997E+02  0.45594000000E+02  0.51100000000E-03 0.  1.
    9900012    2    1    2    0    0 -0.72954399782E+01 -0.30501147579E+02 -0.57599607157E+01  0.59301943556E+02  0.49999999140E+02 0.  0.
         12    1    1    2    0    0  0.72954399782E+01  0.30501147579E+02  0.57599607157E+01  0.31886056444E+02  0.00000000000E+00 0. -1.
         11    1    3    3    0    0 -0.10877875226E+02 -0.15097168128E+02  0.62435376380E+01  0.19627389471E+02  0.51100000000E-03 0. -1.
        -11    1    3    3    0    0 -0.17360710163E+01 -0.18168799190E+02 -0.21650344466E+02  0.28317072983E+02  0.51100000000E-03 0.  1.
         12    1    3    3    0    0  0.53185062639E+01  0.27648197399E+01  0.96468461124E+01  0.11357481102E+02  0.00000000000E+00 0. -1.
</event>
<event>
 7    1  0.3223600E-013  0.5930201E+02  0.7816164E-02  0.1266605E+00
        -11   -1    0    0    0    0  0.00000000000E+00  0.00000000000E+00  0.45593999997E+02  0.45594000000E+02  0.51100000000E-03 0.  1.
         11   -1    0    0    0    0 -0.00000000000E+00 -0.00000000000E+00 -0.45593999997E+02  0.45594000000E+02  0.51100000000E-03 0. -1.
    9900012    2    1    2    0    0  0.13740184793E+02  0.25327108309E+02 -0.13655075541E+02  0.59302012773E+02  0.50000125375E+02 0.  0.
         12    1    1    2    0    0 -0.13740184793E+02 -0.25327108309E+02  0.13655075541E+02  0.31885987227E+02  0.00000000000E+00 0. -1.
         11    1    3    3    0    0  0.32832555277E+01 -0.17625147376E+01  0.10004643732E+02  0.10676100483E+02  0.51100000000E-03 0. -1.
        -11    1    3    3    0    0  0.16763228539E+02  0.28726291551E+02 -0.12167697072E+02  0.35415512274E+02  0.51100000000E-03 0.  1.
         12    1    3    3    0    0 -0.63062992745E+01 -0.16366685045E+01 -0.11492022201E+02  0.13210400016E+02  0.00000000000E+00 0. -1.
</event>
<event>
 7    1  0.3223600E-013  0.5930194E+02  0.7816164E-02  0.1266605E+00
        -11   -1    0    0    0    0  0.00000000000E+00  0.00000000000E+00  0.45593999997E+02  0.45594000000E+02  0.51100000000E-03 0.  1.
         11   -1    0    0    0    0 -0.00000000000E+00 -0.00000000000E+00 -0.45593999997E+02  0.45594000000E+02  0.51100000000E-03 0. -1.
    9900012    2    1    2    0    0 -0.26128956966E+02  0.16388115467E+01  0.18201999871E+02  0.59301938865E+02  0.49999990585E+02 0.  0.
         12    1    1    2    0    0  0.26128956966E+02 -0.16388115467E+01 -0.18201999871E+02  0.31886061135E+02  0.00000000000E+00 0. -1.
         11    1    3    3    0    0  0.11188654027E+02  0.52172646420E+01  0.94272903743E+01  0.15533178469E+02  0.51100000000E-03 0. -1.
        -11    1    3    3    0    0 -0.34805971747E+01  0.29521737196E+01  0.81039746544E+01  0.93007683458E+01  0.51100000000E-03 0.  1.
        -12    1    3    3    0    0 -0.33837013819E+02 -0.65306268149E+01  0.67073484181E+00  0.34467992050E+02  0.00000000000E+00 0.  1.
</event>
<event>
 7    1  0.3223600E-013  0.5930194E+02  0.7816164E-02  0.1266605E+00
        -11   -1    0    0    0    0  0.00000000000E+00  0.00000000000E+00  0.45593999997E+02  0.45594000000E+02  0.51100000000E-03 0. -1.
         11   -1    0    0    0    0 -0.00000000000E+00 -0.00000000000E+00 -0.45593999997E+02  0.45594000000E+02  0.51100000000E-03 0.  1.
    9900012    2    1    2    0    0  0.85912203104E+01 -0.15362872974E+02 -0.26587472107E+02  0.59301943401E+02  0.49999998856E+02 0.  0.
         12    1    1    2    0    0 -0.85912203104E+01  0.15362872974E+02  0.26587472107E+02  0.31886056599E+02  0.00000000000E+00 0. -1.
         11    1    3    3    0    0  0.20063778867E+01 -0.13792490985E+02 -0.82449126283E+00  0.13962025136E+02  0.51100000000E-03 0. -1.
        -11    1    3    3    0    0 -0.68467059202E+01  0.10734888240E+02 -0.23834291570E+02  0.27022003300E+02  0.51100000000E-03 0.  1.
         12    1    3    3    0    0  0.13431548344E+02 -0.12305270228E+02 -0.19286892741E+01  0.18317914964E+02  0.00000000000E+00 0. -1.
</event>
<event>
 7    1  0.3223600E-013  0.5930195E+02  0.7816164E-02  0.1266605E+00
        -11   -1    0    0    0    0  0.00000000000E+00  0.00000000000E+00  0.45593999997E+02  0.45594000000E+02  0.51100000000E-03 0.  1.
         11   -1    0    0    0    0 -0.00000000000E+00 -0.00000000000E+00 -0.45593999997E+02  0.45594000000E+02  0.51100000000E-03 0. -1.
    9900012    2    1    2    0    0  0.13927559948E+02  0.28683016647E+02 -0.16712357629E+00  0.59301948185E+02  0.50000007581E+02 0.  0.
         12    1    1    2    0    0 -0.13927559948E+02 -0.28683016647E+02  0.16712357629E+00  0.31886051815E+02  0.00000000000E+00 0. -1.
         11    1    3    3    0    0 -0.54377800569E+01  0.12057193354E+02 -0.31485604990E+00  0.13230438319E+02  0.51100000000E-03 0. -1.
        -11    1    3    3    0    0 -0.20156545487E+00  0.20180938350E+02  0.11443161642E+02  0.23200363142E+02  0.51100000000E-03 0.  1.
         12    1    3    3    0    0  0.19566905459E+02 -0.35551150566E+01 -0.11295429168E+02  0.22871146723E+02  0.00000000000E+00 0. -1.
</event>
<event>
 7    1  0.3223600E-013  0.5930198E+02  0.7816164E-02  0.1266605E+00
        -11   -1    0    0    0    0  0.00000000000E+00  0.00000000000E+00  0.45593999997E+02  0.45594000000E+02  0.51100000000E-03 0.  1.
         11   -1    0    0    0    0 -0.00000000000E+00 -0.00000000000E+00 -0.45593999997E+02  0.45594000000E+02  0.51100000000E-03 0. -1.
    9900012    2    1    2    0    0 -0.88082837984E+01  0.77571928000E+00  0.30635447379E+02  0.59301980493E+02  0.50000066504E+02 0.  0.
         12    1    1    2    0    0  0.88082837984E+01 -0.77571928000E+00 -0.30635447379E+02  0.31886019507E+02  0.00000000000E+00 0. -1.
         11    1    3    3    0    0  0.12841492549E-01 -0.40899097639E+01 -0.94495142730E+01  0.10296642513E+02  0.51100000000E-03 0. -1.
        -11    1    3    3    0    0 -0.41365437435E+01  0.10729659942E+02  0.40418422188E+01  0.12189055969E+02  0.51100000000E-03 0.  1.
        -12    1    3    3    0    0 -0.46845815475E+01 -0.58640308984E+01  0.36043119434E+02  0.36816282012E+02  0.00000000000E+00 0.  1.
</event>
<event>
 7    1  0.3223600E-013  0.5930192E+02  0.7816164E-02  0.1266605E+00
        -11   -1    0    0    0    0  0.00000000000E+00  0.00000000000E+00  0.45593999997E+02  0.45594000000E+02  0.51100000000E-03 0.  1.
         11   -1    0    0    0    0 -0.00000000000E+00 -0.00000000000E+00 -0.45593999997E+02  0.45594000000E+02  0.51100000000E-03 0. -1.
    9900012    2    1    2    0    0  0.23816997638E+02 -0.14835326611E+02  0.15145489190E+02  0.59301919417E+02  0.49999955115E+02 0.  0.
         12    1    1    2    0    0 -0.23816997638E+02  0.14835326611E+02 -0.15145489190E+02  0.31886080583E+02  0.00000000000E+00 0. -1.
         11    1    3    3    0    0  0.13291475080E+02  0.13271013158E+02 -0.12705466755E+01  0.18825445258E+02  0.51100000000E-03 0. -1.
        -11    1    3    3    0    0  0.12083991570E+02 -0.10425098885E+02 -0.48559060146E+00  0.15966882523E+02  0.51100000000E-03 0.  1.
        -12    1    3    3    0    0 -0.15584690116E+01 -0.17681240885E+02  0.16901626467E+02  0.24509591635E+02  0.00000000000E+00 0.  1.
</event>
<event>
 7    1  0.3223600E-013  0.5930177E+02  0.7816164E-02  0.1266605E+00
        -11   -1    0    0    0    0  0.00000000000E+00  0.00000000000E+00  0.45593999997E+02  0.45594000000E+02  0.51100000000E-03 0. -1.
         11   -1    0    0    0    0 -0.00000000000E+00 -0.00000000000E+00 -0.45593999997E+02  0.45594000000E+02  0.51100000000E-03 0.  1.
    9900012    2    1    2    0    0  0.29120744958E+02 -0.83908488142E+01  0.99150053393E+01  0.59301773167E+02  0.49999688390E+02 0.  0.
         12    1    1    2    0    0 -0.29120744958E+02  0.83908488142E+01 -0.99150053393E+01  0.31886226833E+02  0.00000000000E+00 0. -1.
         11    1    3    3    0    0  0.11120882682E+02 -0.16947334104E+02  0.30686809490E+01  0.20501291859E+02  0.51100000000E-03 0. -1.
        -11    1    3    3    0    0  0.23672034921E+02 -0.26760598836E+01  0.99861944818E+01  0.25831194597E+02  0.51100000000E-03 0.  1.
         12    1    3    3    0    0 -0.56721726453E+01  0.11232545174E+02 -0.31398700916E+01  0.12969286711E+02  0.00000000000E+00 0. -1.
</event>
<event>
 7    1  0.3223600E-013  0.5930209E+02  0.7816164E-02  0.1266604E+00
        -11   -1    0    0    0    0  0.00000000000E+00  0.00000000000E+00  0.45593999997E+02  0.45594000000E+02  0.51100000000E-03 0. -1.
         11   -1    0    0    0    0 -0.00000000000E+00 -0.00000000000E+00 -0.45593999997E+02  0.45594000000E+02  0.51100000000E-03 0.  1.
    9900012    2    1    2    0    0 -0.21644150916E+01  0.20489477308E+02 -0.24335324263E+02  0.59302088063E+02  0.50000262686E+02 0.  0.
         12    1    1    2    0    0  0.21644150916E+01 -0.20489477308E+02  0.24335324263E+02  0.31885911937E+02  0.00000000000E+00 0. -1.
         11    1    3    3    0    0 -0.70282046925E+01  0.12547275443E+01  0.74782883776E+01  0.10338994135E+02  0.51100000000E-03 0. -1.
        -11    1    3    3    0    0 -0.20915111326E+01  0.24726373543E+02 -0.12657458826E+02  0.27856403781E+02  0.51100000000E-03 0.  1.
        -12    1    3    3    0    0  0.69553007335E+01 -0.54916237788E+01 -0.19156153814E+02  0.21106690147E+02  0.00000000000E+00 0.  1.
</event>
<event>
 7    1  0.3223600E-013  0.5930197E+02  0.7816164E-02  0.1266605E+00
        -11   -1    0    0    0    0  0.00000000000E+00  0.00000000000E+00  0.45593999997E+02  0.45594000000E+02  0.51100000000E-03 0.  1.
         11   -1    0    0    0    0 -0.00000000000E+00 -0.00000000000E+00 -0.45593999997E+02  0.45594000000E+02  0.51100000000E-03 0. -1.
    9900012    2    1    2    0    0  0.68905840164E+01 -0.10416596946E+02  0.29338251827E+02  0.59301973903E+02  0.50000054485E+02 0.  0.
         12    1    1    2    0    0 -0.68905840164E+01  0.10416596946E+02 -0.29338251827E+02  0.31886026097E+02  0.00000000000E+00 0. -1.
         11    1    3    3    0    0  0.10693870176E+01 -0.34643480094E+01  0.20342135153E+02  0.20662714211E+02  0.51100000000E-03 0. -1.
        -11    1    3    3    0    0  0.93009659641E+01  0.11194728586E+02  0.13245583148E+02  0.19679313738E+02  0.51100000000E-03 0.  1.
         12    1    3    3    0    0 -0.34797689654E+01 -0.18146977523E+02 -0.42494664746E+01  0.18959945954E+02  0.00000000000E+00 0. -1.
</event>
<event>
 7    1  0.3223600E-013  0.5930195E+02  0.7816164E-02  0.1266605E+00
        -11   -1    0    0    0    0  0.00000000000E+00  0.00000000000E+00  0.45593999997E+02  0.45594000000E+02  0.51100000000E-03 0.  1.
         11   -1    0    0    0    0 -0.00000000000E+00 -0.00000000000E+00 -0.45593999997E+02  0.45594000000E+02  0.51100000000E-03 0. -1.
    9900012    2    1    2    0    0 -0.14566269937E+02  0.22544513393E+02  0.17213036823E+02  0.59301953826E+02  0.50000017869E+02 0.  0.
         12    1    1    2    0    0  0.14566269937E+02 -0.22544513393E+02 -0.17213036823E+02  0.31886046174E+02  0.00000000000E+00 0. -1.
         11    1    3    3    0    0 -0.21255039225E+02  0.18838140725E+01  0.15711443166E+02  0.26498582878E+02  0.51100000000E-03 0.  1.
        -11    1    3    3    0    0  0.47878359746E+01  0.23890079687E+02  0.77063816234E+01  0.25554796003E+02  0.51100000000E-03 0. -1.
         12    1    3    3    0    0  0.19009333137E+01 -0.32293803675E+01 -0.62047879664E+01  0.72485749447E+01  0.00000000000E+00 0. -1.
</event>
<event>
 7    1  0.3223600E-013  0.5930192E+02  0.7816164E-02  0.1266605E+00
        -11   -1    0    0    0    0  0.00000000000E+00  0.00000000000E+00  0.45593999997E+02  0.45594000000E+02  0.51100000000E-03 0.  1.
         11   -1    0    0    0    0 -0.00000000000E+00 -0.00000000000E+00 -0.45593999997E+02  0.45594000000E+02  0.51100000000E-03 0. -1.
    9900012    2    1    2    0    0  0.22635922433E+02 -0.13749028997E+02  0.17756727510E+02  0.59301919108E+02  0.49999954553E+02 0.  0.
         12    1    1    2    0    0 -0.22635922433E+02  0.13749028997E+02 -0.17756727510E+02  0.31886080892E+02  0.00000000000E+00 0. -1.
         11    1    3    3    0    0  0.46865610019E+01  0.11951946571E+02 -0.31106392505E+01  0.13209426849E+02  0.51100000000E-03 0. -1.
        -11    1    3    3    0    0  0.78376693174E+01  0.27626141942E+01  0.12027523507E+02  0.14619248253E+02  0.51100000000E-03 0.  1.
        -12    1    3    3    0    0  0.10111692114E+02 -0.28463589762E+02  0.88398432542E+01  0.31473244007E+02  0.00000000000E+00 0.  1.
</event>
<event>
 7    1  0.3223600E-013  0.5930192E+02  0.7816164E-02  0.1266605E+00
        -11   -1    0    0    0    0  0.00000000000E+00  0.00000000000E+00  0.45593999997E+02  0.45594000000E+02  0.51100000000E-03 0.  1.
         11   -1    0    0    0    0 -0.00000000000E+00 -0.00000000000E+00 -0.45593999997E+02  0.45594000000E+02  0.51100000000E-03 0. -1.
    9900012    2    1    2    0    0 -0.17386008611E+01  0.20058832281E+02  0.24725347171E+02  0.59301917171E+02  0.49999951020E+02 0.  0.
         12    1    1    2    0    0  0.17386008611E+01 -0.20058832281E+02 -0.24725347171E+02  0.31886082829E+02  0.00000000000E+00 0. -1.
         11    1    3    3    0    0 -0.13874369000E+00  0.89046844275E+01  0.10110275562E+02  0.13473319070E+02  0.51100000000E-03 0. -1.
        -11    1    3    3    0    0  0.23143755584E+01 -0.13830977824E+02  0.15002174113E+02  0.20535761738E+02  0.51100000000E-03 0.  1.
         12    1    3    3    0    0 -0.39142327295E+01  0.24985125677E+02 -0.38710250286E+00  0.25292836364E+02  0.00000000000E+00 0. -1.
</event>
<event>
 7    1  0.3223600E-013  0.5930189E+02  0.7816164E-02  0.1266605E+00
        -11   -1    0    0    0    0  0.00000000000E+00  0.00000000000E+00  0.45593999997E+02  0.45594000000E+02  0.51100000000E-03 0.  1.
         11   -1    0    0    0    0 -0.00000000000E+00 -0.00000000000E+00 -0.45593999997E+02  0.45594000000E+02  0.51100000000E-03 0. -1.
    9900012    2    1    2    0    0 -0.12147315948E+02  0.15881345951E+02  0.24838470056E+02  0.59301889721E+02  0.49999900958E+02 0.  0.
         12    1    1    2    0    0  0.12147315948E+02 -0.15881345951E+02 -0.24838470056E+02  0.31886110279E+02  0.00000000000E+00 0. -1.
         11    1    3    3    0    0 -0.35972964010E+01  0.11194361714E+02  0.27132606564E+02  0.29570806800E+02  0.51100000000E-03 0.  1.
        -11    1    3    3    0    0  0.19260846042E+01  0.10415035683E+02  0.85421701660E+01  0.13607036473E+02  0.51100000000E-03 0. -1.
         12    1    3    3    0    0 -0.10476104151E+02 -0.57280514454E+01 -0.10836306673E+02  0.16124046448E+02  0.00000000000E+00 0. -1.
</event>
<event>
 7    1  0.3223600E-013  0.5930197E+02  0.7816164E-02  0.1266605E+00
        -11   -1    0    0    0    0  0.00000000000E+00  0.00000000000E+00  0.45593999997E+02  0.45594000000E+02  0.51100000000E-03 0. -1.
         11   -1    0    0    0    0 -0.00000000000E+00 -0.00000000000E+00 -0.45593999997E+02  0.45594000000E+02  0.51100000000E-03 0.  1.
    9900012    2    1    2    0    0 -0.12371700898E+01  0.30061732232E+02 -0.10558429512E+02  0.59301972208E+02  0.50000051393E+02 0.  0.
         12    1    1    2    0    0  0.12371700898E+01 -0.30061732232E+02  0.10558429512E+02  0.31886027792E+02  0.00000000000E+00 0. -1.
         11    1    3    3    0    0 -0.11266048610E+02  0.93252937203E+01 -0.24687551890E+02  0.28694253306E+02  0.51100000000E-03 0. -1.
        -11    1    3    3    0    0 -0.25605351492E+01 -0.30308728399E+00  0.79617332775E+00  0.26985355994E+01  0.51100000000E-03 0.  1.
         12    1    3    3    0    0  0.12589413669E+02  0.21039525796E+02  0.13332949050E+02  0.27909183302E+02  0.00000000000E+00 0. -1.
</event>
<event>
 7    1  0.3410172E-013  0.5930193E+02  0.7816164E-02  0.1266605E+00
        -11   -1    0    0    0    0  0.00000000000E+00  0.00000000000E+00  0.45593999997E+02  0.45594000000E+02  0.51100000000E-03 0. -1.
         11   -1    0    0    0    0 -0.00000000000E+00 -0.00000000000E+00 -0.45593999997E+02  0.45594000000E+02  0.51100000000E-03 0.  1.
    9900012    2    1    2    0    0  0.31472443219E+01  0.10339329890E+02 -0.29998573544E+02  0.59301932446E+02  0.49999978878E+02 0.  0.
         12    1    1    2    0    0 -0.31472443219E+01 -0.10339329890E+02  0.29998573544E+02  0.31886067554E+02  0.00000000000E+00 0. -1.
         11    1    3    3    0    0 -0.24380761231E+01  0.38840501927E+01  0.33452872775E+01  0.56763551960E+01  0.51100000000E-03 0. -1.
        -11    1    3    3    0    0 -0.16057253428E+02  0.90296411517E+01 -0.23091249297E+02  0.29539390673E+02  0.51100000000E-03 0.  1.
        -12    1    3    3    0    0  0.21642573873E+02 -0.25743614546E+01 -0.10252611525E+02  0.24086186577E+02  0.00000000000E+00 0.  1.
</event>
<event>
 7    1  0.3223600E-013  0.5930194E+02  0.7816164E-02  0.1266605E+00
        -11   -1    0    0    0    0  0.00000000000E+00  0.00000000000E+00  0.45593999997E+02  0.45594000000E+02  0.51100000000E-03 0.  1.
         11   -1    0    0    0    0 -0.00000000000E+00 -0.00000000000E+00 -0.45593999997E+02  0.45594000000E+02  0.51100000000E-03 0. -1.
    9900012    2    1    2    0    0 -0.25567457189E+02  0.13178979550E+02  0.13760107329E+02  0.59301938424E+02  0.49999989781E+02 0.  0.
         12    1    1    2    0    0  0.25567457189E+02 -0.13178979550E+02 -0.13760107329E+02  0.31886061576E+02  0.00000000000E+00 0. -1.
         11    1    3    3    0    0  0.21252864635E+01 -0.39187446134E+01 -0.77627863035E+00  0.45250426153E+01  0.51100000000E-03 0. -1.
        -11    1    3    3    0    0 -0.29321939303E+02  0.76963511981E+01 -0.70952238037E+01  0.31134420620E+02  0.51100000000E-03 0.  1.
        -12    1    3    3    0    0  0.16291956505E+01  0.94013729653E+01  0.21631609764E+02  0.23642475189E+02  0.00000000000E+00 0.  1.
</event>
<event>
 7    1  0.3223600E-013  0.5930201E+02  0.7816164E-02  0.1266605E+00
        -11   -1    0    0    0    0  0.00000000000E+00  0.00000000000E+00  0.45593999997E+02  0.45594000000E+02  0.51100000000E-03 0.  1.
         11   -1    0    0    0    0 -0.00000000000E+00 -0.00000000000E+00 -0.45593999997E+02  0.45594000000E+02  0.51100000000E-03 0. -1.
    9900012    2    1    2    0    0  0.28928478327E+02  0.12950497664E+02 -0.34848335610E+01  0.59302010710E+02  0.50000121612E+02 0.  0.
         12    1    1    2    0    0 -0.28928478327E+02 -0.12950497664E+02  0.34848335610E+01  0.31885989290E+02  0.00000000000E+00 0. -1.
         11    1    3    3    0    0  0.16325727755E+02  0.14739026562E+02  0.27989020422E+01  0.22172102823E+02  0.51100000000E-03 0. -1.
        -11    1    3    3    0    0  0.93462620259E+01 -0.11762676668E+02  0.97919891903E+01  0.17933104272E+02  0.51100000000E-03 0.  1.
         12    1    3    3    0    0  0.32564885462E+01  0.99741477704E+01 -0.16075724794E+02  0.19196803615E+02  0.00000000000E+00 0. -1.
</event>
<event>
 7    1  0.3223600E-013  0.5930195E+02  0.7816164E-02  0.1266605E+00
        -11   -1    0    0    0    0  0.00000000000E+00  0.00000000000E+00  0.45593999997E+02  0.45594000000E+02  0.51100000000E-03 0.  1.
         11   -1    0    0    0    0 -0.00000000000E+00 -0.00000000000E+00 -0.45593999997E+02  0.45594000000E+02  0.51100000000E-03 0. -1.
    9900012    2    1    2    0    0  0.11445960381E+01 -0.31600359133E+02 -0.41020894329E+01  0.59301953911E+02  0.50000018025E+02 0.  0.
         12    1    1    2    0    0 -0.11445960381E+01  0.31600359133E+02  0.41020894329E+01  0.31886046089E+02  0.00000000000E+00 0. -1.
         11    1    3    3    0    0 -0.12342761922E+02  0.30078792922E+00 -0.37259112295E+01  0.12896381663E+02  0.51100000000E-03 0. -1.
        -11    1    3    3    0    0  0.13861128475E+02  0.39283094533E+00 -0.22821703586E+01  0.14053238081E+02  0.51100000000E-03 0.  1.
        -12    1    3    3    0    0 -0.37377051449E+00 -0.32293978008E+02  0.19059921552E+01  0.32352334167E+02  0.00000000000E+00 0.  1.
</event>
<event>
 7    1  0.3223600E-013  0.5930192E+02  0.7816164E-02  0.1266605E+00
        -11   -1    0    0    0    0  0.00000000000E+00  0.00000000000E+00  0.45593999997E+02  0.45594000000E+02  0.51100000000E-03 0. -1.
         11   -1    0    0    0    0 -0.00000000000E+00 -0.00000000000E+00 -0.45593999997E+02  0.45594000000E+02  0.51100000000E-03 0.  1.
    9900012    2    1    2    0    0  0.20409870407E+02 -0.23884486102E+02 -0.54489299455E+01  0.59301916453E+02  0.49999949710E+02 0.  0.
         12    1    1    2    0    0 -0.20409870407E+02  0.23884486102E+02  0.54489299455E+01  0.31886083547E+02  0.00000000000E+00 0. -1.
         11    1    3    3    0    0  0.10925763503E+02 -0.21182117199E+02 -0.15143142315E+02  0.28237725769E+02  0.51100000000E-03 0. -1.
        -11    1    3    3    0    0 -0.22666974534E+00 -0.13743457570E+02  0.56536845344E+00  0.13756949040E+02  0.51100000000E-03 0.  1.
         12    1    3    3    0    0  0.97107766495E+01  0.11041088667E+02  0.91288439157E+01  0.17307241644E+02  0.00000000000E+00 0. -1.
</event>
<event>
 7    1  0.3223600E-013  0.5930195E+02  0.7816164E-02  0.1266605E+00
        -11   -1    0    0    0    0  0.00000000000E+00  0.00000000000E+00  0.45593999997E+02  0.45594000000E+02  0.51100000000E-03 0.  1.
         11   -1    0    0    0    0 -0.00000000000E+00 -0.00000000000E+00 -0.45593999997E+02  0.45594000000E+02  0.51100000000E-03 0. -1.
    9900012    2    1    2    0    0  0.15742341310E+02  0.21021226293E+02  0.18083326191E+02  0.59301953664E+02  0.50000017574E+02 0.  0.
         12    1    1    2    0    0 -0.15742341310E+02 -0.21021226293E+02 -0.18083326191E+02  0.31886046336E+02  0.00000000000E+00 0. -1.
         11    1    3    3    0    0  0.14772409599E+02 -0.61038164080E+01 -0.32283015410E+01  0.16306519899E+02  0.51100000000E-03 0. -1.
        -11    1    3    3    0    0  0.65095606464E+01  0.43315544187E+01 -0.37474874695E+01  0.86706635321E+01  0.51100000000E-03 0.  1.
        -12    1    3    3    0    0 -0.55396289355E+01  0.22793488283E+02  0.25059115202E+02  0.34324770233E+02  0.00000000000E+00 0.  1.
</event>
<event>
 7    1  0.3223600E-013  0.5930195E+02  0.7816164E-02  0.1266605E+00
        -11   -1    0    0    0    0  0.00000000000E+00  0.00000000000E+00  0.45593999997E+02  0.45594000000E+02  0.51100000000E-03 0.  1.
         11   -1    0    0    0    0 -0.00000000000E+00 -0.00000000000E+00 -0.45593999997E+02  0.45594000000E+02  0.51100000000E-03 0. -1.
    9900012    2    1    2    0    0 -0.17396523485E+02 -0.11493570828E+00  0.26722055340E+02  0.59301945350E+02  0.50000002411E+02 0.  0.
         12    1    1    2    0    0  0.17396523485E+02  0.11493570828E+00 -0.26722055340E+02  0.31886054650E+02  0.00000000000E+00 0. -1.
         11    1    3    3    0    0 -0.18751753133E+02 -0.78532246545E+01  0.10900101240E+02  0.23067587441E+02  0.51100000000E-03 0. -1.
        -11    1    3    3    0    0  0.22151454117E+01 -0.11153318711E+02  0.12735010136E+02  0.17072898725E+02  0.51100000000E-03 0.  1.
        -12    1    3    3    0    0 -0.85991576397E+00  0.18891607657E+02  0.30869439637E+01  0.19161459183E+02  0.00000000000E+00 0.  1.
</event>
<event>
 7    1  0.3223600E-013  0.5930196E+02  0.7816164E-02  0.1266605E+00
        -11   -1    0    0    0    0  0.00000000000E+00  0.00000000000E+00  0.45593999997E+02  0.45594000000E+02  0.51100000000E-03 0.  1.
         11   -1    0    0    0    0 -0.00000000000E+00 -0.00000000000E+00 -0.45593999997E+02  0.45594000000E+02  0.51100000000E-03 0. -1.
    9900012    2    1    2    0    0  0.19647203271E+02 -0.20484489954E+02 -0.14529037369E+02  0.59301955217E+02  0.50000020407E+02 0.  0.
         12    1    1    2    0    0 -0.19647203271E+02  0.20484489954E+02  0.14529037369E+02  0.31886044783E+02  0.00000000000E+00 0. -1.
         11    1    3    3    0    0 -0.59606977977E+01  0.10020543926E+01 -0.46181785555E+00  0.60619557268E+01  0.51100000000E-03 0. -1.
        -11    1    3    3    0    0  0.10258332644E+02 -0.17144090043E+02  0.11538800442E+02  0.23071565355E+02  0.51100000000E-03 0.  1.
         12    1    3    3    0    0  0.15349568425E+02 -0.43424543030E+01 -0.25606019955E+02  0.30168434135E+02  0.00000000000E+00 0. -1.
</event>
<event>
 7    1  0.3223600E-013  0.5930195E+02  0.7816164E-02  0.1266605E+00
        -11   -1    0    0    0    0  0.00000000000E+00  0.00000000000E+00  0.45593999997E+02  0.45594000000E+02  0.51100000000E-03 0. -1.
         11   -1    0    0    0    0 -0.00000000000E+00 -0.00000000000E+00 -0.45593999997E+02  0.45594000000E+02  0.51100000000E-03 0.  1.
    9900012    2    1    2    0    0 -0.25316626543E+02  0.13968759279E+02 -0.13441081701E+02  0.59301945171E+02  0.50000002085E+02 0.  0.
         12    1    1    2    0    0  0.25316626543E+02 -0.13968759279E+02  0.13441081701E+02  0.31886054829E+02  0.00000000000E+00 0. -1.
         11    1    3    3    0    0  0.10880196620E+01 -0.21841997126E+01  0.25069687392E+01  0.34984864856E+01  0.51100000000E-03 0. -1.
        -11    1    3    3    0    0 -0.30052793213E+01  0.15258519868E+02  0.11780731726E+02  0.19509991610E+02  0.51100000000E-03 0.  1.
        -12    1    3    3    0    0 -0.23399366884E+02  0.89443912342E+00 -0.27728782166E+02  0.36293467075E+02  0.00000000000E+00 0.  1.
</event>
<event>
 7    1  0.3223600E-013  0.5930194E+02  0.7816164E-02  0.1266605E+00
        -11   -1    0    0    0    0  0.00000000000E+00  0.00000000000E+00  0.45593999997E+02  0.45594000000E+02  0.51100000000E-03 0.  1.
         11   -1    0    0    0    0 -0.00000000000E+00 -0.00000000000E+00 -0.45593999997E+02  0.45594000000E+02  0.51100000000E-03 0. -1.
    9900012    2    1    2    0    0  0.19210176313E+02  0.19525689719E+02 -0.16322909200E+02  0.59301940386E+02  0.49999993358E+02 0.  0.
         12    1    1    2    0    0 -0.19210176313E+02 -0.19525689719E+02  0.16322909200E+02  0.31886059614E+02  0.00000000000E+00 0. -1.
         11    1    3    3    0    0  0.19741555359E+02 -0.55110236391E+01 -0.19335859345E+02  0.28177577015E+02  0.51100000000E-03 0. -1.
        -11    1    3    3    0    0  0.86201841809E+01  0.12266937498E+02  0.35399218155E+01  0.15405076359E+02  0.51100000000E-03 0.  1.
        -12    1    3    3    0    0 -0.91515632275E+01  0.12769775860E+02 -0.52697167011E+00  0.15719287012E+02  0.00000000000E+00 0.  1.
</event>
<event>
 7    1  0.3223600E-013  0.5930192E+02  0.7816164E-02  0.1266605E+00
        -11   -1    0    0    0    0  0.00000000000E+00  0.00000000000E+00  0.45593999997E+02  0.45594000000E+02  0.51100000000E-03 0. -1.
         11   -1    0    0    0    0 -0.00000000000E+00 -0.00000000000E+00 -0.45593999997E+02  0.45594000000E+02  0.51100000000E-03 0.  1.
    9900012    2    1    2    0    0 -0.17093488748E+02  0.26434666215E+02 -0.50738020182E+01  0.59301915223E+02  0.49999947468E+02 0.  0.
         12    1    1    2    0    0  0.17093488748E+02 -0.26434666215E+02  0.50738020182E+01  0.31886084777E+02  0.00000000000E+00 0. -1.
         11    1    3    3    0    0 -0.14467801309E+02  0.20214558052E+02  0.31227441386E+01  0.25053885191E+02  0.51100000000E-03 0. -1.
        -11    1    3    3    0    0 -0.13066299534E+02 -0.88150401799E+00 -0.14993832577E+02  0.19907793661E+02  0.51100000000E-03 0.  1.
         12    1    3    3    0    0  0.10440612095E+02  0.71016121805E+01  0.67972864204E+01  0.14340236371E+02  0.00000000000E+00 0. -1.
</event>
<event>
 7    1  0.3223600E-013  0.5930194E+02  0.7816164E-02  0.1266605E+00
        -11   -1    0    0    0    0  0.00000000000E+00  0.00000000000E+00  0.45593999997E+02  0.45594000000E+02  0.51100000000E-03 0.  1.
         11   -1    0    0    0    0 -0.00000000000E+00 -0.00000000000E+00 -0.45593999997E+02  0.45594000000E+02  0.51100000000E-03 0. -1.
    9900012    2    1    2    0    0  0.20927667036E+02  0.76860506921E+01  0.22796456932E+02  0.59301936093E+02  0.49999985530E+02 0.  0.
         12    1    1    2    0    0 -0.20927667036E+02 -0.76860506921E+01 -0.22796456932E+02  0.31886063907E+02  0.00000000000E+00 0. -1.
         11    1    3    3    0    0  0.22282497526E+02 -0.84080276146E+01  0.11047508395E+02  0.26253610539E+02  0.51100000000E-03 0. -1.
        -11    1    3    3    0    0 -0.51141516095E+00 -0.38035727399E+01 -0.54965445150E+01  0.67037834781E+01  0.51100000000E-03 0.  1.
        -12    1    3    3    0    0 -0.84341532870E+00  0.19897651047E+02  0.17245493052E+02  0.26344542076E+02  0.00000000000E+00 0.  1.
</event>
<event>
 7    1  0.3223600E-013  0.5930188E+02  0.7816164E-02  0.1266605E+00
        -11   -1    0    0    0    0  0.00000000000E+00  0.00000000000E+00  0.45593999997E+02  0.45594000000E+02  0.51100000000E-03 0. -1.
         11   -1    0    0    0    0 -0.00000000000E+00 -0.00000000000E+00 -0.45593999997E+02  0.45594000000E+02  0.51100000000E-03 0.  1.
    9900012    2    1    2    0    0 -0.18172717586E+02 -0.79197232942E+01 -0.24975085435E+02  0.59301881171E+02  0.49999885364E+02 0.  0.
         12    1    1    2    0    0  0.18172717586E+02  0.79197232942E+01  0.24975085435E+02  0.31886118829E+02  0.00000000000E+00 0. -1.
         11    1    3    3    0    0 -0.18814231055E+02  0.11726296658E+02  0.34905325320E-01  0.22169405544E+02  0.51100000000E-03 0.  1.
        -11    1    3    3    0    0 -0.47426565436E+01 -0.67047290874E+00 -0.13432912549E+02  0.14261327596E+02  0.51100000000E-03 0. -1.
         12    1    3    3    0    0  0.53841700126E+01 -0.18975547044E+02 -0.11577078211E+02  0.22871148031E+02  0.00000000000E+00 0. -1.
</event>
<event>
 7    1  0.3223600E-013  0.5930195E+02  0.7816164E-02  0.1266605E+00
        -11   -1    0    0    0    0  0.00000000000E+00  0.00000000000E+00  0.45593999997E+02  0.45594000000E+02  0.51100000000E-03 0.  1.
         11   -1    0    0    0    0 -0.00000000000E+00 -0.00000000000E+00 -0.45593999997E+02  0.45594000000E+02  0.51100000000E-03 0. -1.
    9900012    2    1    2    0    0  0.82072911332E+01  0.15313367842E+02  0.26736893275E+02  0.59301947808E+02  0.50000006894E+02 0.  0.
         12    1    1    2    0    0 -0.82072911332E+01 -0.15313367842E+02 -0.26736893275E+02  0.31886052192E+02  0.00000000000E+00 0. -1.
         11    1    3    3    0    0 -0.51417645186E+01 -0.25495786171E+01 -0.21646215599E+01  0.61338144942E+01  0.51100000000E-03 0. -1.
        -11    1    3    3    0    0  0.19796586182E+01 -0.12252021271E+02  0.72330035159E+01  0.14364797722E+02  0.51100000000E-03 0.  1.
        -12    1    3    3    0    0  0.11369397034E+02  0.30114967730E+02  0.21668511318E+02  0.38803335592E+02  0.00000000000E+00 0.  1.
</event>
<event>
 7    1  0.3223600E-013  0.5930196E+02  0.7816164E-02  0.1266605E+00
        -11   -1    0    0    0    0  0.00000000000E+00  0.00000000000E+00  0.45593999997E+02  0.45594000000E+02  0.51100000000E-03 0. -1.
         11   -1    0    0    0    0 -0.00000000000E+00 -0.00000000000E+00 -0.45593999997E+02  0.45594000000E+02  0.51100000000E-03 0.  1.
    9900012    2    1    2    0    0 -0.12241947636E+02 -0.22633067327E+02 -0.18830786476E+02  0.59301960142E+02  0.50000029388E+02 0.  0.
         12    1    1    2    0    0  0.12241947636E+02  0.22633067327E+02  0.18830786476E+02  0.31886039858E+02  0.00000000000E+00 0. -1.
         11    1    3    3    0    0 -0.24857434782E+01  0.41260885191E+01 -0.12059128151E+02  0.12985611235E+02  0.51100000000E-03 0. -1.
        -11    1    3    3    0    0 -0.18722024543E+02 -0.16040123311E+02 -0.16162940527E+02  0.29479491270E+02  0.51100000000E-03 0.  1.
         12    1    3    3    0    0  0.89658203846E+01 -0.10719032535E+02  0.93912822032E+01  0.16836857637E+02  0.00000000000E+00 0. -1.
</event>
<event>
 7    1  0.3223600E-013  0.5930191E+02  0.7816164E-02  0.1266605E+00
        -11   -1    0    0    0    0  0.00000000000E+00  0.00000000000E+00  0.45593999997E+02  0.45594000000E+02  0.51100000000E-03 0.  1.
         11   -1    0    0    0    0 -0.00000000000E+00 -0.00000000000E+00 -0.45593999997E+02  0.45594000000E+02  0.51100000000E-03 0. -1.
    9900012    2    1    2    0    0 -0.28782774098E+02  0.86704634504E+01  0.10634734285E+02  0.59301912210E+02  0.49999941972E+02 0.  0.
         12    1    1    2    0    0  0.28782774098E+02 -0.86704634504E+01 -0.10634734285E+02  0.31886087790E+02  0.00000000000E+00 0. -1.
         11    1    3    3    0    0 -0.24097982357E+02 -0.64843237913E+01 -0.53920368947E+01  0.25531025652E+02  0.51100000000E-03 0. -1.
        -11    1    3    3    0    0 -0.13418838002E+02  0.95090508607E+01  0.23873454738E+01  0.16618865192E+02  0.51100000000E-03 0.  1.
        -12    1    3    3    0    0  0.87340462606E+01  0.56457363810E+01  0.13639425706E+02  0.17152021366E+02  0.00000000000E+00 0.  1.
</event>
<event>
 7    1  0.3223600E-013  0.5930194E+02  0.7816164E-02  0.1266605E+00
        -11   -1    0    0    0    0  0.00000000000E+00  0.00000000000E+00  0.45593999997E+02  0.45594000000E+02  0.51100000000E-03 0. -1.
         11   -1    0    0    0    0 -0.00000000000E+00 -0.00000000000E+00 -0.45593999997E+02  0.45594000000E+02  0.51100000000E-03 0.  1.
    9900012    2    1    2    0    0 -0.24785869023E+02  0.17482948291E+02  0.98350438893E+01  0.59301939214E+02  0.49999991220E+02 0.  0.
         12    1    1    2    0    0  0.24785869023E+02 -0.17482948291E+02 -0.98350438893E+01  0.31886060786E+02  0.00000000000E+00 0. -1.
         11    1    3    3    0    0 -0.22305161050E+01  0.72696196366E+01  0.59318994276E+01  0.96441693699E+01  0.51100000000E-03 0. -1.
        -11    1    3    3    0    0 -0.32704538314E+02  0.10560867546E+02 -0.66579346458E+01  0.35006382899E+02  0.51100000000E-03 0.  1.
         12    1    3    3    0    0  0.10149185396E+02 -0.34753889161E+00  0.10561079108E+02  0.14651386945E+02  0.00000000000E+00 0. -1.
</event>
<event>
 7    1  0.3223600E-013  0.5930193E+02  0.7816164E-02  0.1266605E+00
        -11   -1    0    0    0    0  0.00000000000E+00  0.00000000000E+00  0.45593999997E+02  0.45594000000E+02  0.51100000000E-03 0.  1.
         11   -1    0    0    0    0 -0.00000000000E+00 -0.00000000000E+00 -0.45593999997E+02  0.45594000000E+02  0.51100000000E-03 0. -1.
    9900012    2    1    2    0    0  0.89813261509E+01  0.30001887067E+02  0.59953232882E+01  0.59301931751E+02  0.49999977611E+02 0.  0.
         12    1    1    2    0    0 -0.89813261509E+01 -0.30001887067E+02 -0.59953232882E+01  0.31886068249E+02  0.00000000000E+00 0. -1.
         11    1    3    3    0    0  0.16518198730E+02  0.53114577761E+01 -0.36179282397E+01  0.17724330114E+02  0.51100000000E-03 0. -1.
        -11    1    3    3    0    0  0.10284737129E+02  0.18196166592E+02  0.15251363717E+01  0.20957154809E+02  0.51100000000E-03 0.  1.
         12    1    3    3    0    0 -0.17821609709E+02  0.64942626987E+01  0.80881151562E+01  0.20620446828E+02  0.00000000000E+00 0. -1.
</event>
<event>
 7    1  0.3223600E-013  0.5930161E+02  0.7816164E-02  0.1266606E+00
        -11   -1    0    0    0    0  0.00000000000E+00  0.00000000000E+00  0.45593999997E+02  0.45594000000E+02  0.51100000000E-03 0.  1.
         11   -1    0    0    0    0 -0.00000000000E+00 -0.00000000000E+00 -0.45593999997E+02  0.45594000000E+02  0.51100000000E-03 0. -1.
    9900012    2    1    2    0    0 -0.23972381632E+02 -0.37936123635E+01 -0.20680314017E+02  0.59301608487E+02  0.49999388051E+02 0.  0.
         12    1    1    2    0    0  0.23972381632E+02  0.37936123635E+01  0.20680314017E+02  0.31886391513E+02  0.00000000000E+00 0. -1.
         11    1    3    3    0    0 -0.19246954669E+01  0.77032084366E+01  0.37618469071E+01  0.87860893048E+01  0.51100000000E-03 0. -1.
        -11    1    3    3    0    0  0.46172809187E+00  0.11324483741E+02 -0.10877415522E+02  0.15709083154E+02  0.51100000000E-03 0.  1.
        -12    1    3    3    0    0 -0.22509414257E+02 -0.22821304542E+02 -0.13564745402E+02  0.34806436028E+02  0.00000000000E+00 0.  1.
</event>
<event>
 7    1  0.3223600E-013  0.5930190E+02  0.7816164E-02  0.1266605E+00
        -11   -1    0    0    0    0  0.00000000000E+00  0.00000000000E+00  0.45593999997E+02  0.45594000000E+02  0.51100000000E-03 0. -1.
         11   -1    0    0    0    0 -0.00000000000E+00 -0.00000000000E+00 -0.45593999997E+02  0.45594000000E+02  0.51100000000E-03 0.  1.
    9900012    2    1    2    0    0  0.29129651011E+02 -0.12449964181E+02 -0.36311672093E+01  0.59301897205E+02  0.49999914607E+02 0.  0.
         12    1    1    2    0    0 -0.29129651011E+02  0.12449964181E+02  0.36311672093E+01  0.31886102795E+02  0.00000000000E+00 0. -1.
         11    1    3    3    0    0 -0.36505521498E+01  0.10103367133E+02  0.77068302714E+00  0.10770260489E+02  0.51100000000E-03 0. -1.
        -11    1    3    3    0    0  0.13831379440E+02 -0.18303778399E+01  0.98141084831E+01  0.17057961948E+02  0.51100000000E-03 0.  1.
         12    1    3    3    0    0  0.18948823721E+02 -0.20722953473E+02 -0.14215958720E+02  0.31473674768E+02  0.00000000000E+00 0. -1.
</event>
<event>
 7    1  0.3223600E-013  0.5930192E+02  0.7816164E-02  0.1266605E+00
        -11   -1    0    0    0    0  0.00000000000E+00  0.00000000000E+00  0.45593999997E+02  0.45594000000E+02  0.51100000000E-03 0. -1.
         11   -1    0    0    0    0 -0.00000000000E+00 -0.00000000000E+00 -0.45593999997E+02  0.45594000000E+02  0.51100000000E-03 0.  1.
    9900012    2    1    2    0    0 -0.23500238063E+01 -0.15909304069E+02 -0.27533493895E+02  0.59301923823E+02  0.49999963152E+02 0.  0.
         12    1    1    2    0    0  0.23500238063E+01  0.15909304069E+02  0.27533493895E+02  0.31886076177E+02  0.00000000000E+00 0. -1.
         11    1    3    3    0    0  0.44199040669E+01 -0.41538310801E+01  0.39043032353E+01  0.72134214224E+01  0.51100000000E-03 0. -1.
        -11    1    3    3    0    0  0.45103183243E+00 -0.25568616809E+02 -0.16086917677E+02  0.30211695018E+02  0.51100000000E-03 0.  1.
         12    1    3    3    0    0 -0.72209597056E+01  0.13813143820E+02 -0.15350879454E+02  0.21876807383E+02  0.00000000000E+00 0. -1.
</event>
<event>
 7    1  0.3223600E-013  0.5930211E+02  0.7816164E-02  0.1266604E+00
        -11   -1    0    0    0    0  0.00000000000E+00  0.00000000000E+00  0.45593999997E+02  0.45594000000E+02  0.51100000000E-03 0. -1.
         11   -1    0    0    0    0 -0.00000000000E+00 -0.00000000000E+00 -0.45593999997E+02  0.45594000000E+02  0.51100000000E-03 0.  1.
    9900012    2    1    2    0    0  0.74911514949E+01  0.11229937285E+02 -0.28887387914E+02  0.59302109349E+02  0.50000301505E+02 0.  0.
         12    1    1    2    0    0 -0.74911514949E+01 -0.11229937285E+02  0.28887387914E+02  0.31885890651E+02  0.00000000000E+00 0. -1.
         11    1    3    3    0    0  0.10107510721E+02  0.15428198371E+02 -0.35795929313E+02  0.40268345305E+02  0.51100000000E-03 0.  1.
        -11    1    3    3    0    0  0.72196623889E+01 -0.87806850510E+00  0.37493411291E+01  0.81824255862E+01  0.51100000000E-03 0. -1.
        -12    1    3    3    0    0 -0.98360216151E+01 -0.33201925810E+01  0.31592002699E+01  0.10851338458E+02  0.00000000000E+00 0.  1.
</event>
<event>
 7    1  0.3223600E-013  0.5930198E+02  0.7816164E-02  0.1266605E+00
        -11   -1    0    0    0    0  0.00000000000E+00  0.00000000000E+00  0.45593999997E+02  0.45594000000E+02  0.51100000000E-03 0.  1.
         11   -1    0    0    0    0 -0.00000000000E+00 -0.00000000000E+00 -0.45593999997E+02  0.45594000000E+02  0.51100000000E-03 0. -1.
    9900012    2    1    2    0    0 -0.92244230482E+01 -0.61563214198E+01  0.29895282791E+02  0.59301981008E+02  0.50000067443E+02 0.  0.
         12    1    1    2    0    0  0.92244230482E+01  0.61563214198E+01 -0.29895282791E+02  0.31886018992E+02  0.00000000000E+00 0. -1.
         11    1    3    3    0    0 -0.57593597973E+01  0.17893443309E+00  0.16026711038E+02  0.17031080699E+02  0.51100000000E-03 0. -1.
        -11    1    3    3    0    0 -0.60210941842E+01  0.13331233721E+02  0.16741708334E+02  0.22231962709E+02  0.51100000000E-03 0.  1.
         12    1    3    3    0    0  0.25560309333E+01 -0.19666489574E+02 -0.28731365809E+01  0.20038937600E+02  0.00000000000E+00 0. -1.
</event>
<event>
 7    1  0.3223600E-013  0.5930195E+02  0.7816164E-02  0.1266605E+00
        -11   -1    0    0    0    0  0.00000000000E+00  0.00000000000E+00  0.45593999997E+02  0.45594000000E+02  0.51100000000E-03 0.  1.
         11   -1    0    0    0    0 -0.00000000000E+00 -0.00000000000E+00 -0.45593999997E+02  0.45594000000E+02  0.51100000000E-03 0. -1.
    9900012    2    1    2    0    0  0.37011544882E+01 -0.32708944228E+01  0.31501159308E+02  0.59301947679E+02  0.50000006660E+02 0.  0.
         12    1    1    2    0    0 -0.37011544882E+01  0.32708944228E+01 -0.31501159308E+02  0.31886052321E+02  0.00000000000E+00 0. -1.
         11    1    3    3    0    0 -0.37173812689E+01  0.19865279053E+01  0.76997631078E-01  0.42155836503E+01  0.51100000000E-03 0. -1.
        -11    1    3    3    0    0 -0.35550897074E+01 -0.11890628070E+02 -0.72284807089E+01  0.14362333806E+02  0.51100000000E-03 0.  1.
        -12    1    3    3    0    0  0.10973625465E+02  0.66332057419E+01  0.38652642385E+02  0.40724030223E+02  0.00000000000E+00 0.  1.
</event>
<event>
 7    1  0.3223600E-013  0.5930183E+02  0.7816164E-02  0.1266605E+00
        -11   -1    0    0    0    0  0.00000000000E+00  0.00000000000E+00  0.45593999997E+02  0.45594000000E+02  0.51100000000E-03 0. -1.
         11   -1    0    0    0    0 -0.00000000000E+00 -0.00000000000E+00 -0.45593999997E+02  0.45594000000E+02  0.51100000000E-03 0.  1.
    9900012    2    1    2    0    0  0.21317197794E+02 -0.59260656767E+01 -0.22960543666E+02  0.59301831500E+02  0.49999794776E+02 0.  0.
         12    1    1    2    0    0 -0.21317197794E+02  0.59260656767E+01  0.22960543666E+02  0.31886168500E+02  0.00000000000E+00 0. -1.
         11    1    3    3    0    0  0.45588031198E+01 -0.20619452087E+02  0.34262519607E+00  0.21120177142E+02  0.51100000000E-03 0.  1.
        -11    1    3    3    0    0 -0.28963960924E+01  0.64424440504E+01 -0.67729077411E+00  0.70959790530E+01  0.51100000000E-03 0. -1.
        -12    1    3    3    0    0  0.19654790766E+02  0.82509423595E+01 -0.22625878088E+02  0.31085675305E+02  0.00000000000E+00 0.  1.
</event>
<event>
 7    1  0.3223600E-013  0.5930193E+02  0.7816164E-02  0.1266605E+00
        -11   -1    0    0    0    0  0.00000000000E+00  0.00000000000E+00  0.45593999997E+02  0.45594000000E+02  0.51100000000E-03 0. -1.
         11   -1    0    0    0    0 -0.00000000000E+00 -0.00000000000E+00 -0.45593999997E+02  0.45594000000E+02  0.51100000000E-03 0.  1.
    9900012    2    1    2    0    0  0.24420265185E+02 -0.20291304062E+02 -0.29385608243E+01  0.59301929186E+02  0.49999972932E+02 0.  0.
         12    1    1    2    0    0 -0.24420265185E+02  0.20291304062E+02  0.29385608243E+01  0.31886070814E+02  0.00000000000E+00 0. -1.
         11    1    3    3    0    0  0.81698938322E+01 -0.13137674081E+01 -0.15788540652E+01  0.84241278749E+01  0.51100000000E-03 0. -1.
        -11    1    3    3    0    0  0.22450812308E+02 -0.96220573713E+01  0.16718059894E+02  0.29599264994E+02  0.51100000000E-03 0.  1.
        -12    1    3    3    0    0 -0.62004409546E+01 -0.93554792826E+01 -0.18077766653E+02  0.21278536317E+02  0.00000000000E+00 0.  1.
</event>
<event>
 7    1  0.3223600E-013  0.5930194E+02  0.7816164E-02  0.1266605E+00
        -11   -1    0    0    0    0  0.00000000000E+00  0.00000000000E+00  0.45593999997E+02  0.45594000000E+02  0.51100000000E-03 0.  1.
         11   -1    0    0    0    0 -0.00000000000E+00 -0.00000000000E+00 -0.45593999997E+02  0.45594000000E+02  0.51100000000E-03 0. -1.
    9900012    2    1    2    0    0  0.15355741185E+02 -0.25638077683E+02  0.11118038643E+02  0.59301943520E+02  0.49999999073E+02 0.  0.
         12    1    1    2    0    0 -0.15355741185E+02  0.25638077683E+02 -0.11118038643E+02  0.31886056480E+02  0.00000000000E+00 0. -1.
         11    1    3    3    0    0  0.20717255402E+02 -0.70111752482E+01 -0.18817900294E+01  0.21952275138E+02  0.51100000000E-03 0. -1.
        -11    1    3    3    0    0  0.24281352467E+01 -0.24477665833E+02  0.12507392270E+02  0.27595050771E+02  0.51100000000E-03 0.  1.
         12    1    3    3    0    0 -0.77896494640E+01  0.58507633985E+01  0.49243640247E+00  0.97546176105E+01  0.00000000000E+00 0. -1.
</event>
<event>
 7    1  0.3223600E-013  0.5930193E+02  0.7816164E-02  0.1266605E+00
        -11   -1    0    0    0    0  0.00000000000E+00  0.00000000000E+00  0.45593999997E+02  0.45594000000E+02  0.51100000000E-03 0. -1.
         11   -1    0    0    0    0 -0.00000000000E+00 -0.00000000000E+00 -0.45593999997E+02  0.45594000000E+02  0.51100000000E-03 0.  1.
    9900012    2    1    2    0    0  0.24638877966E+02  0.24708264083E+01 -0.20088366858E+02  0.59301925084E+02  0.49999965450E+02 0.  0.
         12    1    1    2    0    0 -0.24638877966E+02 -0.24708264083E+01  0.20088366858E+02  0.31886074916E+02  0.00000000000E+00 0. -1.
         11    1    3    3    0    0  0.63799479835E+01  0.44030051409E+01  0.11324490262E+02  0.13723493378E+02  0.51100000000E-03 0. -1.
        -11    1    3    3    0    0  0.23729543165E+02 -0.34944765638E+01 -0.15199648737E+02  0.28395983999E+02  0.51100000000E-03 0.  1.
        -12    1    3    3    0    0 -0.54706131830E+01  0.15622978312E+01 -0.16213208383E+02  0.17182447706E+02  0.00000000000E+00 0.  1.
</event>
<event>
 7    1  0.3223600E-013  0.5930195E+02  0.7816164E-02  0.1266605E+00
        -11   -1    0    0    0    0  0.00000000000E+00  0.00000000000E+00  0.45593999997E+02  0.45594000000E+02  0.51100000000E-03 0.  1.
         11   -1    0    0    0    0 -0.00000000000E+00 -0.00000000000E+00 -0.45593999997E+02  0.45594000000E+02  0.51100000000E-03 0. -1.
    9900012    2    1    2    0    0  0.93730926302E+01 -0.27704497985E+02  0.12701417403E+02  0.59301951670E+02  0.50000013938E+02 0.  0.
         12    1    1    2    0    0 -0.93730926302E+01  0.27704497985E+02 -0.12701417403E+02  0.31886048330E+02  0.00000000000E+00 0. -1.
         11    1    3    3    0    0  0.15241696795E+02  0.36967713185E+01  0.39012913970E+01  0.16161544302E+02  0.51100000000E-03 0. -1.
        -11    1    3    3    0    0 -0.26924114584E+01 -0.71857475215E+00 -0.76782116153E+01  0.81682533632E+01  0.51100000000E-03 0.  1.
        -12    1    3    3    0    0 -0.31761927068E+01 -0.30682694551E+02  0.16478337621E+02  0.34972154006E+02  0.00000000000E+00 0.  1.
</event>
<event>
 7    1  0.3223600E-013  0.5930195E+02  0.7816164E-02  0.1266605E+00
        -11   -1    0    0    0    0  0.00000000000E+00  0.00000000000E+00  0.45593999997E+02  0.45594000000E+02  0.51100000000E-03 0. -1.
         11   -1    0    0    0    0 -0.00000000000E+00 -0.00000000000E+00 -0.45593999997E+02  0.45594000000E+02  0.51100000000E-03 0.  1.
    9900012    2    1    2    0    0 -0.30092501808E+02 -0.16328740174E+01 -0.10416118142E+02  0.59301945685E+02  0.50000003022E+02 0.  0.
         12    1    1    2    0    0  0.30092501808E+02  0.16328740174E+01  0.10416118142E+02  0.31886054315E+02  0.00000000000E+00 0. -1.
         11    1    3    3    0    0  0.13612267887E+01 -0.58549908729E+00  0.43571019757E+01  0.46021826821E+01  0.51100000000E-03 0. -1.
        -11    1    3    3    0    0 -0.14331288391E+02  0.92915402788E+01  0.12293862859E+02  0.21044182378E+02  0.51100000000E-03 0.  1.
        -12    1    3    3    0    0 -0.17122440206E+02 -0.10338915209E+02 -0.27067082977E+02  0.33655580625E+02  0.00000000000E+00 0.  1.
</event>
<event>
 7    1  0.3223600E-013  0.5930197E+02  0.7816164E-02  0.1266605E+00
        -11   -1    0    0    0    0  0.00000000000E+00  0.00000000000E+00  0.45593999997E+02  0.45594000000E+02  0.51100000000E-03 0.  1.
         11   -1    0    0    0    0 -0.00000000000E+00 -0.00000000000E+00 -0.45593999997E+02  0.45594000000E+02  0.51100000000E-03 0. -1.
    9900012    2    1    2    0    0  0.12832160485E+01 -0.12441651554E+02  0.29330486999E+02  0.59301971642E+02  0.50000050362E+02 0.  0.
         12    1    1    2    0    0 -0.12832160485E+01  0.12441651554E+02 -0.29330486999E+02  0.31886028358E+02  0.00000000000E+00 0. -1.
         11    1    3    3    0    0  0.66115489205E+01 -0.15619136251E+02  0.61958944004E+01  0.18057106746E+02  0.51100000000E-03 0. -1.
        -11    1    3    3    0    0  0.72455921703E+01 -0.37216856288E-01 -0.59631422204E+01  0.93839787081E+01  0.51100000000E-03 0.  1.
        -12    1    3    3    0    0 -0.12573925042E+02  0.32147015535E+01  0.29097734819E+02  0.31860886188E+02  0.00000000000E+00 0.  1.
</event>
<event>
 7    1  0.3223600E-013  0.5930193E+02  0.7816164E-02  0.1266605E+00
        -11   -1    0    0    0    0  0.00000000000E+00  0.00000000000E+00  0.45593999997E+02  0.45594000000E+02  0.51100000000E-03 0.  1.
         11   -1    0    0    0    0 -0.00000000000E+00 -0.00000000000E+00 -0.45593999997E+02  0.45594000000E+02  0.51100000000E-03 0. -1.
    9900012    2    1    2    0    0 -0.12089620532E+02  0.14375510250E+02  0.25766394798E+02  0.59301932189E+02  0.49999978409E+02 0.  0.
         12    1    1    2    0    0  0.12089620532E+02 -0.14375510250E+02 -0.25766394798E+02  0.31886067811E+02  0.00000000000E+00 0. -1.
         11    1    3    3    0    0 -0.42969620564E+01  0.68488467520E+01 -0.10901574328E+02  0.13572579263E+02  0.51100000000E-03 0. -1.
        -11    1    3    3    0    0  0.36919417623E+01  0.10031313381E+02  0.47149166642E+01  0.11682813083E+02  0.51100000000E-03 0.  1.
        -12    1    3    3    0    0 -0.11484600238E+02 -0.25046498829E+01  0.31953052462E+02  0.34046539843E+02  0.00000000000E+00 0.  1.
</event>
<event>
 7    1  0.3223600E-013  0.5930194E+02  0.7816164E-02  0.1266605E+00
        -11   -1    0    0    0    0  0.00000000000E+00  0.00000000000E+00  0.45593999997E+02  0.45594000000E+02  0.51100000000E-03 0. -1.
         11   -1    0    0    0    0 -0.00000000000E+00 -0.00000000000E+00 -0.45593999997E+02  0.45594000000E+02  0.51100000000E-03 0.  1.
    9900012    2    1    2    0    0  0.25367300157E+02  0.17914742304E+02 -0.72306714741E+01  0.59301944756E+02  0.50000001328E+02 0.  0.
         12    1    1    2    0    0 -0.25367300157E+02 -0.17914742304E+02  0.72306714741E+01  0.31886055244E+02  0.00000000000E+00 0. -1.
         11    1    3    3    0    0  0.13843978494E+02  0.23454514787E+02  0.83270467134E+01  0.28479987916E+02  0.51100000000E-03 0. -1.
        -11    1    3    3    0    0  0.13282249633E+02  0.27970501791E+01 -0.17436516082E+02  0.22096916942E+02  0.51100000000E-03 0.  1.
        -12    1    3    3    0    0 -0.17589279705E+01 -0.83368226616E+01  0.18787978945E+01  0.87250398982E+01  0.00000000000E+00 0.  1.
</event>
<event>
 7    1  0.3223600E-013  0.5930194E+02  0.7816164E-02  0.1266605E+00
        -11   -1    0    0    0    0  0.00000000000E+00  0.00000000000E+00  0.45593999997E+02  0.45594000000E+02  0.51100000000E-03 0.  1.
         11   -1    0    0    0    0 -0.00000000000E+00 -0.00000000000E+00 -0.45593999997E+02  0.45594000000E+02  0.51100000000E-03 0. -1.
    9900012    2    1    2    0    0 -0.77054900759E+01  0.57322249822E+01  0.30405386989E+02  0.59301944451E+02  0.50000000771E+02 0.  0.
         12    1    1    2    0    0  0.77054900759E+01 -0.57322249822E+01 -0.30405386989E+02  0.31886055549E+02  0.00000000000E+00 0. -1.
         11    1    3    3    0    0  0.18196436026E+01  0.24427274438E+01  0.51944702132E+01  0.60216726300E+01  0.51100000000E-03 0. -1.
        -11    1    3    3    0    0  0.10875032595E+02 -0.14967677369E+02  0.15803992143E+02  0.24332362559E+02  0.51100000000E-03 0.  1.
         12    1    3    3    0    0 -0.20400166274E+02  0.18257174907E+02  0.94069246322E+01  0.28947909262E+02  0.00000000000E+00 0. -1.
</event>
<event>
 7    1  0.3223600E-013  0.5930194E+02  0.7816164E-02  0.1266605E+00
        -11   -1    0    0    0    0  0.00000000000E+00  0.00000000000E+00  0.45593999997E+02  0.45594000000E+02  0.51100000000E-03 0.  1.
         11   -1    0    0    0    0 -0.00000000000E+00 -0.00000000000E+00 -0.45593999997E+02  0.45594000000E+02  0.51100000000E-03 0. -1.
    9900012    2    1    2    0    0 -0.23870005097E+01 -0.95281213867E+01  0.30335423693E+02  0.59301940362E+02  0.49999993315E+02 0.  0.
         12    1    1    2    0    0  0.23870005097E+01  0.95281213867E+01 -0.30335423693E+02  0.31886059638E+02  0.00000000000E+00 0. -1.
         11    1    3    3    0    0 -0.13418963886E+02 -0.14237214052E+02  0.80775004794E+00  0.19581095887E+02  0.51100000000E-03 0. -1.
        -11    1    3    3    0    0 -0.53859845302E+01  0.32663247469E+01  0.47246682575E+00  0.63167184419E+01  0.51100000000E-03 0.  1.
         12    1    3    3    0    0  0.16417947906E+02  0.14427679184E+01  0.29055206819E+02  0.33404126033E+02  0.00000000000E+00 0. -1.
</event>
<event>
 7    1  0.3223600E-013  0.5930202E+02  0.7816164E-02  0.1266605E+00
        -11   -1    0    0    0    0  0.00000000000E+00  0.00000000000E+00  0.45593999997E+02  0.45594000000E+02  0.51100000000E-03 0.  1.
         11   -1    0    0    0    0 -0.00000000000E+00 -0.00000000000E+00 -0.45593999997E+02  0.45594000000E+02  0.51100000000E-03 0. -1.
    9900012    2    1    2    0    0  0.10329086952E+01  0.83868317870E+01  0.30745895596E+02  0.59302016499E+02  0.50000132171E+02 0.  0.
         12    1    1    2    0    0 -0.10329086952E+01 -0.83868317870E+01 -0.30745895596E+02  0.31885983501E+02  0.00000000000E+00 0. -1.
         11    1    3    3    0    0 -0.12356264573E+01  0.91338172740E+01  0.74970737718E+01  0.11881056609E+02  0.51100000000E-03 0. -1.
        -11    1    3    3    0    0  0.14982634882E+01  0.19878846484E+02  0.69179013337E+01  0.21101438106E+02  0.51100000000E-03 0.  1.
        -12    1    3    3    0    0  0.77027166436E+00 -0.20625831971E+02  0.16330920491E+02  0.26319521785E+02  0.00000000000E+00 0.  1.
</event>
<event>
 7    1  0.3223600E-013  0.5930194E+02  0.7816164E-02  0.1266605E+00
        -11   -1    0    0    0    0  0.00000000000E+00  0.00000000000E+00  0.45593999997E+02  0.45594000000E+02  0.51100000000E-03 0.  1.
         11   -1    0    0    0    0 -0.00000000000E+00 -0.00000000000E+00 -0.45593999997E+02  0.45594000000E+02  0.51100000000E-03 0. -1.
    9900012    2    1    2    0    0 -0.19938805478E+02 -0.24801049587E+02 -0.20180492592E+01  0.59301944312E+02  0.50000000518E+02 0.  0.
         12    1    1    2    0    0  0.19938805478E+02  0.24801049587E+02  0.20180492592E+01  0.31886055688E+02  0.00000000000E+00 0. -1.
         11    1    3    3    0    0 -0.11539891226E+01 -0.16509606111E+02 -0.21602592557E+02  0.27213430329E+02  0.51100000000E-03 0. -1.
        -11    1    3    3    0    0  0.13662955750E+00 -0.50341361064E+01  0.57262052702E+00  0.50684404409E+01  0.51100000000E-03 0.  1.
        -12    1    3    3    0    0 -0.18921445913E+02 -0.32573073697E+01  0.19011922771E+02  0.27020073542E+02  0.00000000000E+00 0.  1.
</event>
<event>
 7    1  0.3223600E-013  0.5930194E+02  0.7816164E-02  0.1266605E+00
        -11   -1    0    0    0    0  0.00000000000E+00  0.00000000000E+00  0.45593999997E+02  0.45594000000E+02  0.51100000000E-03 0. -1.
         11   -1    0    0    0    0 -0.00000000000E+00 -0.00000000000E+00 -0.45593999997E+02  0.45594000000E+02  0.51100000000E-03 0.  1.
    9900012    2    1    2    0    0  0.25420707740E+02  0.40828765357E+01 -0.18810598300E+02  0.59301939233E+02  0.49999991256E+02 0.  0.
         12    1    1    2    0    0 -0.25420707740E+02 -0.40828765357E+01  0.18810598300E+02  0.31886060767E+02  0.00000000000E+00 0. -1.
         11    1    3    3    0    0 -0.47828901441E+00  0.84648394191E+01 -0.15708454550E+01  0.86226343119E+01  0.51100000000E-03 0. -1.
        -11    1    3    3    0    0 -0.66413818696E+01  0.69679404024E+01 -0.12674157162E+02  0.15915225622E+02  0.51100000000E-03 0.  1.
         12    1    3    3    0    0  0.32540378624E+02 -0.11349903286E+02 -0.45655956835E+01  0.34764079299E+02  0.00000000000E+00 0. -1.
</event>
<event>
 7    1  0.3223600E-013  0.5930196E+02  0.7816164E-02  0.1266605E+00
        -11   -1    0    0    0    0  0.00000000000E+00  0.00000000000E+00  0.45593999997E+02  0.45594000000E+02  0.51100000000E-03 0.  1.
         11   -1    0    0    0    0 -0.00000000000E+00 -0.00000000000E+00 -0.45593999997E+02  0.45594000000E+02  0.51100000000E-03 0. -1.
    9900012    2    1    2    0    0  0.13870727179E+02 -0.66068212321E+01  0.27940517841E+02  0.59301957654E+02  0.50000024850E+02 0.  0.
         12    1    1    2    0    0 -0.13870727179E+02  0.66068212321E+01 -0.27940517841E+02  0.31886042346E+02  0.00000000000E+00 0. -1.
         11    1    3    3    0    0  0.66558962904E+01  0.22282813471E+01  0.20614839169E+01  0.73154568819E+01  0.51100000000E-03 0. -1.
        -11    1    3    3    0    0  0.78021055633E+01  0.16371797387E+02  0.18044908498E+02  0.25583731625E+02  0.51100000000E-03 0.  1.
         12    1    3    3    0    0 -0.58727467489E+00 -0.25206899966E+02  0.78341254269E+01  0.26402769147E+02  0.00000000000E+00 0. -1.
</event>
<event>
 7    1  0.3223600E-013  0.5930195E+02  0.7816164E-02  0.1266605E+00
        -11   -1    0    0    0    0  0.00000000000E+00  0.00000000000E+00  0.45593999997E+02  0.45594000000E+02  0.51100000000E-03 0. -1.
         11   -1    0    0    0    0 -0.00000000000E+00 -0.00000000000E+00 -0.45593999997E+02  0.45594000000E+02  0.51100000000E-03 0.  1.
    9900012    2    1    2    0    0 -0.28745017355E+02 -0.98780947535E+01  0.96367794134E+01  0.59301948251E+02  0.50000007702E+02 0.  0.
         12    1    1    2    0    0  0.28745017355E+02  0.98780947535E+01 -0.96367794134E+01  0.31886051749E+02  0.00000000000E+00 0. -1.
         11    1    3    3    0    0  0.51443407379E+01 -0.12002153264E+02 -0.71020292058E+01  0.14864546536E+02  0.51100000000E-03 0. -1.
        -11    1    3    3    0    0 -0.21854664320E+01 -0.68270669401E+01  0.71555785525E+01  0.10128544378E+02  0.51100000000E-03 0.  1.
        -12    1    3    3    0    0 -0.31703891661E+02  0.89511254509E+01  0.95832300666E+01  0.34308857337E+02  0.00000000000E+00 0.  1.
</event>
<event>
 7    1  0.3223600E-013  0.5930196E+02  0.7816164E-02  0.1266605E+00
        -11   -1    0    0    0    0  0.00000000000E+00  0.00000000000E+00  0.45593999997E+02  0.45594000000E+02  0.51100000000E-03 0. -1.
         11   -1    0    0    0    0 -0.00000000000E+00 -0.00000000000E+00 -0.45593999997E+02  0.45594000000E+02  0.51100000000E-03 0.  1.
    9900012    2    1    2    0    0 -0.12274918558E+02 -0.13638435521E+02  0.26077559600E+02  0.59301958167E+02  0.50000025787E+02 0.  0.
         12    1    1    2    0    0  0.12274918558E+02  0.13638435521E+02 -0.26077559600E+02  0.31886041833E+02  0.00000000000E+00 0. -1.
         11    1    3    3    0    0  0.10548585116E+02 -0.44563645840E+01  0.13502875780E+02  0.17704787145E+02  0.51100000000E-03 0. -1.
        -11    1    3    3    0    0 -0.10258622223E+02  0.14170985277E+01  0.20785345718E+02  0.23222361960E+02  0.51100000000E-03 0.  1.
        -12    1    3    3    0    0 -0.12564881452E+02 -0.10599169465E+02 -0.82106618981E+01  0.18374809062E+02  0.00000000000E+00 0.  1.
</event>
<event>
 7    1  0.3223600E-013  0.5930168E+02  0.7816164E-02  0.1266606E+00
        -11   -1    0    0    0    0  0.00000000000E+00  0.00000000000E+00  0.45593999997E+02  0.45594000000E+02  0.51100000000E-03 0.  1.
         11   -1    0    0    0    0 -0.00000000000E+00 -0.00000000000E+00 -0.45593999997E+02  0.45594000000E+02  0.51100000000E-03 0. -1.
    9900012    2    1    2    0    0  0.29555065788E+02  0.11666011064E+02  0.26719903283E+01  0.59301682241E+02  0.49999522562E+02 0.  0.
         12    1    1    2    0    0 -0.29555065788E+02 -0.11666011064E+02 -0.26719903283E+01  0.31886317759E+02  0.00000000000E+00 0. -1.
         11    1    3    3    0    0  0.19453771444E+02  0.17024645100E+02 -0.16688251002E+02  0.30769879525E+02  0.51100000000E-03 0. -1.
        -11    1    3    3    0    0 -0.42073524890E+01  0.21202015297E+01  0.55998767896E+01  0.73181753062E+01  0.51100000000E-03 0.  1.
        -12    1    3    3    0    0  0.14308646833E+02 -0.74788355656E+01  0.13760364541E+02  0.21213627411E+02  0.00000000000E+00 0.  1.
</event>
<event>
 7    1  0.3223600E-013  0.5930196E+02  0.7816164E-02  0.1266605E+00
        -11   -1    0    0    0    0  0.00000000000E+00  0.00000000000E+00  0.45593999997E+02  0.45594000000E+02  0.51100000000E-03 0. -1.
         11   -1    0    0    0    0 -0.00000000000E+00 -0.00000000000E+00 -0.45593999997E+02  0.45594000000E+02  0.51100000000E-03 0.  1.
    9900012    2    1    2    0    0 -0.23006849927E+02 -0.20300543914E+02  0.86771029421E+01  0.59301963209E+02  0.50000034982E+02 0.  0.
         12    1    1    2    0    0  0.23006849927E+02  0.20300543914E+02 -0.86771029421E+01  0.31886036791E+02  0.00000000000E+00 0. -1.
         11    1    3    3    0    0 -0.96851357741E+01 -0.12368826237E+02 -0.45941597635E+01  0.16367529491E+02  0.51100000000E-03 0. -1.
        -11    1    3    3    0    0 -0.37754684145E+01 -0.81700944510E+01 -0.12527326884E+02  0.15425256050E+02  0.51100000000E-03 0.  1.
         12    1    3    3    0    0 -0.95462457382E+01  0.23837677368E+00  0.25798589589E+02  0.27509177668E+02  0.00000000000E+00 0. -1.
</event>
<event>
 7    1  0.3223600E-013  0.5930193E+02  0.7816164E-02  0.1266605E+00
        -11   -1    0    0    0    0  0.00000000000E+00  0.00000000000E+00  0.45593999997E+02  0.45594000000E+02  0.51100000000E-03 0.  1.
         11   -1    0    0    0    0 -0.00000000000E+00 -0.00000000000E+00 -0.45593999997E+02  0.45594000000E+02  0.51100000000E-03 0. -1.
    9900012    2    1    2    0    0  0.16478085303E+02 -0.21753078791E+02  0.16492360427E+02  0.59301926479E+02  0.49999967995E+02 0.  0.
         12    1    1    2    0    0 -0.16478085303E+02  0.21753078791E+02 -0.16492360427E+02  0.31886073521E+02  0.00000000000E+00 0. -1.
         11    1    3    3    0    0  0.61328193874E+01  0.89868679433E+01 -0.67871416535E+01  0.12823437962E+02  0.51100000000E-03 0. -1.
        -11    1    3    3    0    0 -0.43681573449E+01 -0.37249218532E+01  0.12718673136E+02  0.13954228320E+02  0.51100000000E-03 0.  1.
         12    1    3    3    0    0  0.14713423261E+02 -0.27015024881E+02  0.10560828944E+02  0.32524260197E+02  0.00000000000E+00 0. -1.
</event>
<event>
 7    1  0.3223600E-013  0.5930190E+02  0.7816164E-02  0.1266605E+00
        -11   -1    0    0    0    0  0.00000000000E+00  0.00000000000E+00  0.45593999997E+02  0.45594000000E+02  0.51100000000E-03 0.  1.
         11   -1    0    0    0    0 -0.00000000000E+00 -0.00000000000E+00 -0.45593999997E+02  0.45594000000E+02  0.51100000000E-03 0. -1.
    9900012    2    1    2    0    0 -0.47676827863E+01 -0.10253385512E+02  0.29813764218E+02  0.59301901925E+02  0.49999923215E+02 0.  0.
         12    1    1    2    0    0  0.47676827863E+01  0.10253385512E+02 -0.29813764218E+02  0.31886098075E+02  0.00000000000E+00 0. -1.
         11    1    3    3    0    0 -0.77515114553E+01  0.31997526661E+01  0.25336495745E+02  0.26688243927E+02  0.51100000000E-03 0. -1.
        -11    1    3    3    0    0  0.57833981045E+01 -0.59592620389E+01  0.16326344167E+02  0.18316932380E+02  0.51100000000E-03 0.  1.
        -12    1    3    3    0    0 -0.27995694354E+01 -0.74938761392E+01 -0.11849075694E+02  0.14296725619E+02  0.00000000000E+00 0.  1.
</event>
<event>
 7    1  0.3223600E-013  0.5930162E+02  0.7816164E-02  0.1266606E+00
        -11   -1    0    0    0    0  0.00000000000E+00  0.00000000000E+00  0.45593999997E+02  0.45594000000E+02  0.51100000000E-03 0.  1.
         11   -1    0    0    0    0 -0.00000000000E+00 -0.00000000000E+00 -0.45593999997E+02  0.45594000000E+02  0.51100000000E-03 0. -1.
    9900012    2    1    2    0    0 -0.36743908500E+00 -0.11217492464E+02  0.29845837971E+02  0.59301620575E+02  0.49999410096E+02 0.  0.
         12    1    1    2    0    0  0.36743908500E+00  0.11217492464E+02 -0.29845837971E+02  0.31886379425E+02  0.00000000000E+00 0. -1.
         11    1    3    3    0    0  0.13654090107E+02 -0.50180218653E+00  0.24254157270E+02  0.27837926058E+02  0.51100000000E-03 0. -1.
        -11    1    3    3    0    0 -0.40034467232E+01 -0.93261296153E+01  0.14693074288E+02  0.17857511348E+02  0.51100000000E-03 0.  1.
         12    1    3    3    0    0 -0.10018082469E+02 -0.13895606623E+01 -0.91013935870E+01  0.13606183168E+02  0.00000000000E+00 0. -1.
</event>
<event>
 7    1  0.3223600E-013  0.5930196E+02  0.7816164E-02  0.1266605E+00
        -11   -1    0    0    0    0  0.00000000000E+00  0.00000000000E+00  0.45593999997E+02  0.45594000000E+02  0.51100000000E-03 0. -1.
         11   -1    0    0    0    0 -0.00000000000E+00 -0.00000000000E+00 -0.45593999997E+02  0.45594000000E+02  0.51100000000E-03 0.  1.
    9900012    2    1    2    0    0 -0.78280705011E+01  0.28617598417E+02  0.11682218158E+02  0.59301955278E+02  0.50000020518E+02 0.  0.
         12    1    1    2    0    0  0.78280705011E+01 -0.28617598417E+02 -0.11682218158E+02  0.31886044722E+02  0.00000000000E+00 0. -1.
         11    1    3    3    0    0  0.35727095854E+01 -0.71130551267E+01  0.92234848679E+01  0.12183286929E+02  0.51100000000E-03 0. -1.
        -11    1    3    3    0    0 -0.17427778700E+02  0.10215002884E+02  0.49025206801E+01  0.20787218756E+02  0.51100000000E-03 0.  1.
         12    1    3    3    0    0  0.60269986131E+01  0.25515650660E+02 -0.24437873903E+01  0.26331449593E+02  0.00000000000E+00 0. -1.
</event>
<event>
 7    1  0.3223600E-013  0.5930193E+02  0.7816164E-02  0.1266605E+00
        -11   -1    0    0    0    0  0.00000000000E+00  0.00000000000E+00  0.45593999997E+02  0.45594000000E+02  0.51100000000E-03 0. -1.
         11   -1    0    0    0    0 -0.00000000000E+00 -0.00000000000E+00 -0.45593999997E+02  0.45594000000E+02  0.51100000000E-03 0.  1.
    9900012    2    1    2    0    0 -0.22153498517E+02 -0.21590207800E+02 -0.77334713018E+01  0.59301934897E+02  0.49999983347E+02 0.  0.
         12    1    1    2    0    0  0.22153498517E+02  0.21590207800E+02  0.77334713018E+01  0.31886065103E+02  0.00000000000E+00 0. -1.
         11    1    3    3    0    0 -0.17275967383E+02 -0.93093402063E+01  0.27639802589E+01  0.19818235320E+02  0.51100000000E-03 0. -1.
        -11    1    3    3    0    0  0.69709679314E+01 -0.21603349225E+02 -0.86592971621E+01  0.24295730473E+02  0.51100000000E-03 0.  1.
         12    1    3    3    0    0 -0.11848499066E+02  0.93224816309E+01 -0.18381543986E+01  0.15187969103E+02  0.00000000000E+00 0. -1.
</event>
<event>
 7    1  0.3223600E-013  0.5930198E+02  0.7816164E-02  0.1266605E+00
        -11   -1    0    0    0    0  0.00000000000E+00  0.00000000000E+00  0.45593999997E+02  0.45594000000E+02  0.51100000000E-03 0.  1.
         11   -1    0    0    0    0 -0.00000000000E+00 -0.00000000000E+00 -0.45593999997E+02  0.45594000000E+02  0.51100000000E-03 0. -1.
    9900012    2    1    2    0    0  0.30248312595E+02 -0.58082757331E+01  0.82475205832E+01  0.59301983040E+02  0.50000071149E+02 0.  0.
         12    1    1    2    0    0 -0.30248312595E+02  0.58082757331E+01 -0.82475205832E+01  0.31886016960E+02  0.00000000000E+00 0. -1.
         11    1    3    3    0    0  0.97490718307E+01 -0.68305505885E+01 -0.11597848488E+02  0.16619594240E+02  0.51100000000E-03 0.  1.
        -11    1    3    3    0    0  0.76931157051E+01 -0.17942440347E+01  0.26729867854E+02  0.27872731776E+02  0.51100000000E-03 0. -1.
         12    1    3    3    0    0  0.12806125059E+02  0.28165188901E+01 -0.68844987823E+01  0.14809657024E+02  0.00000000000E+00 0. -1.
</event>
<event>
 7    1  0.3223600E-013  0.5930192E+02  0.7816164E-02  0.1266605E+00
        -11   -1    0    0    0    0  0.00000000000E+00  0.00000000000E+00  0.45593999997E+02  0.45594000000E+02  0.51100000000E-03 0. -1.
         11   -1    0    0    0    0 -0.00000000000E+00 -0.00000000000E+00 -0.45593999997E+02  0.45594000000E+02  0.51100000000E-03 0.  1.
    9900012    2    1    2    0    0 -0.10168716827E+02  0.15754839370E+02 -0.25789616035E+02  0.59301920581E+02  0.49999957238E+02 0.  0.
         12    1    1    2    0    0  0.10168716827E+02 -0.15754839370E+02  0.25789616035E+02  0.31886079419E+02  0.00000000000E+00 0. -1.
         11    1    3    3    0    0  0.36374446862E+00  0.76740456827E+01  0.35247164631E+01  0.84526276142E+01  0.51100000000E-03 0. -1.
        -11    1    3    3    0    0 -0.63190289651E+01  0.23672563101E+02 -0.22685283852E+02  0.33390754327E+02  0.51100000000E-03 0.  1.
        -12    1    3    3    0    0 -0.42134323303E+01 -0.15591769414E+02 -0.66290486465E+01  0.17458538639E+02  0.00000000000E+00 0.  1.
</event>
<event>
 7    1  0.3223600E-013  0.5930194E+02  0.7816164E-02  0.1266605E+00
        -11   -1    0    0    0    0  0.00000000000E+00  0.00000000000E+00  0.45593999997E+02  0.45594000000E+02  0.51100000000E-03 0.  1.
         11   -1    0    0    0    0 -0.00000000000E+00 -0.00000000000E+00 -0.45593999997E+02  0.45594000000E+02  0.51100000000E-03 0. -1.
    9900012    2    1    2    0    0 -0.10848571083E+02  0.18774276971E+02  0.23378534822E+02  0.59301939397E+02  0.49999991555E+02 0.  0.
         12    1    1    2    0    0  0.10848571083E+02 -0.18774276971E+02 -0.23378534822E+02  0.31886060603E+02  0.00000000000E+00 0. -1.
         11    1    3    3    0    0 -0.70317776947E+01 -0.60677989734E+01  0.22778038248E+02  0.24598843644E+02  0.51100000000E-03 0. -1.
        -11    1    3    3    0    0 -0.13631528365E+02  0.17582519514E+02  0.23460848783E+01  0.22371134807E+02  0.51100000000E-03 0.  1.
        -12    1    3    3    0    0  0.98147349771E+01  0.72595564312E+01 -0.17455883047E+01  0.12331960946E+02  0.00000000000E+00 0.  1.
</event>
<event>
 7    1  0.3223600E-013  0.5930194E+02  0.7816164E-02  0.1266605E+00
        -11   -1    0    0    0    0  0.00000000000E+00  0.00000000000E+00  0.45593999997E+02  0.45594000000E+02  0.51100000000E-03 0.  1.
         11   -1    0    0    0    0 -0.00000000000E+00 -0.00000000000E+00 -0.45593999997E+02  0.45594000000E+02  0.51100000000E-03 0. -1.
    9900012    2    1    2    0    0  0.18417467324E+02 -0.24319210570E+02  0.92786692319E+01  0.59301940223E+02  0.49999993061E+02 0.  0.
         12    1    1    2    0    0 -0.18417467324E+02  0.24319210570E+02 -0.92786692319E+01  0.31886059777E+02  0.00000000000E+00 0. -1.
         11    1    3    3    0    0 -0.12503152374E+02 -0.39316413061E+01 -0.28205864984E+01  0.13406801673E+02  0.51100000000E-03 0. -1.
        -11    1    3    3    0    0  0.12715453549E+02 -0.11725424456E+02 -0.64881916853E+01  0.18473358364E+02  0.51100000000E-03 0.  1.
        -12    1    3    3    0    0  0.18205166149E+02 -0.86621448079E+01  0.18587447416E+02  0.27421780187E+02  0.00000000000E+00 0.  1.
</event>
<event>
 7    1  0.3223600E-013  0.5930193E+02  0.7816164E-02  0.1266605E+00
        -11   -1    0    0    0    0  0.00000000000E+00  0.00000000000E+00  0.45593999997E+02  0.45594000000E+02  0.51100000000E-03 0. -1.
         11   -1    0    0    0    0 -0.00000000000E+00 -0.00000000000E+00 -0.45593999997E+02  0.45594000000E+02  0.51100000000E-03 0.  1.
    9900012    2    1    2    0    0 -0.22355988124E+02  0.14887614710E+02  0.17184001948E+02  0.59301934082E+02  0.49999981862E+02 0.  0.
         12    1    1    2    0    0  0.22355988124E+02 -0.14887614710E+02 -0.17184001948E+02  0.31886065918E+02  0.00000000000E+00 0. -1.
         11    1    3    3    0    0 -0.27278964942E+02  0.28296298152E+01  0.21041477282E+02  0.34567217123E+02  0.51100000000E-03 0. -1.
        -11    1    3    3    0    0 -0.75692441411E+01  0.40059374216E+01 -0.48451415380E+01  0.98395319135E+01  0.51100000000E-03 0.  1.
         12    1    3    3    0    0  0.12492220959E+02  0.80520474732E+01  0.98766620435E+00  0.14895185045E+02  0.00000000000E+00 0. -1.
</event>
<event>
 7    1  0.3223600E-013  0.5930195E+02  0.7816164E-02  0.1266605E+00
        -11   -1    0    0    0    0  0.00000000000E+00  0.00000000000E+00  0.45593999997E+02  0.45594000000E+02  0.51100000000E-03 0. -1.
         11   -1    0    0    0    0 -0.00000000000E+00 -0.00000000000E+00 -0.45593999997E+02  0.45594000000E+02  0.51100000000E-03 0.  1.
    9900012    2    1    2    0    0 -0.10899238606E+02 -0.21093328866E+02 -0.21283758683E+02  0.59301948057E+02  0.50000007348E+02 0.  0.
         12    1    1    2    0    0  0.10899238606E+02  0.21093328866E+02  0.21283758683E+02  0.31886051943E+02  0.00000000000E+00 0. -1.
         11    1    3    3    0    0  0.10637255782E+02  0.94272409080E+01 -0.18912813601E+01  0.14338794480E+02  0.51100000000E-03 0. -1.
        -11    1    3    3    0    0 -0.17174549191E+01 -0.14670105560E+02 -0.10294473858E+02  0.18003828504E+02  0.51100000000E-03 0.  1.
        -12    1    3    3    0    0 -0.19819039469E+02 -0.15850464214E+02 -0.90980034652E+01  0.26959325072E+02  0.00000000000E+00 0.  1.
</event>
<event>
 7    1  0.3223600E-013  0.5930195E+02  0.7816164E-02  0.1266605E+00
        -11   -1    0    0    0    0  0.00000000000E+00  0.00000000000E+00  0.45593999997E+02  0.45594000000E+02  0.51100000000E-03 0.  1.
         11   -1    0    0    0    0 -0.00000000000E+00 -0.00000000000E+00 -0.45593999997E+02  0.45594000000E+02  0.51100000000E-03 0. -1.
    9900012    2    1    2    0    0  0.77014927128E+01 -0.24415926821E+02  0.19007098379E+02  0.59301948797E+02  0.50000008698E+02 0.  0.
         12    1    1    2    0    0 -0.77014927128E+01  0.24415926821E+02 -0.19007098379E+02  0.31886051203E+02  0.00000000000E+00 0. -1.
         11    1    3    3    0    0 -0.94583600649E+01 -0.28638478764E+02  0.13017497180E+02  0.32849326844E+02  0.51100000000E-03 0. -1.
        -11    1    3    3    0    0 -0.18430883699E+01  0.46247979212E+01 -0.25748936959E+01  0.56049806742E+01  0.51100000000E-03 0.  1.
        -12    1    3    3    0    0  0.19002941148E+02 -0.40224597850E+00  0.85644948950E+01  0.20847641279E+02  0.00000000000E+00 0.  1.
</event>
<event>
 7    1  0.3223600E-013  0.5930194E+02  0.7816164E-02  0.1266605E+00
        -11   -1    0    0    0    0  0.00000000000E+00  0.00000000000E+00  0.45593999997E+02  0.45594000000E+02  0.51100000000E-03 0. -1.
         11   -1    0    0    0    0 -0.00000000000E+00 -0.00000000000E+00 -0.45593999997E+02  0.45594000000E+02  0.51100000000E-03 0.  1.
    9900012    2    1    2    0    0 -0.11604394405E+02 -0.19755119940E+02 -0.22176431404E+02  0.59301939673E+02  0.49999992059E+02 0.  0.
         12    1    1    2    0    0  0.11604394405E+02  0.19755119940E+02  0.22176431404E+02  0.31886060327E+02  0.00000000000E+00 0. -1.
         11    1    3    3    0    0 -0.32430288308E+01 -0.22293526444E+02 -0.15688888569E+02  0.27452864734E+02  0.51100000000E-03 0. -1.
        -11    1    3    3    0    0  0.96783511267E+01  0.97549026065E+00  0.44476895576E+01  0.10695980761E+02  0.51100000000E-03 0.  1.
        -12    1    3    3    0    0 -0.18039716701E+02  0.15629162438E+01 -0.10935232393E+02  0.21153094178E+02  0.00000000000E+00 0.  1.
</event>
<event>
 7    1  0.3223600E-013  0.5930195E+02  0.7816164E-02  0.1266605E+00
        -11   -1    0    0    0    0  0.00000000000E+00  0.00000000000E+00  0.45593999997E+02  0.45594000000E+02  0.51100000000E-03 0. -1.
         11   -1    0    0    0    0 -0.00000000000E+00 -0.00000000000E+00 -0.45593999997E+02  0.45594000000E+02  0.51100000000E-03 0.  1.
    9900012    2    1    2    0    0  0.29696416427E+01  0.13912782666E+02 -0.28536569365E+02  0.59301951576E+02  0.50000013767E+02 0.  0.
         12    1    1    2    0    0 -0.29696416427E+01 -0.13912782666E+02  0.28536569365E+02  0.31886048424E+02  0.00000000000E+00 0. -1.
         11    1    3    3    0    0 -0.70023937561E+01  0.26842645308E+00 -0.93414555646E+01  0.11677686560E+02  0.51100000000E-03 0. -1.
        -11    1    3    3    0    0 -0.19702907769E+00  0.21452350670E+01 -0.29214101969E+02  0.29293422608E+02  0.51100000000E-03 0.  1.
         12    1    3    3    0    0  0.10169064477E+02  0.11499121145E+02  0.10018988169E+02  0.18330842408E+02  0.00000000000E+00 0. -1.
</event>
<event>
 7    1  0.3223600E-013  0.5930194E+02  0.7816164E-02  0.1266605E+00
        -11   -1    0    0    0    0  0.00000000000E+00  0.00000000000E+00  0.45593999997E+02  0.45594000000E+02  0.51100000000E-03 0. -1.
         11   -1    0    0    0    0 -0.00000000000E+00 -0.00000000000E+00 -0.45593999997E+02  0.45594000000E+02  0.51100000000E-03 0.  1.
    9900012    2    1    2    0    0  0.20585157911E+02  0.54274384122E+01 -0.23738471488E+02  0.59301939683E+02  0.49999992077E+02 0.  0.
         12    1    1    2    0    0 -0.20585157911E+02 -0.54274384122E+01  0.23738471488E+02  0.31886060317E+02  0.00000000000E+00 0. -1.
         11    1    3    3    0    0  0.12992716062E+02 -0.40330917030E+01  0.69601724335E+01  0.15281377553E+02  0.51100000000E-03 0. -1.
        -11    1    3    3    0    0  0.14721858876E+02  0.40823179585E+01 -0.38918142917E+01  0.15765299471E+02  0.51100000000E-03 0.  1.
        -12    1    3    3    0    0 -0.71294170267E+01  0.53782121567E+01 -0.26806829630E+02  0.28255262659E+02  0.00000000000E+00 0.  1.
</event>
<event>
 7    1  0.3223600E-013  0.5930194E+02  0.7816164E-02  0.1266605E+00
        -11   -1    0    0    0    0  0.00000000000E+00  0.00000000000E+00  0.45593999997E+02  0.45594000000E+02  0.51100000000E-03 0.  1.
         11   -1    0    0    0    0 -0.00000000000E+00 -0.00000000000E+00 -0.45593999997E+02  0.45594000000E+02  0.51100000000E-03 0. -1.
    9900012    2    1    2    0    0 -0.67113612606E+01  0.10347298339E+02  0.29404279902E+02  0.59301943025E+02  0.49999998171E+02 0.  0.
         12    1    1    2    0    0  0.67113612606E+01 -0.10347298339E+02 -0.29404279902E+02  0.31886056975E+02  0.00000000000E+00 0. -1.
         11    1    3    3    0    0  0.42067041543E+01  0.66696004115E+01  0.19146806601E+01  0.81145506211E+01  0.51100000000E-03 0. -1.
        -11    1    3    3    0    0  0.87286359844E+01  0.76487101564E+01  0.28850430342E+02  0.31097253647E+02  0.51100000000E-03 0.  1.
        -12    1    3    3    0    0 -0.19646701399E+02 -0.39710122285E+01 -0.13608311002E+01  0.20090138757E+02  0.00000000000E+00 0.  1.
</event>
<event>
 7    1  0.3223600E-013  0.5930193E+02  0.7816164E-02  0.1266605E+00
        -11   -1    0    0    0    0  0.00000000000E+00  0.00000000000E+00  0.45593999997E+02  0.45594000000E+02  0.51100000000E-03 0. -1.
         11   -1    0    0    0    0 -0.00000000000E+00 -0.00000000000E+00 -0.45593999997E+02  0.45594000000E+02  0.51100000000E-03 0.  1.
    9900012    2    1    2    0    0 -0.53957786006E+01 -0.30936977643E+02  0.55236483927E+01  0.59301926176E+02  0.49999967442E+02 0.  0.
         12    1    1    2    0    0  0.53957786006E+01  0.30936977643E+02 -0.55236483927E+01  0.31886073824E+02  0.00000000000E+00 0. -1.
         11    1    3    3    0    0 -0.72146668408E+01  0.51055626284E+01  0.43061569550E+01  0.98316415394E+01  0.51100000000E-03 0. -1.
        -11    1    3    3    0    0  0.95386979667E+01 -0.13969544161E+02  0.14758333131E+02  0.22448681922E+02  0.51100000000E-03 0.  1.
        -12    1    3    3    0    0 -0.77198097266E+01 -0.22072996110E+02 -0.13540841693E+02  0.27021602714E+02  0.00000000000E+00 0.  1.
</event>
<event>
 7    1  0.3223600E-013  0.5930190E+02  0.7816164E-02  0.1266605E+00
        -11   -1    0    0    0    0  0.00000000000E+00  0.00000000000E+00  0.45593999997E+02  0.45594000000E+02  0.51100000000E-03 0. -1.
         11   -1    0    0    0    0 -0.00000000000E+00 -0.00000000000E+00 -0.45593999997E+02  0.45594000000E+02  0.51100000000E-03 0.  1.
    9900012    2    1    2    0    0 -0.13354659107E+02  0.28229770936E+02 -0.64386709790E+01  0.59301900036E+02  0.49999919769E+02 0.  0.
         12    1    1    2    0    0  0.13354659107E+02 -0.28229770936E+02  0.64386709790E+01  0.31886099964E+02  0.00000000000E+00 0. -1.
         11    1    3    3    0    0 -0.83822900345E+00  0.11103719155E+02 -0.17703375942E+02  0.20914223078E+02  0.51100000000E-03 0. -1.
        -11    1    3    3    0    0 -0.82216779223E+01  0.22028505055E+02 -0.20107504341E+01  0.23598604627E+02  0.51100000000E-03 0.  1.
         12    1    3    3    0    0 -0.42947521811E+01 -0.49024532734E+01  0.13275455397E+02  0.14789072330E+02  0.00000000000E+00 0. -1.
</event>
<event>
 7    1  0.3223600E-013  0.5930197E+02  0.7816164E-02  0.1266605E+00
        -11   -1    0    0    0    0  0.00000000000E+00  0.00000000000E+00  0.45593999997E+02  0.45594000000E+02  0.51100000000E-03 0.  1.
         11   -1    0    0    0    0 -0.00000000000E+00 -0.00000000000E+00 -0.45593999997E+02  0.45594000000E+02  0.51100000000E-03 0. -1.
    9900012    2    1    2    0    0  0.26108466272E+02  0.54247586080E+01  0.17482522205E+02  0.59301974853E+02  0.50000056217E+02 0.  0.
         12    1    1    2    0    0 -0.26108466272E+02 -0.54247586080E+01 -0.17482522205E+02  0.31886025147E+02  0.00000000000E+00 0. -1.
         11    1    3    3    0    0  0.21817442690E+02  0.70874225518E+01  0.33582952735E+02  0.40669977607E+02  0.51100000000E-03 0.  1.
        -11    1    3    3    0    0  0.59342509748E+01 -0.20414056434E+01 -0.71040372751E+01  0.94789249127E+01  0.51100000000E-03 0. -1.
        -12    1    3    3    0    0 -0.16432273921E+01  0.37874169962E+00 -0.89963932543E+01  0.91530723325E+01  0.00000000000E+00 0.  1.
</event>
<event>
 7    1  0.3223600E-013  0.5930205E+02  0.7816164E-02  0.1266604E+00
        -11   -1    0    0    0    0  0.00000000000E+00  0.00000000000E+00  0.45593999997E+02  0.45594000000E+02  0.51100000000E-03 0.  1.
         11   -1    0    0    0    0 -0.00000000000E+00 -0.00000000000E+00 -0.45593999997E+02  0.45594000000E+02  0.51100000000E-03 0. -1.
    9900012    2    1    2    0    0  0.11334924076E+02  0.23595764274E+02  0.18206404785E+02  0.59302050576E+02  0.50000194318E+02 0.  0.
         12    1    1    2    0    0 -0.11334924076E+02 -0.23595764274E+02 -0.18206404785E+02  0.31885949424E+02  0.00000000000E+00 0. -1.
         11    1    3    3    0    0 -0.57724812754E+01 -0.47382290898E+01  0.58336551797E+01  0.94764913338E+01  0.51100000000E-03 0. -1.
        -11    1    3    3    0    0 -0.36867081595E+01  0.43760572777E+01  0.16843236607E+02  0.17788656892E+02  0.51100000000E-03 0.  1.
        -12    1    3    3    0    0  0.20794113511E+02  0.23957936086E+02 -0.44704870013E+01  0.32036902351E+02  0.00000000000E+00 0.  1.
</event>
<event>
 7    1  0.3223600E-013  0.5930194E+02  0.7816164E-02  0.1266605E+00
        -11   -1    0    0    0    0  0.00000000000E+00  0.00000000000E+00  0.45593999997E+02  0.45594000000E+02  0.51100000000E-03 0. -1.
         11   -1    0    0    0    0 -0.00000000000E+00 -0.00000000000E+00 -0.45593999997E+02  0.45594000000E+02  0.51100000000E-03 0.  1.
    9900012    2    1    2    0    0  0.25351378888E+02  0.17365233013E+01 -0.19261689605E+02  0.59301943311E+02  0.49999998693E+02 0.  0.
         12    1    1    2    0    0 -0.25351378888E+02 -0.17365233013E+01  0.19261689605E+02  0.31886056689E+02  0.00000000000E+00 0. -1.
         11    1    3    3    0    0  0.91223115021E+00  0.57881695923E+01 -0.21099411574E+02  0.21897950633E+02  0.51100000000E-03 0.  1.
        -11    1    3    3    0    0  0.51750341132E+01 -0.14240745198E+02 -0.19755588072E+01  0.15280138570E+02  0.51100000000E-03 0. -1.
        -12    1    3    3    0    0  0.19264113625E+02  0.10189098907E+02  0.38132807764E+01  0.22123854107E+02  0.00000000000E+00 0.  1.
</event>
<event>
 7    1  0.3223600E-013  0.5930178E+02  0.7816164E-02  0.1266605E+00
        -11   -1    0    0    0    0  0.00000000000E+00  0.00000000000E+00  0.45593999997E+02  0.45594000000E+02  0.51100000000E-03 0.  1.
         11   -1    0    0    0    0 -0.00000000000E+00 -0.00000000000E+00 -0.45593999997E+02  0.45594000000E+02  0.51100000000E-03 0. -1.
    9900012    2    1    2    0    0  0.70627069134E+01 -0.21335480238E+02  0.22619605524E+02  0.59301778839E+02  0.49999698734E+02 0.  0.
         12    1    1    2    0    0 -0.70627069134E+01  0.21335480238E+02 -0.22619605524E+02  0.31886221161E+02  0.00000000000E+00 0. -1.
         11    1    3    3    0    0  0.85987772778E+01 -0.58417381318E+01 -0.81019946090E+01  0.13179802426E+02  0.51100000000E-03 0. -1.
        -11    1    3    3    0    0 -0.23904739404E+01  0.76179265796E+01  0.18081298762E+02  0.19765640294E+02  0.51100000000E-03 0.  1.
        -12    1    3    3    0    0  0.85440357600E+00 -0.23111668685E+02  0.12640301371E+02  0.26356336119E+02  0.00000000000E+00 0.  1.
</event>
<event>
 7    1  0.3223600E-013  0.5930199E+02  0.7816164E-02  0.1266605E+00
        -11   -1    0    0    0    0  0.00000000000E+00  0.00000000000E+00  0.45593999997E+02  0.45594000000E+02  0.51100000000E-03 0.  1.
         11   -1    0    0    0    0 -0.00000000000E+00 -0.00000000000E+00 -0.45593999997E+02  0.45594000000E+02  0.51100000000E-03 0. -1.
    9900012    2    1    2    0    0  0.24209501813E+02  0.20573073012E+02 -0.27140493374E+01  0.59301994057E+02  0.50000091241E+02 0.  0.
         12    1    1    2    0    0 -0.24209501813E+02 -0.20573073012E+02  0.27140493374E+01  0.31886005943E+02  0.00000000000E+00 0. -1.
         11    1    3    3    0    0  0.46974200162E+01  0.25753449865E+02  0.68851463734E+01  0.27068638229E+02  0.51100000000E-03 0.  1.
        -11    1    3    3    0    0  0.33783975780E+01  0.80510918596E+01 -0.70314647515E+01  0.11210492725E+02  0.51100000000E-03 0. -1.
         12    1    3    3    0    0  0.16133684219E+02 -0.13231468712E+02 -0.25677309592E+01  0.21022863103E+02  0.00000000000E+00 0. -1.
</event>
<event>
 7    1  0.3223600E-013  0.5930195E+02  0.7816164E-02  0.1266605E+00
        -11   -1    0    0    0    0  0.00000000000E+00  0.00000000000E+00  0.45593999997E+02  0.45594000000E+02  0.51100000000E-03 0.  1.
         11   -1    0    0    0    0 -0.00000000000E+00 -0.00000000000E+00 -0.45593999997E+02  0.45594000000E+02  0.51100000000E-03 0. -1.
    9900012    2    1    2    0    0  0.73680995553E+01  0.30645144208E+02  0.48276955109E+01  0.59301946646E+02  0.50000004775E+02 0.  0.
         12    1    1    2    0    0 -0.73680995553E+01 -0.30645144208E+02 -0.48276955109E+01  0.31886053354E+02  0.00000000000E+00 0. -1.
         11    1    3    3    0    0  0.94220615177E+01 -0.39115382968E+01 -0.10263797998E+02  0.14471382957E+02  0.51100000000E-03 0. -1.
        -11    1    3    3    0    0  0.78300680780E+01  0.15151477557E+02 -0.19659955207E+01  0.17168062701E+02  0.51100000000E-03 0.  1.
        -12    1    3    3    0    0 -0.98840300403E+01  0.19405204948E+02  0.17057489029E+02  0.27662500988E+02  0.00000000000E+00 0.  1.
</event>
<event>
 7    1  0.3223600E-013  0.5930197E+02  0.7816164E-02  0.1266605E+00
        -11   -1    0    0    0    0  0.00000000000E+00  0.00000000000E+00  0.45593999997E+02  0.45594000000E+02  0.51100000000E-03 0. -1.
         11   -1    0    0    0    0 -0.00000000000E+00 -0.00000000000E+00 -0.45593999997E+02  0.45594000000E+02  0.51100000000E-03 0.  1.
    9900012    2    1    2    0    0  0.24207927049E+02 -0.19861079643E+02 -0.60193679050E+01  0.59301968473E+02  0.50000044582E+02 0.  0.
         12    1    1    2    0    0 -0.24207927049E+02  0.19861079643E+02  0.60193679050E+01  0.31886031527E+02  0.00000000000E+00 0. -1.
         11    1    3    3    0    0 -0.31541946769E+01 -0.15812073253E+02 -0.49874503930E+01  0.16877359577E+02  0.51100000000E-03 0. -1.
        -11    1    3    3    0    0  0.18720214547E+02 -0.16457201290E+02 -0.74244308365E+01  0.26007846518E+02  0.51100000000E-03 0.  1.
         12    1    3    3    0    0  0.86419071782E+01  0.12408194900E+02  0.63925133244E+01  0.16416762377E+02  0.00000000000E+00 0. -1.
</event>
<event>
 7    1  0.3223600E-013  0.5930195E+02  0.7816164E-02  0.1266605E+00
        -11   -1    0    0    0    0  0.00000000000E+00  0.00000000000E+00  0.45593999997E+02  0.45594000000E+02  0.51100000000E-03 0.  1.
         11   -1    0    0    0    0 -0.00000000000E+00 -0.00000000000E+00 -0.45593999997E+02  0.45594000000E+02  0.51100000000E-03 0. -1.
    9900012    2    1    2    0    0  0.64183021362E+01  0.21786141520E+02  0.22380569106E+02  0.59301946024E+02  0.50000003641E+02 0.  0.
         12    1    1    2    0    0 -0.64183021362E+01 -0.21786141520E+02 -0.22380569106E+02  0.31886053976E+02  0.00000000000E+00 0. -1.
         11    1    3    3    0    0  0.21857944187E+02  0.95964989326E+01  0.69352090977E+00  0.23881865241E+02  0.51100000000E-03 0. -1.
        -11    1    3    3    0    0 -0.47105981769E+01 -0.41107570544E+01  0.85197009992E-02  0.62520501910E+01  0.51100000000E-03 0.  1.
        -12    1    3    3    0    0 -0.10729043874E+02  0.16300399642E+02  0.21678528495E+02  0.29168030593E+02  0.00000000000E+00 0.  1.
</event>
<event>
 7    1  0.4082722E-013  0.5930191E+02  0.7816164E-02  0.1266605E+00
        -11   -1    0    0    0    0  0.00000000000E+00  0.00000000000E+00  0.45593999997E+02  0.45594000000E+02  0.51100000000E-03 0. -1.
         11   -1    0    0    0    0 -0.00000000000E+00 -0.00000000000E+00 -0.45593999997E+02  0.45594000000E+02  0.51100000000E-03 0.  1.
    9900012    2    1    2    0    0  0.27977125462E+02  0.99334391856E+01 -0.11633145541E+02  0.59301908387E+02  0.49999935000E+02 0.  0.
         12    1    1    2    0    0 -0.27977125462E+02 -0.99334391856E+01  0.11633145541E+02  0.31886091613E+02  0.00000000000E+00 0. -1.
         11    1    3    3    0    0 -0.64514275405E+01  0.10701610621E+02 -0.15070383367E+01  0.12586363732E+02  0.51100000000E-03 0. -1.
        -11    1    3    3    0    0  0.47606060517E+01  0.11298300022E+02  0.20896462162E+01  0.12437104765E+02  0.51100000000E-03 0.  1.
        -12    1    3    3    0    0  0.29667946950E+02 -0.12066471457E+02 -0.12215753421E+02  0.34278439890E+02  0.00000000000E+00 0.  1.
</event>
<event>
 7    1  0.3223600E-013  0.5930191E+02  0.7816164E-02  0.1266605E+00
        -11   -1    0    0    0    0  0.00000000000E+00  0.00000000000E+00  0.45593999997E+02  0.45594000000E+02  0.51100000000E-03 0. -1.
         11   -1    0    0    0    0 -0.00000000000E+00 -0.00000000000E+00 -0.45593999997E+02  0.45594000000E+02  0.51100000000E-03 0.  1.
    9900012    2    1    2    0    0 -0.19199905607E+02 -0.19850575130E+02  0.15938669565E+02  0.59301907486E+02  0.49999933357E+02 0.  0.
         12    1    1    2    0    0  0.19199905607E+02  0.19850575130E+02 -0.15938669565E+02  0.31886092514E+02  0.00000000000E+00 0. -1.
         11    1    3    3    0    0 -0.52918622327E+01 -0.94556906354E+01 -0.10730175750E+02  0.15249608624E+02  0.51100000000E-03 0. -1.
        -11    1    3    3    0    0  0.21875800972E+01 -0.16440286278E+02  0.19016345379E+02  0.25232715102E+02  0.51100000000E-03 0.  1.
         12    1    3    3    0    0 -0.16095623471E+02  0.60454017829E+01  0.76524999357E+01  0.18819583760E+02  0.00000000000E+00 0. -1.
</event>
<event>
 7    1  0.3223600E-013  0.5930194E+02  0.7816164E-02  0.1266605E+00
        -11   -1    0    0    0    0  0.00000000000E+00  0.00000000000E+00  0.45593999997E+02  0.45594000000E+02  0.51100000000E-03 0.  1.
         11   -1    0    0    0    0 -0.00000000000E+00 -0.00000000000E+00 -0.45593999997E+02  0.45594000000E+02  0.51100000000E-03 0. -1.
    9900012    2    1    2    0    0 -0.92119483502E+01 -0.22767114324E+02  0.20335180250E+02  0.59301936542E+02  0.49999986347E+02 0.  0.
         12    1    1    2    0    0  0.92119483502E+01  0.22767114324E+02 -0.20335180250E+02  0.31886063458E+02  0.00000000000E+00 0. -1.
         11    1    3    3    0    0  0.96667838269E+00  0.18694190756E+01 -0.11599229903E+02  0.11788610155E+02  0.51100000000E-03 0. -1.
        -11    1    3    3    0    0 -0.54084579904E+01  0.32957715764E+01  0.29783468889E+01  0.69988626626E+01  0.51100000000E-03 0.  1.
         12    1    3    3    0    0 -0.47701687424E+01 -0.27932304976E+02  0.28956063264E+02  0.40514463724E+02  0.00000000000E+00 0. -1.
</event>
<event>
 7    1  0.3223600E-013  0.5930194E+02  0.7816164E-02  0.1266605E+00
        -11   -1    0    0    0    0  0.00000000000E+00  0.00000000000E+00  0.45593999997E+02  0.45594000000E+02  0.51100000000E-03 0. -1.
         11   -1    0    0    0    0 -0.00000000000E+00 -0.00000000000E+00 -0.45593999997E+02  0.45594000000E+02  0.51100000000E-03 0.  1.
    9900012    2    1    2    0    0 -0.31365474995E+01  0.31151607908E+02  0.60382279744E+01  0.59301940310E+02  0.49999993220E+02 0.  0.
         12    1    1    2    0    0  0.31365474995E+01 -0.31151607908E+02 -0.60382279744E+01  0.31886059690E+02  0.00000000000E+00 0. -1.
         11    1    3    3    0    0 -0.24298249576E+01  0.35947138001E+02  0.12631918814E+02  0.38179394351E+02  0.51100000000E-03 0. -1.
        -11    1    3    3    0    0 -0.11566930451E+01  0.81326853892E+00  0.66154544028E+01  0.67648785454E+01  0.51100000000E-03 0.  1.
        -12    1    3    3    0    0  0.44997050330E+00 -0.56087986320E+01 -0.13209145242E+02  0.14357667414E+02  0.00000000000E+00 0.  1.
</event>
<event>
 7    1  0.3223600E-013  0.5930199E+02  0.7816164E-02  0.1266605E+00
        -11   -1    0    0    0    0  0.00000000000E+00  0.00000000000E+00  0.45593999997E+02  0.45594000000E+02  0.51100000000E-03 0. -1.
         11   -1    0    0    0    0 -0.00000000000E+00 -0.00000000000E+00 -0.45593999997E+02  0.45594000000E+02  0.51100000000E-03 0.  1.
    9900012    2    1    2    0    0  0.13565910579E+02  0.16002645680E+01 -0.28811856960E+02  0.59301986169E+02  0.50000076855E+02 0.  0.
         12    1    1    2    0    0 -0.13565910579E+02 -0.16002645680E+01  0.28811856960E+02  0.31886013831E+02  0.00000000000E+00 0. -1.
         11    1    3    3    0    0 -0.98232222309E+01 -0.38912427685E+00  0.27356114153E+01  0.10204444266E+02  0.51100000000E-03 0. -1.
        -11    1    3    3    0    0  0.63030729258E+01 -0.12308959764E+02 -0.19087448454E+02  0.23570530489E+02  0.51100000000E-03 0.  1.
        -12    1    3    3    0    0  0.17086059884E+02  0.14298348609E+02 -0.12460019922E+02  0.25527011414E+02  0.00000000000E+00 0.  1.
</event>
<event>
 7    1  0.3223600E-013  0.5930186E+02  0.7816164E-02  0.1266605E+00
        -11   -1    0    0    0    0  0.00000000000E+00  0.00000000000E+00  0.45593999997E+02  0.45594000000E+02  0.51100000000E-03 0. -1.
         11   -1    0    0    0    0 -0.00000000000E+00 -0.00000000000E+00 -0.45593999997E+02  0.45594000000E+02  0.51100000000E-03 0.  1.
    9900012    2    1    2    0    0 -0.28839003436E+02  0.13566896062E+02 -0.98846393083E+00  0.59301861179E+02  0.49999848904E+02 0.  0.
         12    1    1    2    0    0  0.28839003436E+02 -0.13566896062E+02  0.98846393083E+00  0.31886138821E+02  0.00000000000E+00 0. -1.
         11    1    3    3    0    0 -0.41846631258E+01  0.25559930337E+01 -0.78727175146E+01  0.92749224898E+01  0.51100000000E-03 0. -1.
        -11    1    3    3    0    0 -0.50537912948E+00  0.12050181142E+02 -0.13718603014E+02  0.18266426649E+02  0.51100000000E-03 0.  1.
         12    1    3    3    0    0 -0.24148961181E+02 -0.10392781138E+01  0.20602856597E+02  0.31760512040E+02  0.00000000000E+00 0. -1.
</event>
<event>
 7    1  0.3223600E-013  0.5930195E+02  0.7816164E-02  0.1266605E+00
        -11   -1    0    0    0    0  0.00000000000E+00  0.00000000000E+00  0.45593999997E+02  0.45594000000E+02  0.51100000000E-03 0.  1.
         11   -1    0    0    0    0 -0.00000000000E+00 -0.00000000000E+00 -0.45593999997E+02  0.45594000000E+02  0.51100000000E-03 0. -1.
    9900012    2    1    2    0    0 -0.14200461102E+02  0.24130712558E+02  0.15256999387E+02  0.59301946397E+02  0.50000004322E+02 0.  0.
         12    1    1    2    0    0  0.14200461102E+02 -0.24130712558E+02 -0.15256999387E+02  0.31886053603E+02  0.00000000000E+00 0. -1.
         11    1    3    3    0    0 -0.75554243637E+00 -0.31298121118E+01  0.27722422172E+00  0.32316283447E+01  0.51100000000E-03 0. -1.
        -11    1    3    3    0    0 -0.73645777852E+01  0.10376934664E+01  0.25955596383E+02  0.27000125880E+02  0.51100000000E-03 0.  1.
         12    1    3    3    0    0 -0.60803408800E+01  0.26222831203E+02 -0.10975821218E+02  0.29070192173E+02  0.00000000000E+00 0. -1.
</event>
<event>
 7    1  0.3223600E-013  0.5930196E+02  0.7816164E-02  0.1266605E+00
        -11   -1    0    0    0    0  0.00000000000E+00  0.00000000000E+00  0.45593999997E+02  0.45594000000E+02  0.51100000000E-03 0.  1.
         11   -1    0    0    0    0 -0.00000000000E+00 -0.00000000000E+00 -0.45593999997E+02  0.45594000000E+02  0.51100000000E-03 0. -1.
    9900012    2    1    2    0    0  0.74909925784E+01 -0.28514634383E+02  0.12145780861E+02  0.59301963298E+02  0.50000035145E+02 0.  0.
         12    1    1    2    0    0 -0.74909925784E+01  0.28514634383E+02 -0.12145780861E+02  0.31886036702E+02  0.00000000000E+00 0. -1.
         11    1    3    3    0    0  0.53174535305E+01 -0.24805773149E+02 -0.86547389694E+01  0.26804965966E+02  0.51100000000E-03 0. -1.
        -11    1    3    3    0    0  0.78241067981E+01  0.20231568030E+01 -0.19934368599E+01  0.83236771570E+01  0.51100000000E-03 0.  1.
         12    1    3    3    0    0 -0.56505677502E+01 -0.57320180373E+01  0.22793956691E+02  0.24173320175E+02  0.00000000000E+00 0. -1.
</event>
<event>
 7    1  0.3223600E-013  0.5930195E+02  0.7816164E-02  0.1266605E+00
        -11   -1    0    0    0    0  0.00000000000E+00  0.00000000000E+00  0.45593999997E+02  0.45594000000E+02  0.51100000000E-03 0.  1.
         11   -1    0    0    0    0 -0.00000000000E+00 -0.00000000000E+00 -0.45593999997E+02  0.45594000000E+02  0.51100000000E-03 0. -1.
    9900012    2    1    2    0    0  0.33815157711E+01  0.22514752988E+02  0.22324238291E+02  0.59301947151E+02  0.50000005697E+02 0.  0.
         12    1    1    2    0    0 -0.33815157711E+01 -0.22514752988E+02 -0.22324238291E+02  0.31886052849E+02  0.00000000000E+00 0. -1.
         11    1    3    3    0    0  0.10333516962E+02  0.27300552732E+02  0.15332216121E+01  0.29231019842E+02  0.51100000000E-03 0. -1.
        -11    1    3    3    0    0  0.26103226734E+01 -0.70381367936E+01  0.49569856573E+00  0.75229562882E+01  0.51100000000E-03 0.  1.
        -12    1    3    3    0    0 -0.95623238641E+01  0.22523370497E+01  0.20295318113E+02  0.22547971021E+02  0.00000000000E+00 0.  1.
</event>
<event>
 7    1  0.3223600E-013  0.5930193E+02  0.7816164E-02  0.1266605E+00
        -11   -1    0    0    0    0  0.00000000000E+00  0.00000000000E+00  0.45593999997E+02  0.45594000000E+02  0.51100000000E-03 0.  1.
         11   -1    0    0    0    0 -0.00000000000E+00 -0.00000000000E+00 -0.45593999997E+02  0.45594000000E+02  0.51100000000E-03 0. -1.
    9900012    2    1    2    0    0  0.15132421106E+02 -0.77296500858E+00  0.28055901787E+02  0.59301933003E+02  0.49999979894E+02 0.  0.
         12    1    1    2    0    0 -0.15132421106E+02  0.77296500858E+00 -0.28055901787E+02  0.31886066997E+02  0.00000000000E+00 0. -1.
         11    1    3    3    0    0  0.14856206812E+01  0.49145994508E+01  0.78221887885E+01  0.93566550793E+01  0.51100000000E-03 0. -1.
        -11    1    3    3    0    0  0.16382385285E+02 -0.14940710406E+01  0.32648590825E+02  0.36558792089E+02  0.51100000000E-03 0.  1.
         12    1    3    3    0    0 -0.27355848599E+01 -0.41934934188E+01 -0.12414877826E+02  0.13386485835E+02  0.00000000000E+00 0. -1.
</event>
<event>
 7    1  0.3223600E-013  0.5930196E+02  0.7816164E-02  0.1266605E+00
        -11   -1    0    0    0    0  0.00000000000E+00  0.00000000000E+00  0.45593999997E+02  0.45594000000E+02  0.51100000000E-03 0.  1.
         11   -1    0    0    0    0 -0.00000000000E+00 -0.00000000000E+00 -0.45593999997E+02  0.45594000000E+02  0.51100000000E-03 0. -1.
    9900012    2    1    2    0    0 -0.20314142516E+02  0.18722509029E+02  0.15922406139E+02  0.59301956850E+02  0.50000023385E+02 0.  0.
         12    1    1    2    0    0  0.20314142516E+02 -0.18722509029E+02 -0.15922406139E+02  0.31886043150E+02  0.00000000000E+00 0. -1.
         11    1    3    3    0    0  0.86358722428E+01 -0.65083016155E+01  0.12494905823E+02  0.16524495487E+02  0.51100000000E-03 0. -1.
        -11    1    3    3    0    0 -0.70621921843E+01  0.12936044154E+00  0.61456054814E+01  0.93626790806E+01  0.51100000000E-03 0.  1.
        -12    1    3    3    0    0 -0.21887822574E+02  0.25101450203E+02 -0.27181051650E+01  0.33414782283E+02  0.00000000000E+00 0.  1.
</event>
<event>
 7    1  0.3223600E-013  0.5930194E+02  0.7816164E-02  0.1266605E+00
        -11   -1    0    0    0    0  0.00000000000E+00  0.00000000000E+00  0.45593999997E+02  0.45594000000E+02  0.51100000000E-03 0. -1.
         11   -1    0    0    0    0 -0.00000000000E+00 -0.00000000000E+00 -0.45593999997E+02  0.45594000000E+02  0.51100000000E-03 0.  1.
    9900012    2    1    2    0    0  0.48356648046E+01  0.29164140712E+02 -0.11949470780E+02  0.59301943338E+02  0.49999998741E+02 0.  0.
         12    1    1    2    0    0 -0.48356648046E+01 -0.29164140712E+02  0.11949470780E+02  0.31886056662E+02  0.00000000000E+00 0. -1.
         11    1    3    3    0    0 -0.20730159491E+01 -0.36040809864E+00  0.53337719382E+01  0.57337956427E+01  0.51100000000E-03 0. -1.
        -11    1    3    3    0    0  0.15069350665E+02 -0.15052933236E+01 -0.15135893270E+02  0.21411363871E+02  0.51100000000E-03 0.  1.
         12    1    3    3    0    0 -0.81606699116E+01  0.31029842134E+02 -0.21473494486E+01  0.32156783824E+02  0.00000000000E+00 0. -1.
</event>
<event>
 7    1  0.3223600E-013  0.5930197E+02  0.7816164E-02  0.1266605E+00
        -11   -1    0    0    0    0  0.00000000000E+00  0.00000000000E+00  0.45593999997E+02  0.45594000000E+02  0.51100000000E-03 0. -1.
         11   -1    0    0    0    0 -0.00000000000E+00 -0.00000000000E+00 -0.45593999997E+02  0.45594000000E+02  0.51100000000E-03 0.  1.
    9900012    2    1    2    0    0 -0.28806338066E+02 -0.88086485653E+01  0.10455683905E+02  0.59301972837E+02  0.50000052541E+02 0.  0.
         12    1    1    2    0    0  0.28806338066E+02  0.88086485653E+01 -0.10455683905E+02  0.31886027163E+02  0.00000000000E+00 0. -1.
         11    1    3    3    0    0  0.18931475022E+01  0.53757581773E+00  0.11100208012E+02  0.11273314215E+02  0.51100000000E-03 0. -1.
        -11    1    3    3    0    0 -0.25706497965E+02  0.40459841611E+01  0.12265432984E+02  0.28768643903E+02  0.51100000000E-03 0.  1.
         12    1    3    3    0    0 -0.49929876035E+01 -0.13392208544E+02 -0.12909957091E+02  0.19260014719E+02  0.00000000000E+00 0. -1.
</event>
<event>
 7    1  0.3223600E-013  0.5930182E+02  0.7816164E-02  0.1266605E+00
        -11   -1    0    0    0    0  0.00000000000E+00  0.00000000000E+00  0.45593999997E+02  0.45594000000E+02  0.51100000000E-03 0. -1.
         11   -1    0    0    0    0 -0.00000000000E+00 -0.00000000000E+00 -0.45593999997E+02  0.45594000000E+02  0.51100000000E-03 0.  1.
    9900012    2    1    2    0    0  0.12858470405E+02  0.28647107388E+02  0.55435827887E+01  0.59301822227E+02  0.49999777863E+02 0.  0.
         12    1    1    2    0    0 -0.12858470405E+02 -0.28647107388E+02 -0.55435827887E+01  0.31886177773E+02  0.00000000000E+00 0. -1.
         11    1    3    3    0    0 -0.30299317713E+00 -0.10647564164E+01  0.16821193603E+02  0.16857581843E+02  0.51100000000E-03 0. -1.
        -11    1    3    3    0    0  0.13983800599E+02  0.21706343872E+02  0.30610302430E+01  0.26001575912E+02  0.51100000000E-03 0.  1.
        -12    1    3    3    0    0 -0.82233701670E+00  0.80055199322E+01 -0.14338641058E+02  0.16442664472E+02  0.00000000000E+00 0.  1.
</event>
<event>
 7    1  0.3223600E-013  0.5930193E+02  0.7816164E-02  0.1266605E+00
        -11   -1    0    0    0    0  0.00000000000E+00  0.00000000000E+00  0.45593999997E+02  0.45594000000E+02  0.51100000000E-03 0. -1.
         11   -1    0    0    0    0 -0.00000000000E+00 -0.00000000000E+00 -0.45593999997E+02  0.45594000000E+02  0.51100000000E-03 0.  1.
    9900012    2    1    2    0    0 -0.13215376645E+02  0.66611066211E+01 -0.28243675714E+02  0.59301925624E+02  0.49999966436E+02 0.  0.
         12    1    1    2    0    0  0.13215376645E+02 -0.66611066211E+01  0.28243675714E+02  0.31886074376E+02  0.00000000000E+00 0. -1.
         11    1    3    3    0    0  0.17942659174E+01  0.16904469170E+02 -0.14920999439E+02  0.22618945435E+02  0.51100000000E-03 0. -1.
        -11    1    3    3    0    0  0.47058269333E+01  0.48241559925E+01  0.25736718807E+01  0.72139500537E+01  0.51100000000E-03 0.  1.
        -12    1    3    3    0    0 -0.19715469495E+02 -0.15067518541E+02 -0.15896348156E+02  0.29469030135E+02  0.00000000000E+00 0.  1.
</event>
<event>
 7    1  0.3223600E-013  0.5930194E+02  0.7816164E-02  0.1266605E+00
        -11   -1    0    0    0    0  0.00000000000E+00  0.00000000000E+00  0.45593999997E+02  0.45594000000E+02  0.51100000000E-03 0.  1.
         11   -1    0    0    0    0 -0.00000000000E+00 -0.00000000000E+00 -0.45593999997E+02  0.45594000000E+02  0.51100000000E-03 0. -1.
    9900012    2    1    2    0    0 -0.31785169957E+02 -0.18892864468E+01  0.16894275373E+01  0.59301943519E+02  0.49999999073E+02 0.  0.
         12    1    1    2    0    0  0.31785169957E+02  0.18892864468E+01 -0.16894275373E+01  0.31886056481E+02  0.00000000000E+00 0. -1.
         11    1    3    3    0    0 -0.14713671190E+02 -0.75928009116E+01 -0.15433017346E+02  0.22634503976E+02  0.51100000000E-03 0. -1.
        -11    1    3    3    0    0 -0.13026363562E+02 -0.93878757091E+01  0.12575499069E+02  0.20395135083E+02  0.51100000000E-03 0.  1.
        -12    1    3    3    0    0 -0.40451352057E+01  0.15091390174E+02  0.45469458143E+01  0.16272304460E+02  0.00000000000E+00 0.  1.
</event>
<event>
 7    1  0.3223600E-013  0.5930194E+02  0.7816164E-02  0.1266605E+00
        -11   -1    0    0    0    0  0.00000000000E+00  0.00000000000E+00  0.45593999997E+02  0.45594000000E+02  0.51100000000E-03 0.  1.
         11   -1    0    0    0    0 -0.00000000000E+00 -0.00000000000E+00 -0.45593999997E+02  0.45594000000E+02  0.51100000000E-03 0. -1.
    9900012    2    1    2    0    0 -0.24648000921E+02 -0.16056644618E+02  0.12303691807E+02  0.59301943205E+02  0.49999998500E+02 0.  0.
         12    1    1    2    0    0  0.24648000921E+02  0.16056644618E+02 -0.12303691807E+02  0.31886056795E+02  0.00000000000E+00 0. -1.
         11    1    3    3    0    0 -0.22813089766E+02 -0.19169661444E+02 -0.65056563365E+00  0.29804969728E+02  0.51100000000E-03 0. -1.
        -11    1    3    3    0    0  0.12663322094E+01  0.13896782240E+01 -0.80135356700E+01  0.82311333986E+01  0.51100000000E-03 0.  1.
        -12    1    3    3    0    0 -0.31012433646E+01  0.17233386016E+01  0.20967793111E+02  0.21265840079E+02  0.00000000000E+00 0.  1.
</event>
<event>
 7    1  0.3223600E-013  0.5930194E+02  0.7816164E-02  0.1266605E+00
        -11   -1    0    0    0    0  0.00000000000E+00  0.00000000000E+00  0.45593999997E+02  0.45594000000E+02  0.51100000000E-03 0. -1.
         11   -1    0    0    0    0 -0.00000000000E+00 -0.00000000000E+00 -0.45593999997E+02  0.45594000000E+02  0.51100000000E-03 0.  1.
    9900012    2    1    2    0    0 -0.29489955608E+02  0.10331919542E+02 -0.63493729523E+01  0.59301943799E+02  0.49999999583E+02 0.  0.
         12    1    1    2    0    0  0.29489955608E+02 -0.10331919542E+02  0.63493729523E+01  0.31886056201E+02  0.00000000000E+00 0. -1.
         11    1    3    3    0    0  0.43336999434E+01 -0.57818370815E+01  0.10415844300E+02  0.12676766464E+02  0.51100000000E-03 0. -1.
        -11    1    3    3    0    0 -0.24071509370E+01 -0.42690148012E+01 -0.58210313549E+01  0.76094197743E+01  0.51100000000E-03 0.  1.
        -12    1    3    3    0    0 -0.31416504614E+02  0.20382771424E+02 -0.10944185897E+02  0.39015757561E+02  0.00000000000E+00 0.  1.
</event>
<event>
 7    1  0.3223600E-013  0.5930192E+02  0.7816164E-02  0.1266605E+00
        -11   -1    0    0    0    0  0.00000000000E+00  0.00000000000E+00  0.45593999997E+02  0.45594000000E+02  0.51100000000E-03 0.  1.
         11   -1    0    0    0    0 -0.00000000000E+00 -0.00000000000E+00 -0.45593999997E+02  0.45594000000E+02  0.51100000000E-03 0. -1.
    9900012    2    1    2    0    0 -0.11369416721E+01  0.79085417748E+01  0.30868827788E+02  0.59301918423E+02  0.49999953303E+02 0.  0.
         12    1    1    2    0    0  0.11369416721E+01 -0.79085417748E+01 -0.30868827788E+02  0.31886081577E+02  0.00000000000E+00 0. -1.
         11    1    3    3    0    0 -0.16095793352E+02  0.41479770592E+01 -0.46714614881E+01  0.17265654636E+02  0.51100000000E-03 0. -1.
        -11    1    3    3    0    0 -0.27829864500E+01  0.16704594586E+01  0.12312591240E+02  0.12733238068E+02  0.51100000000E-03 0.  1.
         12    1    3    3    0    0  0.17741838130E+02  0.20901052570E+01  0.23227698036E+02  0.29303025718E+02  0.00000000000E+00 0. -1.
</event>
<event>
 7    1  0.3223600E-013  0.5930195E+02  0.7816164E-02  0.1266605E+00
        -11   -1    0    0    0    0  0.00000000000E+00  0.00000000000E+00  0.45593999997E+02  0.45594000000E+02  0.51100000000E-03 0. -1.
         11   -1    0    0    0    0 -0.00000000000E+00 -0.00000000000E+00 -0.45593999997E+02  0.45594000000E+02  0.51100000000E-03 0.  1.
    9900012    2    1    2    0    0 -0.12884758979E+01  0.23479883645E+02 -0.21534979559E+02  0.59301945827E+02  0.50000003282E+02 0.  0.
         12    1    1    2    0    0  0.12884758979E+01 -0.23479883645E+02  0.21534979559E+02  0.31886054173E+02  0.00000000000E+00 0. -1.
         11    1    3    3    0    0  0.52001459838E+01  0.10646616314E+02  0.65201932708E+01  0.13524232981E+02  0.51100000000E-03 0. -1.
        -11    1    3    3    0    0 -0.80737082400E+00 -0.11252269259E+02 -0.69229249442E+01  0.13236022860E+02  0.51100000000E-03 0.  1.
        -12    1    3    3    0    0 -0.56812510578E+01  0.24085536590E+02 -0.21132247886E+02  0.32541689985E+02  0.00000000000E+00 0.  1.
</event>
<event>
 7    1  0.3223600E-013  0.5930195E+02  0.7816164E-02  0.1266605E+00
        -11   -1    0    0    0    0  0.00000000000E+00  0.00000000000E+00  0.45593999997E+02  0.45594000000E+02  0.51100000000E-03 0. -1.
         11   -1    0    0    0    0 -0.00000000000E+00 -0.00000000000E+00 -0.45593999997E+02  0.45594000000E+02  0.51100000000E-03 0.  1.
    9900012    2    1    2    0    0  0.28940234596E+02 -0.12453038029E+02 -0.49096600875E+01  0.59301951377E+02  0.50000013403E+02 0.  0.
         12    1    1    2    0    0 -0.28940234596E+02  0.12453038029E+02  0.49096600875E+01  0.31886048623E+02  0.00000000000E+00 0. -1.
         11    1    3    3    0    0  0.53715548520E+01  0.17767479428E+01  0.10641050651E+02  0.12051655239E+02  0.51100000000E-03 0. -1.
        -11    1    3    3    0    0  0.10671960793E+02 -0.18827519354E+02  0.53230154174E+01  0.22286783653E+02  0.51100000000E-03 0.  1.
         12    1    3    3    0    0  0.12896718951E+02  0.45977333821E+01 -0.20873726156E+02  0.24963512485E+02  0.00000000000E+00 0. -1.
</event>
<event>
 7    1  0.3223600E-013  0.5930192E+02  0.7816164E-02  0.1266605E+00
        -11   -1    0    0    0    0  0.00000000000E+00  0.00000000000E+00  0.45593999997E+02  0.45594000000E+02  0.51100000000E-03 0.  1.
         11   -1    0    0    0    0 -0.00000000000E+00 -0.00000000000E+00 -0.45593999997E+02  0.45594000000E+02  0.51100000000E-03 0. -1.
    9900012    2    1    2    0    0  0.23746102453E+02 -0.21055078377E+02  0.30867752269E+01  0.59301923282E+02  0.49999962164E+02 0.  0.
         12    1    1    2    0    0 -0.23746102453E+02  0.21055078377E+02 -0.30867752269E+01  0.31886076718E+02  0.00000000000E+00 0. -1.
         11    1    3    3    0    0 -0.28684295013E+01 -0.11540186807E+02 -0.13842139332E+02  0.18248523801E+02  0.51100000000E-03 0. -1.
        -11    1    3    3    0    0  0.88348126916E+01  0.74123931623E+00 -0.56704276720E+01  0.10524119976E+02  0.51100000000E-03 0.  1.
        -12    1    3    3    0    0  0.17779719263E+02 -0.10256130886E+02  0.22599342231E+02  0.30529279505E+02  0.00000000000E+00 0.  1.
</event>
<event>
 7    1  0.3223600E-013  0.5930192E+02  0.7816164E-02  0.1266605E+00
        -11   -1    0    0    0    0  0.00000000000E+00  0.00000000000E+00  0.45593999997E+02  0.45594000000E+02  0.51100000000E-03 0.  1.
         11   -1    0    0    0    0 -0.00000000000E+00 -0.00000000000E+00 -0.45593999997E+02  0.45594000000E+02  0.51100000000E-03 0. -1.
    9900012    2    1    2    0    0 -0.23929275387E+02  0.10820548727E+02  0.18083909179E+02  0.59301917354E+02  0.49999951354E+02 0.  0.
         12    1    1    2    0    0  0.23929275387E+02 -0.10820548727E+02 -0.18083909179E+02  0.31886082646E+02  0.00000000000E+00 0. -1.
         11    1    3    3    0    0 -0.91306955363E+00 -0.22086123341E+01  0.10330611794E+02  0.10603452492E+02  0.51100000000E-03 0. -1.
        -11    1    3    3    0    0 -0.77579055617E+01  0.20634315938E+02  0.18300740627E+02  0.28650954621E+02  0.51100000000E-03 0.  1.
         12    1    3    3    0    0 -0.15258300272E+02 -0.76051548776E+01 -0.10547443242E+02  0.20047510241E+02  0.00000000000E+00 0. -1.
</event>
<event>
 7    1  0.3223600E-013  0.5930197E+02  0.7816164E-02  0.1266605E+00
        -11   -1    0    0    0    0  0.00000000000E+00  0.00000000000E+00  0.45593999997E+02  0.45594000000E+02  0.51100000000E-03 0.  1.
         11   -1    0    0    0    0 -0.00000000000E+00 -0.00000000000E+00 -0.45593999997E+02  0.45594000000E+02  0.51100000000E-03 0. -1.
    9900012    2    1    2    0    0 -0.23697912279E+02 -0.16681446589E+02 -0.13298761065E+02  0.59301972456E+02  0.50000051846E+02 0.  0.
         12    1    1    2    0    0  0.23697912279E+02  0.16681446589E+02  0.13298761065E+02  0.31886027544E+02  0.00000000000E+00 0. -1.
         11    1    3    3    0    0  0.52272297605E+01 -0.24906419562E+01  0.10133990502E+02  0.11671546259E+02  0.51100000000E-03 0. -1.
        -11    1    3    3    0    0 -0.10607420661E+02 -0.50958133943E+01  0.48499190429E+01  0.12728173562E+02  0.51100000000E-03 0.  1.
        -12    1    3    3    0    0 -0.18317721378E+02 -0.90949912387E+01 -0.28282670610E+02  0.34902252635E+02  0.00000000000E+00 0.  1.
</event>
<event>
 7    1  0.3223600E-013  0.5930192E+02  0.7816164E-02  0.1266605E+00
        -11   -1    0    0    0    0  0.00000000000E+00  0.00000000000E+00  0.45593999997E+02  0.45594000000E+02  0.51100000000E-03 0. -1.
         11   -1    0    0    0    0 -0.00000000000E+00 -0.00000000000E+00 -0.45593999997E+02  0.45594000000E+02  0.51100000000E-03 0.  1.
    9900012    2    1    2    0    0  0.54926907200E+01  0.20394294416E+02 -0.23887759084E+02  0.59301922628E+02  0.49999960973E+02 0.  0.
         12    1    1    2    0    0 -0.54926907200E+01 -0.20394294416E+02  0.23887759084E+02  0.31886077372E+02  0.00000000000E+00 0. -1.
         11    1    3    3    0    0 -0.84339191371E+01  0.57800826049E+01  0.90571037407E+01  0.13659116932E+02  0.51100000000E-03 0. -1.
        -11    1    3    3    0    0 -0.33321846093E+01 -0.45598018421E+01 -0.43339326739E+01  0.71188636588E+01  0.51100000000E-03 0.  1.
        -12    1    3    3    0    0  0.17258794466E+02  0.19174013653E+02 -0.28610930151E+02  0.38523942038E+02  0.00000000000E+00 0.  1.
</event>
<event>
 7    1  0.3223600E-013  0.5930194E+02  0.7816164E-02  0.1266605E+00
        -11   -1    0    0    0    0  0.00000000000E+00  0.00000000000E+00  0.45593999997E+02  0.45594000000E+02  0.51100000000E-03 0. -1.
         11   -1    0    0    0    0 -0.00000000000E+00 -0.00000000000E+00 -0.45593999997E+02  0.45594000000E+02  0.51100000000E-03 0.  1.
    9900012    2    1    2    0    0  0.10277152739E+01 -0.24528458640E+02 -0.20347460564E+02  0.59301942963E+02  0.49999998059E+02 0.  0.
         12    1    1    2    0    0 -0.10277152739E+01  0.24528458640E+02  0.20347460564E+02  0.31886057037E+02  0.00000000000E+00 0. -1.
         11    1    3    3    0    0 -0.13365617473E+02 -0.13190071932E+02 -0.25712595229E+01  0.18953340175E+02  0.51100000000E-03 0. -1.
        -11    1    3    3    0    0 -0.48347476729E+01 -0.46646117428E+01 -0.18805271315E+02  0.19969266819E+02  0.51100000000E-03 0.  1.
         12    1    3    3    0    0  0.19228080420E+02 -0.66737749652E+01  0.10290702747E+01  0.20379335969E+02  0.00000000000E+00 0. -1.
</event>
<event>
 7    1  0.3223600E-013  0.5930206E+02  0.7816164E-02  0.1266604E+00
        -11   -1    0    0    0    0  0.00000000000E+00  0.00000000000E+00  0.45593999997E+02  0.45594000000E+02  0.51100000000E-03 0.  1.
         11   -1    0    0    0    0 -0.00000000000E+00 -0.00000000000E+00 -0.45593999997E+02  0.45594000000E+02  0.51100000000E-03 0. -1.
    9900012    2    1    2    0    0  0.26157364845E+02 -0.18025662729E+02  0.27533121119E+01  0.59302062974E+02  0.50000216929E+02 0.  0.
         12    1    1    2    0    0 -0.26157364845E+02  0.18025662729E+02 -0.27533121119E+01  0.31885937026E+02  0.00000000000E+00 0. -1.
         11    1    3    3    0    0  0.22912162280E+01 -0.12326363385E+02  0.41754829173E+01  0.13214520951E+02  0.51100000000E-03 0. -1.
        -11    1    3    3    0    0  0.23945234827E+02 -0.19651478920E+02 -0.56943587670E+01  0.31495723784E+02  0.51100000000E-03 0.  1.
        -12    1    3    3    0    0 -0.79086210278E-01  0.13952179576E+02  0.42721879615E+01  0.14591818239E+02  0.00000000000E+00 0.  1.
</event>
<event>
 7    1  0.3223600E-013  0.5930197E+02  0.7816164E-02  0.1266605E+00
        -11   -1    0    0    0    0  0.00000000000E+00  0.00000000000E+00  0.45593999997E+02  0.45594000000E+02  0.51100000000E-03 0. -1.
         11   -1    0    0    0    0 -0.00000000000E+00 -0.00000000000E+00 -0.45593999997E+02  0.45594000000E+02  0.51100000000E-03 0.  1.
    9900012    2    1    2    0    0  0.44600230516E+01 -0.26483031313E+02 -0.17189423451E+02  0.59301968079E+02  0.50000043863E+02 0.  0.
         12    1    1    2    0    0 -0.44600230516E+01  0.26483031313E+02  0.17189423451E+02  0.31886031921E+02  0.00000000000E+00 0. -1.
         11    1    3    3    0    0  0.19027302181E+02  0.17645589816E+01 -0.12094587029E+02  0.22614838765E+02  0.51100000000E-03 0. -1.
        -11    1    3    3    0    0 -0.44028577409E+01 -0.95890684552E+01 -0.10370273461E+02  0.14794524732E+02  0.51100000000E-03 0.  1.
         12    1    3    3    0    0 -0.10164421389E+02 -0.18658521839E+02  0.52754370399E+01  0.21892604581E+02  0.00000000000E+00 0. -1.
</event>
<event>
 7    1  0.3223600E-013  0.5930194E+02  0.7816164E-02  0.1266605E+00
        -11   -1    0    0    0    0  0.00000000000E+00  0.00000000000E+00  0.45593999997E+02  0.45594000000E+02  0.51100000000E-03 0.  1.
         11   -1    0    0    0    0 -0.00000000000E+00 -0.00000000000E+00 -0.45593999997E+02  0.45594000000E+02  0.51100000000E-03 0. -1.
    9900012    2    1    2    0    0  0.12902939892E+02  0.24108007926E+02  0.16402411097E+02  0.59301937311E+02  0.49999987750E+02 0.  0.
         12    1    1    2    0    0 -0.12902939892E+02 -0.24108007926E+02 -0.16402411097E+02  0.31886062689E+02  0.00000000000E+00 0. -1.
         11    1    3    3    0    0  0.57262651462E+01 -0.62177838857E+01 -0.79127779077E+00  0.84898215398E+01  0.51100000000E-03 0. -1.
        -11    1    3    3    0    0  0.15477694192E+02  0.32116244493E+01 -0.28827181845E+01  0.16068093026E+02  0.51100000000E-03 0.  1.
        -12    1    3    3    0    0 -0.83010194460E+01  0.27114167362E+02  0.20076407072E+02  0.34744022745E+02  0.00000000000E+00 0.  1.
</event>
<event>
 7    1  0.3223600E-013  0.5930194E+02  0.7816164E-02  0.1266605E+00
        -11   -1    0    0    0    0  0.00000000000E+00  0.00000000000E+00  0.45593999997E+02  0.45594000000E+02  0.51100000000E-03 0.  1.
         11   -1    0    0    0    0 -0.00000000000E+00 -0.00000000000E+00 -0.45593999997E+02  0.45594000000E+02  0.51100000000E-03 0. -1.
    9900012    2    1    2    0    0  0.20074348976E+02  0.16342072108E+02  0.18619287559E+02  0.59301942282E+02  0.49999996816E+02 0.  0.
         12    1    1    2    0    0 -0.20074348976E+02 -0.16342072108E+02 -0.18619287559E+02  0.31886057718E+02  0.00000000000E+00 0. -1.
         11    1    3    3    0    0  0.80321402495E+01  0.11187965989E+02  0.40624971176E+01  0.14359308585E+02  0.51100000000E-03 0. -1.
        -11    1    3    3    0    0 -0.19981269059E+01  0.20800977128E+02  0.34941457371E+01  0.21186840616E+02  0.51100000000E-03 0.  1.
         12    1    3    3    0    0  0.14040335632E+02 -0.15646871009E+02  0.11062644704E+02  0.23755793081E+02  0.00000000000E+00 0. -1.
</event>
<event>
 7    1  0.3223600E-013  0.5930195E+02  0.7816164E-02  0.1266605E+00
        -11   -1    0    0    0    0  0.00000000000E+00  0.00000000000E+00  0.45593999997E+02  0.45594000000E+02  0.51100000000E-03 0.  1.
         11   -1    0    0    0    0 -0.00000000000E+00 -0.00000000000E+00 -0.45593999997E+02  0.45594000000E+02  0.51100000000E-03 0. -1.
    9900012    2    1    2    0    0 -0.22617537539E+02  0.20218640464E+02  0.98170153304E+01  0.59301949499E+02  0.50000009978E+02 0.  0.
         12    1    1    2    0    0  0.22617537539E+02 -0.20218640464E+02 -0.98170153304E+01  0.31886050501E+02  0.00000000000E+00 0. -1.
         11    1    3    3    0    0 -0.41071070814E+01 -0.73652811948E+01 -0.69296901617E+01  0.10914957703E+02  0.51100000000E-03 0. -1.
        -11    1    3    3    0    0 -0.25880693352E+02  0.24817420388E+02  0.18460921985E+02  0.40330141134E+02  0.51100000000E-03 0.  1.
         12    1    3    3    0    0  0.73702628940E+01  0.27665012708E+01 -0.17142164932E+01  0.80568506623E+01  0.00000000000E+00 0. -1.
</event>
<event>
 7    1  0.3223600E-013  0.5930194E+02  0.7816164E-02  0.1266605E+00
        -11   -1    0    0    0    0  0.00000000000E+00  0.00000000000E+00  0.45593999997E+02  0.45594000000E+02  0.51100000000E-03 0. -1.
         11   -1    0    0    0    0 -0.00000000000E+00 -0.00000000000E+00 -0.45593999997E+02  0.45594000000E+02  0.51100000000E-03 0.  1.
    9900012    2    1    2    0    0 -0.10359322389E+02  0.15788120937E+02  0.25693196020E+02  0.59301942784E+02  0.49999997732E+02 0.  0.
         12    1    1    2    0    0  0.10359322389E+02 -0.15788120937E+02 -0.25693196020E+02  0.31886057216E+02  0.00000000000E+00 0. -1.
         11    1    3    3    0    0 -0.13489806640E+02  0.13290839506E+02  0.28438581512E+02  0.34166858454E+02  0.51100000000E-03 0. -1.
        -11    1    3    3    0    0 -0.78751462695E+01  0.60032217308E+01  0.51328445427E+01  0.11153595531E+02  0.51100000000E-03 0.  1.
         12    1    3    3    0    0  0.11005630520E+02 -0.35059402997E+01 -0.78782300350E+01  0.13981488798E+02  0.00000000000E+00 0. -1.
</event>
<event>
 7    1  0.3223600E-013  0.5930200E+02  0.7816164E-02  0.1266605E+00
        -11   -1    0    0    0    0  0.00000000000E+00  0.00000000000E+00  0.45593999997E+02  0.45594000000E+02  0.51100000000E-03 0. -1.
         11   -1    0    0    0    0 -0.00000000000E+00 -0.00000000000E+00 -0.45593999997E+02  0.45594000000E+02  0.51100000000E-03 0.  1.
    9900012    2    1    2    0    0  0.19410169096E+02 -0.22658019044E+02  0.11250627353E+02  0.59301998257E+02  0.50000098901E+02 0.  0.
         12    1    1    2    0    0 -0.19410169096E+02  0.22658019044E+02 -0.11250627353E+02  0.31886001743E+02  0.00000000000E+00 0. -1.
         11    1    3    3    0    0  0.62692570282E+01  0.56273238804E+01 -0.11979195827E+02  0.14644845191E+02  0.51100000000E-03 0. -1.
        -11    1    3    3    0    0  0.13389443355E+02 -0.18211283452E+02  0.40112493946E+01  0.22956876100E+02  0.51100000000E-03 0.  1.
         12    1    3    3    0    0 -0.24853128726E+00 -0.10074059472E+02  0.19218573785E+02  0.21700276966E+02  0.00000000000E+00 0. -1.
</event>
<event>
 7    1  0.3223600E-013  0.5930198E+02  0.7816164E-02  0.1266605E+00
        -11   -1    0    0    0    0  0.00000000000E+00  0.00000000000E+00  0.45593999997E+02  0.45594000000E+02  0.51100000000E-03 0. -1.
         11   -1    0    0    0    0 -0.00000000000E+00 -0.00000000000E+00 -0.45593999997E+02  0.45594000000E+02  0.51100000000E-03 0.  1.
    9900012    2    1    2    0    0  0.30526826093E+02  0.77753197531E+01 -0.49371779877E+01  0.59301977435E+02  0.50000060926E+02 0.  0.
         12    1    1    2    0    0 -0.30526826093E+02 -0.77753197531E+01  0.49371779877E+01  0.31886022565E+02  0.00000000000E+00 0. -1.
         11    1    3    3    0    0 -0.40458879103E+01  0.10213838060E+02 -0.98050621073E+00  0.11029645941E+02  0.51100000000E-03 0. -1.
        -11    1    3    3    0    0  0.36305344600E+02  0.70401037392E+01 -0.79759950774E+01  0.37831965385E+02  0.51100000000E-03 0.  1.
         12    1    3    3    0    0 -0.17326305969E+01 -0.94786220461E+01  0.40193233004E+01  0.10440366108E+02  0.00000000000E+00 0. -1.
</event>
<event>
 7    1  0.3223600E-013  0.5930191E+02  0.7816164E-02  0.1266605E+00
        -11   -1    0    0    0    0  0.00000000000E+00  0.00000000000E+00  0.45593999997E+02  0.45594000000E+02  0.51100000000E-03 0.  1.
         11   -1    0    0    0    0 -0.00000000000E+00 -0.00000000000E+00 -0.45593999997E+02  0.45594000000E+02  0.51100000000E-03 0. -1.
    9900012    2    1    2    0    0  0.22780751542E+02  0.22036842685E+02 -0.34839560405E+01  0.59301905444E+02  0.49999929632E+02 0.  0.
         12    1    1    2    0    0 -0.22780751542E+02 -0.22036842685E+02  0.34839560405E+01  0.31886094556E+02  0.00000000000E+00 0. -1.
         11    1    3    3    0    0  0.10085527403E+02 -0.25382396966E+01 -0.89367423311E+01  0.13712253189E+02  0.51100000000E-03 0. -1.
        -11    1    3    3    0    0  0.21278235029E+02  0.25297419345E+01  0.46044512984E+01  0.21917204480E+02  0.51100000000E-03 0.  1.
        -12    1    3    3    0    0 -0.85830108904E+01  0.22045340447E+02  0.84833499221E+00  0.23672447775E+02  0.00000000000E+00 0.  1.
</event>
<event>
 7    1  0.3223600E-013  0.5930194E+02  0.7816164E-02  0.1266605E+00
        -11   -1    0    0    0    0  0.00000000000E+00  0.00000000000E+00  0.45593999997E+02  0.45594000000E+02  0.51100000000E-03 0.  1.
         11   -1    0    0    0    0 -0.00000000000E+00 -0.00000000000E+00 -0.45593999997E+02  0.45594000000E+02  0.51100000000E-03 0. -1.
    9900012    2    1    2    0    0 -0.20456692640E+02  0.23882543200E+02  0.52790768264E+01  0.59301940419E+02  0.49999993418E+02 0.  0.
         12    1    1    2    0    0  0.20456692640E+02 -0.23882543200E+02 -0.52790768264E+01  0.31886059581E+02  0.00000000000E+00 0. -1.
         11    1    3    3    0    0 -0.18352910702E+02  0.45714990063E+01  0.73406470779E+01  0.20288248672E+02  0.51100000000E-03 0.  1.
        -11    1    3    3    0    0 -0.15830329120E+02  0.10924784833E+01 -0.31470481011E+01  0.16177043651E+02  0.51100000000E-03 0. -1.
        -12    1    3    3    0    0  0.13726547182E+02  0.18218565711E+02  0.10854778497E+01  0.22836648096E+02  0.00000000000E+00 0.  1.
</event>
<event>
 7    1  0.3223600E-013  0.5930193E+02  0.7816164E-02  0.1266605E+00
        -11   -1    0    0    0    0  0.00000000000E+00  0.00000000000E+00  0.45593999997E+02  0.45594000000E+02  0.51100000000E-03 0. -1.
         11   -1    0    0    0    0 -0.00000000000E+00 -0.00000000000E+00 -0.45593999997E+02  0.45594000000E+02  0.51100000000E-03 0.  1.
    9900012    2    1    2    0    0  0.20881388727E+02  0.17042053686E+02 -0.17036946017E+02  0.59301929082E+02  0.49999972743E+02 0.  0.
         12    1    1    2    0    0 -0.20881388727E+02 -0.17042053686E+02  0.17036946017E+02  0.31886070918E+02  0.00000000000E+00 0. -1.
         11    1    3    3    0    0  0.16840811909E+01  0.14176638444E+02  0.20429883022E+01  0.14421754695E+02  0.51100000000E-03 0. -1.
        -11    1    3    3    0    0 -0.69646331484E+01 -0.11680918252E+01  0.53493673412E+01  0.88592485356E+01  0.51100000000E-03 0.  1.
        -12    1    3    3    0    0  0.26161940684E+02  0.40335070675E+01 -0.24429301660E+02  0.36020925852E+02  0.00000000000E+00 0.  1.
</event>
<event>
 7    1  0.3223600E-013  0.5930198E+02  0.7816164E-02  0.1266605E+00
        -11   -1    0    0    0    0  0.00000000000E+00  0.00000000000E+00  0.45593999997E+02  0.45594000000E+02  0.51100000000E-03 0. -1.
         11   -1    0    0    0    0 -0.00000000000E+00 -0.00000000000E+00 -0.45593999997E+02  0.45594000000E+02  0.51100000000E-03 0.  1.
    9900012    2    1    2    0    0  0.95314444892E+01  0.27620189282E+02 -0.12766942381E+02  0.59301982567E+02  0.50000070286E+02 0.  0.
         12    1    1    2    0    0 -0.95314444892E+01 -0.27620189282E+02  0.12766942381E+02  0.31886017433E+02  0.00000000000E+00 0. -1.
         11    1    3    3    0    0  0.73050103255E+01  0.19962999152E+02 -0.20598777501E+02  0.29600576781E+02  0.51100000000E-03 0.  1.
        -11    1    3    3    0    0  0.83333097849E+01 -0.35942271939E+00 -0.75908695924E+01  0.11278055599E+02  0.51100000000E-03 0. -1.
         12    1    3    3    0    0 -0.61068756212E+01  0.80166128493E+01  0.15422704713E+02  0.18423350186E+02  0.00000000000E+00 0. -1.
</event>
<event>
 7    1  0.3223600E-013  0.5930193E+02  0.7816164E-02  0.1266605E+00
        -11   -1    0    0    0    0  0.00000000000E+00  0.00000000000E+00  0.45593999997E+02  0.45594000000E+02  0.51100000000E-03 0.  1.
         11   -1    0    0    0    0 -0.00000000000E+00 -0.00000000000E+00 -0.45593999997E+02  0.45594000000E+02  0.51100000000E-03 0. -1.
    9900012    2    1    2    0    0 -0.88048675252E+01 -0.16864673042E+02  0.25588647508E+02  0.59301925136E+02  0.49999965546E+02 0.  0.
         12    1    1    2    0    0  0.88048675252E+01  0.16864673042E+02 -0.25588647508E+02  0.31886074864E+02  0.00000000000E+00 0. -1.
         11    1    3    3    0    0 -0.37275624150E+01  0.46613576083E+01 -0.13271399730E+01  0.61142683192E+01  0.51100000000E-03 0. -1.
        -11    1    3    3    0    0 -0.86012273853E+01 -0.15405469460E+02 -0.66735384275E+01  0.18863873335E+02  0.51100000000E-03 0.  1.
        -12    1    3    3    0    0  0.35239222751E+01 -0.61205611904E+01  0.33589325909E+02  0.34323783481E+02  0.00000000000E+00 0.  1.
</event>
<event>
 7    1  0.3223600E-013  0.5930194E+02  0.7816164E-02  0.1266605E+00
        -11   -1    0    0    0    0  0.00000000000E+00  0.00000000000E+00  0.45593999997E+02  0.45594000000E+02  0.51100000000E-03 0.  1.
         11   -1    0    0    0    0 -0.00000000000E+00 -0.00000000000E+00 -0.45593999997E+02  0.45594000000E+02  0.51100000000E-03 0. -1.
    9900012    2    1    2    0    0 -0.74674090024E+01 -0.27823057904E+02 -0.13668798178E+02  0.59301940476E+02  0.49999993523E+02 0.  0.
         12    1    1    2    0    0  0.74674090024E+01  0.27823057904E+02  0.13668798178E+02  0.31886059524E+02  0.00000000000E+00 0. -1.
         11    1    3    3    0    0 -0.17869539496E+02 -0.22409378281E+02 -0.55390681249E+01  0.29192155671E+02  0.51100000000E-03 0. -1.
        -11    1    3    3    0    0  0.53637698190E+01 -0.39497059358E+01  0.95637058695E+01  0.11654813335E+02  0.51100000000E-03 0.  1.
         12    1    3    3    0    0  0.50383606751E+01 -0.14639736871E+01 -0.17693435922E+02  0.18454971471E+02  0.00000000000E+00 0. -1.
</event>
<event>
 7    1  0.3223600E-013  0.5930193E+02  0.7816164E-02  0.1266605E+00
        -11   -1    0    0    0    0  0.00000000000E+00  0.00000000000E+00  0.45593999997E+02  0.45594000000E+02  0.51100000000E-03 0.  1.
         11   -1    0    0    0    0 -0.00000000000E+00 -0.00000000000E+00 -0.45593999997E+02  0.45594000000E+02  0.51100000000E-03 0. -1.
    9900012    2    1    2    0    0 -0.17742671014E+02  0.22392704299E+02  0.14159313145E+02  0.59301925779E+02  0.49999966718E+02 0.  0.
         12    1    1    2    0    0  0.17742671014E+02 -0.22392704299E+02 -0.14159313145E+02  0.31886074221E+02  0.00000000000E+00 0. -1.
         11    1    3    3    0    0  0.51832483266E+01  0.14246793873E+02  0.81201765748E+01  0.17198094858E+02  0.51100000000E-03 0. -1.
        -11    1    3    3    0    0 -0.19919519585E+02  0.79483839401E+00  0.18585438737E+02  0.27255046540E+02  0.51100000000E-03 0.  1.
        -12    1    3    3    0    0 -0.30063997555E+01  0.73510720312E+01 -0.12546302167E+02  0.14848784380E+02  0.00000000000E+00 0.  1.
</event>
<event>
 7    1  0.3223600E-013  0.5930197E+02  0.7816164E-02  0.1266605E+00
        -11   -1    0    0    0    0  0.00000000000E+00  0.00000000000E+00  0.45593999997E+02  0.45594000000E+02  0.51100000000E-03 0.  1.
         11   -1    0    0    0    0 -0.00000000000E+00 -0.00000000000E+00 -0.45593999997E+02  0.45594000000E+02  0.51100000000E-03 0. -1.
    9900012    2    1    2    0    0 -0.69424374906E+01  0.31114047417E+02 -0.66158511323E+00  0.59301967323E+02  0.50000042485E+02 0.  0.
         12    1    1    2    0    0  0.69424374906E+01 -0.31114047417E+02  0.66158511323E+00  0.31886032677E+02  0.00000000000E+00 0. -1.
         11    1    3    3    0    0  0.22930164283E+01  0.10494788486E+02 -0.12688053376E+02  0.16624837096E+02  0.51100000000E-03 0. -1.
        -11    1    3    3    0    0  0.12452251917E+02  0.70256857227E+01 -0.22743999671E+00  0.14299320505E+02  0.51100000000E-03 0.  1.
         12    1    3    3    0    0 -0.21687705836E+02  0.13593573208E+02  0.12253908260E+02  0.28377809723E+02  0.00000000000E+00 0. -1.
</event>
<event>
 7    1  0.3223600E-013  0.5930193E+02  0.7816164E-02  0.1266605E+00
        -11   -1    0    0    0    0  0.00000000000E+00  0.00000000000E+00  0.45593999997E+02  0.45594000000E+02  0.51100000000E-03 0.  1.
         11   -1    0    0    0    0 -0.00000000000E+00 -0.00000000000E+00 -0.45593999997E+02  0.45594000000E+02  0.51100000000E-03 0. -1.
    9900012    2    1    2    0    0  0.99114371739E+01 -0.27024685096E+01  0.30185784670E+02  0.59301929075E+02  0.49999972729E+02 0.  0.
         12    1    1    2    0    0 -0.99114371739E+01  0.27024685096E+01 -0.30185784670E+02  0.31886070925E+02  0.00000000000E+00 0. -1.
         11    1    3    3    0    0  0.16989345039E+02  0.73554419319E+01  0.30756180238E+01  0.18766986901E+02  0.51100000000E-03 0. -1.
        -11    1    3    3    0    0  0.63649608052E+01  0.52369416051E+01  0.14217026657E+02  0.16433567192E+02  0.51100000000E-03 0.  1.
        -12    1    3    3    0    0 -0.13442868670E+02 -0.15294852047E+02  0.12893139989E+02  0.24101374981E+02  0.00000000000E+00 0.  1.
</event>
<event>
 7    1  0.3223600E-013  0.5930196E+02  0.7816164E-02  0.1266605E+00
        -11   -1    0    0    0    0  0.00000000000E+00  0.00000000000E+00  0.45593999997E+02  0.45594000000E+02  0.51100000000E-03 0. -1.
         11   -1    0    0    0    0 -0.00000000000E+00 -0.00000000000E+00 -0.45593999997E+02  0.45594000000E+02  0.51100000000E-03 0.  1.
    9900012    2    1    2    0    0 -0.98728799961E+01 -0.29147322534E+02 -0.83474256365E+01  0.59301957833E+02  0.50000025178E+02 0.  0.
         12    1    1    2    0    0  0.98728799961E+01  0.29147322534E+02  0.83474256365E+01  0.31886042167E+02  0.00000000000E+00 0. -1.
         11    1    3    3    0    0 -0.14497878267E+02  0.89542236985E+01  0.19384928029E+01  0.17150053962E+02  0.51100000000E-03 0. -1.
        -11    1    3    3    0    0 -0.49761273152E+01 -0.99330147713E+01 -0.24243727357E+01  0.11371200857E+02  0.51100000000E-03 0.  1.
        -12    1    3    3    0    0  0.96011255863E+01 -0.28168531461E+02 -0.78615457038E+01  0.30780703014E+02  0.00000000000E+00 0.  1.
</event>
<event>
 7    1  0.3223600E-013  0.5930195E+02  0.7816164E-02  0.1266605E+00
        -11   -1    0    0    0    0  0.00000000000E+00  0.00000000000E+00  0.45593999997E+02  0.45594000000E+02  0.51100000000E-03 0.  1.
         11   -1    0    0    0    0 -0.00000000000E+00 -0.00000000000E+00 -0.45593999997E+02  0.45594000000E+02  0.51100000000E-03 0. -1.
    9900012    2    1    2    0    0 -0.22184812189E+02  0.19626628542E+02 -0.11804654644E+02  0.59301948017E+02  0.50000007276E+02 0.  0.
         12    1    1    2    0    0  0.22184812189E+02 -0.19626628542E+02  0.11804654644E+02  0.31886051983E+02  0.00000000000E+00 0. -1.
         11    1    3    3    0    0  0.10824176076E+02  0.15871858121E+02  0.22800568220E+00  0.19212773220E+02  0.51100000000E-03 0. -1.
        -11    1    3    3    0    0 -0.17625009607E+02  0.73726447441E+01 -0.14643461219E+02  0.24071306797E+02  0.51100000000E-03 0.  1.
        -12    1    3    3    0    0 -0.15383978658E+02 -0.36178743229E+01  0.26108008935E+01  0.16017868000E+02  0.00000000000E+00 0.  1.
</event>
<event>
 7    1  0.3223600E-013  0.5930191E+02  0.7816164E-02  0.1266605E+00
        -11   -1    0    0    0    0  0.00000000000E+00  0.00000000000E+00  0.45593999997E+02  0.45594000000E+02  0.51100000000E-03 0. -1.
         11   -1    0    0    0    0 -0.00000000000E+00 -0.00000000000E+00 -0.45593999997E+02  0.45594000000E+02  0.51100000000E-03 0.  1.
    9900012    2    1    2    0    0 -0.22546721453E+02 -0.11177517173E+02 -0.19581406907E+02  0.59301905305E+02  0.49999929379E+02 0.  0.
         12    1    1    2    0    0  0.22546721453E+02  0.11177517173E+02  0.19581406907E+02  0.31886094695E+02  0.00000000000E+00 0. -1.
         11    1    3    3    0    0  0.10515739749E+00  0.52293490237E+00 -0.86786399991E+01  0.86950164741E+01  0.51100000000E-03 0. -1.
        -11    1    3    3    0    0 -0.22962149122E+02  0.11347732767E+02 -0.10130287220E+02  0.27543675330E+02  0.51100000000E-03 0.  1.
         12    1    3    3    0    0  0.31027027162E+00 -0.23048184841E+02 -0.77247968759E+00  0.23063213501E+02  0.00000000000E+00 0. -1.
</event>
<event>
 7    1  0.3223600E-013  0.5930192E+02  0.7816164E-02  0.1266605E+00
        -11   -1    0    0    0    0  0.00000000000E+00  0.00000000000E+00  0.45593999997E+02  0.45594000000E+02  0.51100000000E-03 0.  1.
         11   -1    0    0    0    0 -0.00000000000E+00 -0.00000000000E+00 -0.45593999997E+02  0.45594000000E+02  0.51100000000E-03 0. -1.
    9900012    2    1    2    0    0 -0.31393799386E+02  0.36388308430E+01 -0.42320822144E+01  0.59301917618E+02  0.49999951836E+02 0.  0.
         12    1    1    2    0    0  0.31393799386E+02 -0.36388308430E+01  0.42320822144E+01  0.31886082382E+02  0.00000000000E+00 0. -1.
         11    1    3    3    0    0  0.49595470118E-02 -0.56636719255E+01 -0.42934910751E+01  0.71071281225E+01  0.51100000000E-03 0. -1.
        -11    1    3    3    0    0 -0.15108832234E+02  0.28713059819E+01  0.20276005980E+02  0.25448725474E+02  0.51100000000E-03 0.  1.
         12    1    3    3    0    0 -0.16289926699E+02  0.64311967866E+01 -0.20214597119E+02  0.26746064021E+02  0.00000000000E+00 0. -1.
</event>
<event>
 7    1  0.3223600E-013  0.5930222E+02  0.7816164E-02  0.1266604E+00
        -11   -1    0    0    0    0  0.00000000000E+00  0.00000000000E+00  0.45593999997E+02  0.45594000000E+02  0.51100000000E-03 0.  1.
         11   -1    0    0    0    0 -0.00000000000E+00 -0.00000000000E+00 -0.45593999997E+02  0.45594000000E+02  0.51100000000E-03 0. -1.
    9900012    2    1    2    0    0 -0.79269763009E+01  0.30823181213E+02 -0.19487225064E+01  0.59302219897E+02  0.50000503117E+02 0.  0.
         12    1    1    2    0    0  0.79269763009E+01 -0.30823181213E+02  0.19487225064E+01  0.31885780103E+02  0.00000000000E+00 0. -1.
         11    1    3    3    0    0 -0.43870720758E+01 -0.11708895832E+01  0.20901358048E+01  0.49986049812E+01  0.51100000000E-03 0. -1.
        -11    1    3    3    0    0  0.77028131234E+01  0.25507525422E+01  0.15305779574E+02  0.17323583844E+02  0.51100000000E-03 0.  1.
        -12    1    3    3    0    0 -0.11242717348E+02  0.29443318254E+02 -0.19344637885E+02  0.36980031072E+02  0.00000000000E+00 0.  1.
</event>
<event>
 7    1  0.3223600E-013  0.5930194E+02  0.7816164E-02  0.1266605E+00
        -11   -1    0    0    0    0  0.00000000000E+00  0.00000000000E+00  0.45593999997E+02  0.45594000000E+02  0.51100000000E-03 0. -1.
         11   -1    0    0    0    0 -0.00000000000E+00 -0.00000000000E+00 -0.45593999997E+02  0.45594000000E+02  0.51100000000E-03 0.  1.
    9900012    2    1    2    0    0  0.26815154464E+02 -0.62954142125E+01 -0.16063506721E+02  0.59301937257E+02  0.49999987652E+02 0.  0.
         12    1    1    2    0    0 -0.26815154464E+02  0.62954142125E+01  0.16063506721E+02  0.31886062743E+02  0.00000000000E+00 0. -1.
         11    1    3    3    0    0 -0.50759936570E+01  0.14344077873E+01 -0.12331232572E+02  0.13412029463E+02  0.51100000000E-03 0. -1.
        -11    1    3    3    0    0  0.18541116195E+02 -0.19033642588E+02 -0.82503231863E+01  0.27823018759E+02  0.51100000000E-03 0.  1.
         12    1    3    3    0    0  0.13350031926E+02  0.11303820588E+02  0.45180490374E+01  0.18066889035E+02  0.00000000000E+00 0. -1.
</event>
<event>
 7    1  0.3223600E-013  0.5930185E+02  0.7816164E-02  0.1266605E+00
        -11   -1    0    0    0    0  0.00000000000E+00  0.00000000000E+00  0.45593999997E+02  0.45594000000E+02  0.51100000000E-03 0. -1.
         11   -1    0    0    0    0 -0.00000000000E+00 -0.00000000000E+00 -0.45593999997E+02  0.45594000000E+02  0.51100000000E-03 0.  1.
    9900012    2    1    2    0    0 -0.10378699215E+02 -0.24568371306E+02 -0.17475821980E+02  0.59301849089E+02  0.49999826854E+02 0.  0.
         12    1    1    2    0    0  0.10378699215E+02  0.24568371306E+02  0.17475821980E+02  0.31886150911E+02  0.00000000000E+00 0. -1.
         11    1    3    3    0    0 -0.81074525361E+01 -0.26545657224E+02 -0.17431787083E+02  0.32776056890E+02  0.51100000000E-03 0. -1.
        -11    1    3    3    0    0 -0.38330703658E+01 -0.16266539405E+01 -0.12652303338E+02  0.13319880310E+02  0.51100000000E-03 0.  1.
         12    1    3    3    0    0  0.15618236871E+01  0.36039398580E+01  0.12608268441E+02  0.13205911889E+02  0.00000000000E+00 0. -1.
</event>
<event>
 7    1  0.3223600E-013  0.5930208E+02  0.7816164E-02  0.1266604E+00
        -11   -1    0    0    0    0  0.00000000000E+00  0.00000000000E+00  0.45593999997E+02  0.45594000000E+02  0.51100000000E-03 0.  1.
         11   -1    0    0    0    0 -0.00000000000E+00 -0.00000000000E+00 -0.45593999997E+02  0.45594000000E+02  0.51100000000E-03 0. -1.
    9900012    2    1    2    0    0  0.22517786953E+02  0.16822352206E+02  0.15055555054E+02  0.59302078326E+02  0.50000244928E+02 0.  0.
         12    1    1    2    0    0 -0.22517786953E+02 -0.16822352206E+02 -0.15055555054E+02  0.31885921674E+02  0.00000000000E+00 0. -1.
         11    1    3    3    0    0  0.18583348409E+02 -0.65622456285E+01  0.53098654818E+01  0.20410746617E+02  0.51100000000E-03 0. -1.
        -11    1    3    3    0    0  0.44138785127E+01 -0.48417274489E+01  0.83675059851E+01  0.10627314096E+02  0.51100000000E-03 0.  1.
         12    1    3    3    0    0 -0.47943996810E+00  0.28226325283E+02  0.13781835871E+01  0.28264017614E+02  0.00000000000E+00 0. -1.
</event>
<event>
 7    1  0.3223600E-013  0.5930195E+02  0.7816164E-02  0.1266605E+00
        -11   -1    0    0    0    0  0.00000000000E+00  0.00000000000E+00  0.45593999997E+02  0.45594000000E+02  0.51100000000E-03 0.  1.
         11   -1    0    0    0    0 -0.00000000000E+00 -0.00000000000E+00 -0.45593999997E+02  0.45594000000E+02  0.51100000000E-03 0. -1.
    9900012    2    1    2    0    0  0.21325878538E+02 -0.19645892303E+02  0.13265219735E+02  0.59301949219E+02  0.50000009467E+02 0.  0.
         12    1    1    2    0    0 -0.21325878538E+02  0.19645892303E+02 -0.13265219735E+02  0.31886050781E+02  0.00000000000E+00 0. -1.
         11    1    3    3    0    0  0.18558521284E+02  0.55806889746E+01 -0.20634572854E+01  0.19488988119E+02  0.51100000000E-03 0. -1.
        -11    1    3    3    0    0  0.10857783960E+02 -0.24907904980E+01 -0.15411686742E+00  0.11140882465E+02  0.51100000000E-03 0.  1.
        -12    1    3    3    0    0 -0.80904267061E+01 -0.22735790779E+02  0.15482793888E+02  0.28672078635E+02  0.00000000000E+00 0.  1.
</event>
<event>
 7    1  0.3223600E-013  0.5930194E+02  0.7816164E-02  0.1266605E+00
        -11   -1    0    0    0    0  0.00000000000E+00  0.00000000000E+00  0.45593999997E+02  0.45594000000E+02  0.51100000000E-03 0.  1.
         11   -1    0    0    0    0 -0.00000000000E+00 -0.00000000000E+00 -0.45593999997E+02  0.45594000000E+02  0.51100000000E-03 0. -1.
    9900012    2    1    2    0    0 -0.25523301978E+02 -0.76960710996E+01  0.17494355925E+02  0.59301938100E+02  0.49999989190E+02 0.  0.
         12    1    1    2    0    0  0.25523301978E+02  0.76960710996E+01 -0.17494355925E+02  0.31886061900E+02  0.00000000000E+00 0. -1.
         11    1    3    3    0    0  0.90875521448E+00 -0.51808209802E+00 -0.18397487939E+01  0.21163461404E+01  0.51100000000E-03 0. -1.
        -11    1    3    3    0    0  0.26009506344E+01 -0.18980256463E+02  0.17244616343E+02  0.25775800137E+02  0.51100000000E-03 0.  1.
         12    1    3    3    0    0 -0.29033007827E+02  0.11802267461E+02  0.20894883761E+01  0.31409791823E+02  0.00000000000E+00 0. -1.
</event>
<event>
 7    1  0.3223600E-013  0.5930195E+02  0.7816164E-02  0.1266605E+00
        -11   -1    0    0    0    0  0.00000000000E+00  0.00000000000E+00  0.45593999997E+02  0.45594000000E+02  0.51100000000E-03 0. -1.
         11   -1    0    0    0    0 -0.00000000000E+00 -0.00000000000E+00 -0.45593999997E+02  0.45594000000E+02  0.51100000000E-03 0.  1.
    9900012    2    1    2    0    0 -0.11092965122E+01  0.48120040717E+01 -0.31501334669E+02  0.59301952771E+02  0.50000015946E+02 0.  0.
         12    1    1    2    0    0  0.11092965122E+01 -0.48120040717E+01  0.31501334669E+02  0.31886047229E+02  0.00000000000E+00 0. -1.
         11    1    3    3    0    0 -0.10403003242E+02  0.77111426835E+00 -0.15536130703E+02  0.18713322825E+02  0.51100000000E-03 0. -1.
        -11    1    3    3    0    0 -0.38471775775E+01  0.14117584925E+02  0.34872362771E+01  0.15042200522E+02  0.51100000000E-03 0.  1.
         12    1    3    3    0    0  0.13140884307E+02 -0.10076695121E+02 -0.19452440243E+02  0.25546429425E+02  0.00000000000E+00 0. -1.
</event>
<event>
 7    1  0.3223600E-013  0.5930192E+02  0.7816164E-02  0.1266605E+00
        -11   -1    0    0    0    0  0.00000000000E+00  0.00000000000E+00  0.45593999997E+02  0.45594000000E+02  0.51100000000E-03 0.  1.
         11   -1    0    0    0    0 -0.00000000000E+00 -0.00000000000E+00 -0.45593999997E+02  0.45594000000E+02  0.51100000000E-03 0. -1.
    9900012    2    1    2    0    0  0.39951057816E+01  0.27043623247E+02  0.16413528280E+02  0.59301916215E+02  0.49999949276E+02 0.  0.
         12    1    1    2    0    0 -0.39951057816E+01 -0.27043623247E+02 -0.16413528280E+02  0.31886083785E+02  0.00000000000E+00 0. -1.
         11    1    3    3    0    0  0.16490711362E+02  0.16870382887E+02  0.25731374571E+01  0.23731296143E+02  0.51100000000E-03 0. -1.
        -11    1    3    3    0    0 -0.47415403821E+00  0.34903891023E+01 -0.85758755861E+01  0.92710992049E+01  0.51100000000E-03 0.  1.
        -12    1    3    3    0    0 -0.12021451543E+02  0.66828512576E+01  0.22416266409E+02  0.26299520867E+02  0.00000000000E+00 0.  1.
</event>
<event>
 7    1  0.3223600E-013  0.5930201E+02  0.7816164E-02  0.1266605E+00
        -11   -1    0    0    0    0  0.00000000000E+00  0.00000000000E+00  0.45593999997E+02  0.45594000000E+02  0.51100000000E-03 0.  1.
         11   -1    0    0    0    0 -0.00000000000E+00 -0.00000000000E+00 -0.45593999997E+02  0.45594000000E+02  0.51100000000E-03 0. -1.
    9900012    2    1    2    0    0 -0.27329523150E+02  0.16115282271E+02  0.31798519413E+01  0.59302005949E+02  0.50000112929E+02 0.  0.
         12    1    1    2    0    0  0.27329523150E+02 -0.16115282271E+02 -0.31798519413E+01  0.31885994051E+02  0.00000000000E+00 0. -1.
         11    1    3    3    0    0 -0.11198819963E+02 -0.11226051184E+01 -0.16630181597E+02  0.20080755738E+02  0.51100000000E-03 0. -1.
        -11    1    3    3    0    0  0.26460645867E+01  0.17948542080E+01 -0.40481507696E+01  0.51585544816E+01  0.51100000000E-03 0.  1.
         12    1    3    3    0    0 -0.18776767773E+02  0.15443033182E+02  0.23858184307E+02  0.34062695729E+02  0.00000000000E+00 0. -1.
</event>
<event>
 7    1  0.3223600E-013  0.5930197E+02  0.7816164E-02  0.1266605E+00
        -11   -1    0    0    0    0  0.00000000000E+00  0.00000000000E+00  0.45593999997E+02  0.45594000000E+02  0.51100000000E-03 0. -1.
         11   -1    0    0    0    0 -0.00000000000E+00 -0.00000000000E+00 -0.45593999997E+02  0.45594000000E+02  0.51100000000E-03 0.  1.
    9900012    2    1    2    0    0  0.11785811687E+02 -0.23912684664E+02 -0.17492770011E+02  0.59301970965E+02  0.50000049127E+02 0.  0.
         12    1    1    2    0    0 -0.11785811687E+02  0.23912684664E+02  0.17492770011E+02  0.31886029035E+02  0.00000000000E+00 0. -1.
         11    1    3    3    0    0  0.60336677894E+01 -0.69673860376E+01  0.38103360124E+01  0.99733783633E+01  0.51100000000E-03 0. -1.
        -11    1    3    3    0    0  0.19315576284E+02 -0.14464898762E+02 -0.25309537995E+02  0.34969951346E+02  0.51100000000E-03 0.  1.
         12    1    3    3    0    0 -0.13563432386E+02 -0.24803998643E+01  0.40064319712E+01  0.14358641256E+02  0.00000000000E+00 0. -1.
</event>
<event>
 7    1  0.3223600E-013  0.5930194E+02  0.7816164E-02  0.1266605E+00
        -11   -1    0    0    0    0  0.00000000000E+00  0.00000000000E+00  0.45593999997E+02  0.45594000000E+02  0.51100000000E-03 0.  1.
         11   -1    0    0    0    0 -0.00000000000E+00 -0.00000000000E+00 -0.45593999997E+02  0.45594000000E+02  0.51100000000E-03 0. -1.
    9900012    2    1    2    0    0 -0.31077822756E+02 -0.38868342238E+01 -0.59818353090E+01  0.59301938763E+02  0.49999990398E+02 0.  0.
         12    1    1    2    0    0  0.31077822756E+02  0.38868342238E+01  0.59818353090E+01  0.31886061237E+02  0.00000000000E+00 0. -1.
         11    1    3    3    0    0 -0.11704539058E+02  0.58857929140E+01  0.28562274620E+01  0.13408833967E+02  0.51100000000E-03 0.  1.
        -11    1    3    3    0    0 -0.16538176337E+02  0.10685340714E+02 -0.14528931759E+02  0.24469933409E+02  0.51100000000E-03 0. -1.
        -12    1    3    3    0    0 -0.28351073610E+01 -0.20457967852E+02  0.56908689882E+01  0.21423171386E+02  0.00000000000E+00 0.  1.
</event>
<event>
 7    1  0.3223600E-013  0.5930194E+02  0.7816164E-02  0.1266605E+00
        -11   -1    0    0    0    0  0.00000000000E+00  0.00000000000E+00  0.45593999997E+02  0.45594000000E+02  0.51100000000E-03 0.  1.
         11   -1    0    0    0    0 -0.00000000000E+00 -0.00000000000E+00 -0.45593999997E+02  0.45594000000E+02  0.51100000000E-03 0. -1.
    9900012    2    1    2    0    0 -0.41941635659E+01 -0.19752027791E+02  0.24677663209E+02  0.59301942368E+02  0.49999996973E+02 0.  0.
         12    1    1    2    0    0  0.41941635659E+01  0.19752027791E+02 -0.24677663209E+02  0.31886057632E+02  0.00000000000E+00 0. -1.
         11    1    3    3    0    0 -0.31233258184E+01 -0.51142282064E+01 -0.36764010425E+01  0.70303925354E+01  0.51100000000E-03 0. -1.
        -11    1    3    3    0    0  0.17859965150E+01 -0.28494393660E+02  0.24465287089E+02  0.37598810170E+02  0.51100000000E-03 0.  1.
         12    1    3    3    0    0 -0.28568342626E+01  0.13856594076E+02  0.38887771620E+01  0.14672739662E+02  0.00000000000E+00 0. -1.
</event>
<event>
 7    1  0.3223600E-013  0.5930196E+02  0.7816164E-02  0.1266605E+00
        -11   -1    0    0    0    0  0.00000000000E+00  0.00000000000E+00  0.45593999997E+02  0.45594000000E+02  0.51100000000E-03 0. -1.
         11   -1    0    0    0    0 -0.00000000000E+00 -0.00000000000E+00 -0.45593999997E+02  0.45594000000E+02  0.51100000000E-03 0.  1.
    9900012    2    1    2    0    0 -0.17203320536E+02 -0.13613307806E+02 -0.23139642005E+02  0.59301962005E+02  0.50000032787E+02 0.  0.
         12    1    1    2    0    0  0.17203320536E+02  0.13613307806E+02  0.23139642005E+02  0.31886037995E+02  0.00000000000E+00 0. -1.
         11    1    3    3    0    0 -0.19159716895E+02  0.52868327513E+01  0.45136314603E+01  0.20381811040E+02  0.51100000000E-03 0. -1.
        -11    1    3    3    0    0  0.29608943886E+01 -0.82138291682E+00  0.23556750959E+01  0.38717916905E+01  0.51100000000E-03 0.  1.
         12    1    3    3    0    0 -0.10044980293E+01 -0.18078757640E+02 -0.30008948562E+02  0.35048359275E+02  0.00000000000E+00 0. -1.
</event>
<event>
 7    1  0.3223600E-013  0.5930176E+02  0.7816164E-02  0.1266605E+00
        -11   -1    0    0    0    0  0.00000000000E+00  0.00000000000E+00  0.45593999997E+02  0.45594000000E+02  0.51100000000E-03 0.  1.
         11   -1    0    0    0    0 -0.00000000000E+00 -0.00000000000E+00 -0.45593999997E+02  0.45594000000E+02  0.51100000000E-03 0. -1.
    9900012    2    1    2    0    0 -0.43771822047E+01 -0.72212663929E+01  0.30747777877E+02  0.59301760699E+02  0.49999665651E+02 0.  0.
         12    1    1    2    0    0  0.43771822047E+01  0.72212663929E+01 -0.30747777877E+02  0.31886239301E+02  0.00000000000E+00 0. -1.
         11    1    3    3    0    0 -0.76115285203E+01 -0.24088648057E+00  0.23094917710E+02  0.24318071819E+02  0.51100000000E-03 0. -1.
        -11    1    3    3    0    0  0.53461881437E+01 -0.34738715567E+01  0.20516579190E+02  0.21484402090E+02  0.51100000000E-03 0.  1.
         12    1    3    3    0    0 -0.21118418282E+01 -0.35065083556E+01 -0.12863719022E+02  0.13499286790E+02  0.00000000000E+00 0. -1.
</event>
<event>
 7    1  0.3223600E-013  0.5930194E+02  0.7816164E-02  0.1266605E+00
        -11   -1    0    0    0    0  0.00000000000E+00  0.00000000000E+00  0.45593999997E+02  0.45594000000E+02  0.51100000000E-03 0. -1.
         11   -1    0    0    0    0 -0.00000000000E+00 -0.00000000000E+00 -0.45593999997E+02  0.45594000000E+02  0.51100000000E-03 0.  1.
    9900012    2    1    2    0    0 -0.31371821922E+02 -0.57026022095E+01 -0.99482812870E-01  0.59301940672E+02  0.49999993879E+02 0.  0.
         12    1    1    2    0    0  0.31371821922E+02  0.57026022095E+01  0.99482812870E-01  0.31886059328E+02  0.00000000000E+00 0. -1.
         11    1    3    3    0    0 -0.20349336074E+02  0.14803025809E+02  0.55990864154E+01  0.25779348725E+02  0.51100000000E-03 0. -1.
        -11    1    3    3    0    0  0.36107957513E+01 -0.98751444437E+01 -0.10447524835E+02  0.14822520001E+02  0.51100000000E-03 0.  1.
         12    1    3    3    0    0 -0.14633281600E+02 -0.10630483575E+02  0.47489556072E+01  0.18700071945E+02  0.00000000000E+00 0. -1.
</event>
<event>
 7    1  0.3223600E-013  0.5930201E+02  0.7816164E-02  0.1266605E+00
        -11   -1    0    0    0    0  0.00000000000E+00  0.00000000000E+00  0.45593999997E+02  0.45594000000E+02  0.51100000000E-03 0. -1.
         11   -1    0    0    0    0 -0.00000000000E+00 -0.00000000000E+00 -0.45593999997E+02  0.45594000000E+02  0.51100000000E-03 0.  1.
    9900012    2    1    2    0    0 -0.28455552275E+02  0.14197511710E+02 -0.23299908513E+01  0.59302005404E+02  0.50000111935E+02 0.  0.
         12    1    1    2    0    0  0.28455552275E+02 -0.14197511710E+02  0.23299908513E+01  0.31885994596E+02  0.00000000000E+00 0. -1.
         11    1    3    3    0    0 -0.17410570477E+02 -0.14006105228E+02  0.33214477060E+01  0.22590506039E+02  0.51100000000E-03 0. -1.
        -11    1    3    3    0    0 -0.39294104792E+01  0.31884251775E+00  0.46942172786E+01  0.61300573721E+01  0.51100000000E-03 0.  1.
        -12    1    3    3    0    0 -0.71155713195E+01  0.27884774420E+02 -0.10345655836E+02  0.30581441992E+02  0.00000000000E+00 0.  1.
</event>
<event>
 7    1  0.3223600E-013  0.5930200E+02  0.7816164E-02  0.1266605E+00
        -11   -1    0    0    0    0  0.00000000000E+00  0.00000000000E+00  0.45593999997E+02  0.45594000000E+02  0.51100000000E-03 0.  1.
         11   -1    0    0    0    0 -0.00000000000E+00 -0.00000000000E+00 -0.45593999997E+02  0.45594000000E+02  0.51100000000E-03 0. -1.
    9900012    2    1    2    0    0  0.17220682943E+02  0.22782833936E+02  0.14181243334E+02  0.59301998280E+02  0.50000098943E+02 0.  0.
         12    1    1    2    0    0 -0.17220682943E+02 -0.22782833936E+02 -0.14181243334E+02  0.31886001720E+02  0.00000000000E+00 0. -1.
         11    1    3    3    0    0  0.23230787552E+02  0.43110534174E+01 -0.59885096580E+01  0.24374513739E+02  0.51100000000E-03 0. -1.
        -11    1    3    3    0    0 -0.92526413015E+01 -0.26616595874E+00  0.45283316330E+01  0.10304756330E+02  0.51100000000E-03 0.  1.
        -12    1    3    3    0    0  0.32425366927E+01  0.18737946478E+02  0.15641421359E+02  0.24622728211E+02  0.00000000000E+00 0.  1.
</event>
<event>
 7    1  0.3223600E-013  0.5930195E+02  0.7816164E-02  0.1266605E+00
        -11   -1    0    0    0    0  0.00000000000E+00  0.00000000000E+00  0.45593999997E+02  0.45594000000E+02  0.51100000000E-03 0.  1.
         11   -1    0    0    0    0 -0.00000000000E+00 -0.00000000000E+00 -0.45593999997E+02  0.45594000000E+02  0.51100000000E-03 0. -1.
    9900012    2    1    2    0    0 -0.13261743278E+02  0.16417627125E+02  0.23902048055E+02  0.59301949501E+02  0.50000009982E+02 0.  0.
         12    1    1    2    0    0  0.13261743278E+02 -0.16417627125E+02 -0.23902048055E+02  0.31886050499E+02  0.00000000000E+00 0. -1.
         11    1    3    3    0    0  0.16568673735E+00  0.30338149642E+02  0.12344272800E+02  0.32753806603E+02  0.51100000000E-03 0. -1.
        -11    1    3    3    0    0 -0.67983663142E+01 -0.76119660065E+00 -0.13341530177E+01  0.69697323724E+01  0.51100000000E-03 0.  1.
        -12    1    3    3    0    0 -0.66290637014E+01 -0.13159325916E+02  0.12891928273E+02  0.19578410525E+02  0.00000000000E+00 0.  1.
</event>
<event>
 7    1  0.3223600E-013  0.5930186E+02  0.7816164E-02  0.1266605E+00
        -11   -1    0    0    0    0  0.00000000000E+00  0.00000000000E+00  0.45593999997E+02  0.45594000000E+02  0.51100000000E-03 0. -1.
         11   -1    0    0    0    0 -0.00000000000E+00 -0.00000000000E+00 -0.45593999997E+02  0.45594000000E+02  0.51100000000E-03 0.  1.
    9900012    2    1    2    0    0 -0.22188845742E+02  0.39344359950E+01 -0.22558836707E+02  0.59301862330E+02  0.49999851002E+02 0.  0.
         12    1    1    2    0    0  0.22188845742E+02 -0.39344359950E+01  0.22558836707E+02  0.31886137670E+02  0.00000000000E+00 0. -1.
         11    1    3    3    0    0 -0.40906324262E+01 -0.56321575370E+01 -0.78030889853E+01  0.10456704555E+02  0.51100000000E-03 0.  1.
        -11    1    3    3    0    0 -0.23646911544E+02 -0.92371335842E+01 -0.20219068241E+01  0.25467413883E+02  0.51100000000E-03 0. -1.
         12    1    3    3    0    0  0.55486982280E+01  0.18803727116E+02 -0.12733840897E+02  0.23377743892E+02  0.00000000000E+00 0. -1.
</event>
<event>
 7    1  0.3223600E-013  0.5930193E+02  0.7816164E-02  0.1266605E+00
        -11   -1    0    0    0    0  0.00000000000E+00  0.00000000000E+00  0.45593999997E+02  0.45594000000E+02  0.51100000000E-03 0.  1.
         11   -1    0    0    0    0 -0.00000000000E+00 -0.00000000000E+00 -0.45593999997E+02  0.45594000000E+02  0.51100000000E-03 0. -1.
    9900012    2    1    2    0    0 -0.63887106223E+01 -0.29794288917E+02  0.93918108678E+01  0.59301931147E+02  0.49999976509E+02 0.  0.
         12    1    1    2    0    0  0.63887106223E+01  0.29794288917E+02 -0.93918108678E+01  0.31886068853E+02  0.00000000000E+00 0. -1.
         11    1    3    3    0    0  0.16519342204E+01 -0.58802562384E+01  0.27396604991E+00  0.61140295841E+01  0.51100000000E-03 0. -1.
        -11    1    3    3    0    0 -0.18438064451E+02 -0.33442214331E+02  0.81750614440E+01  0.39053496001E+02  0.51100000000E-03 0.  1.
        -12    1    3    3    0    0  0.10397419608E+02  0.95281816521E+01  0.94278337384E+00  0.14134405562E+02  0.00000000000E+00 0.  1.
</event>
<event>
 7    1  0.3223600E-013  0.5930205E+02  0.7816164E-02  0.1266604E+00
        -11   -1    0    0    0    0  0.00000000000E+00  0.00000000000E+00  0.45593999997E+02  0.45594000000E+02  0.51100000000E-03 0. -1.
         11   -1    0    0    0    0 -0.00000000000E+00 -0.00000000000E+00 -0.45593999997E+02  0.45594000000E+02  0.51100000000E-03 0.  1.
    9900012    2    1    2    0    0  0.16316961803E+02 -0.26954052685E+02 -0.48938505471E+01  0.59302047422E+02  0.50000188565E+02 0.  0.
         12    1    1    2    0    0 -0.16316961803E+02  0.26954052685E+02  0.48938505471E+01  0.31885952578E+02  0.00000000000E+00 0. -1.
         11    1    3    3    0    0  0.21841292313E+01 -0.50893697713E+01  0.65270448553E+01  0.85600478955E+01  0.51100000000E-03 0. -1.
        -11    1    3    3    0    0 -0.13199948338E+02 -0.12384118544E+02 -0.12154811699E+02  0.21802396106E+02  0.51100000000E-03 0.  1.
         12    1    3    3    0    0  0.27332780909E+02 -0.94805643699E+01  0.73391629714E+00  0.28939603421E+02  0.00000000000E+00 0. -1.
</event>
<event>
 7    1  0.3223600E-013  0.5930195E+02  0.7816164E-02  0.1266605E+00
        -11   -1    0    0    0    0  0.00000000000E+00  0.00000000000E+00  0.45593999997E+02  0.45594000000E+02  0.51100000000E-03 0.  1.
         11   -1    0    0    0    0 -0.00000000000E+00 -0.00000000000E+00 -0.45593999997E+02  0.45594000000E+02  0.51100000000E-03 0. -1.
    9900012    2    1    2    0    0  0.25115391751E+02 -0.15307397140E+02  0.12313453827E+02  0.59301945758E+02  0.50000003155E+02 0.  0.
         12    1    1    2    0    0 -0.25115391751E+02  0.15307397140E+02 -0.12313453827E+02  0.31886054242E+02  0.00000000000E+00 0. -1.
         11    1    3    3    0    0  0.20725340832E+02 -0.43319167733E+01 -0.84850475643E+01  0.22810113721E+02  0.51100000000E-03 0. -1.
        -11    1    3    3    0    0  0.12160167450E+02  0.42284157522E+01  0.80606355310E+01  0.15189569369E+02  0.51100000000E-03 0.  1.
         12    1    3    3    0    0 -0.77701165313E+01 -0.15203896119E+02  0.12737865860E+02  0.21302262668E+02  0.00000000000E+00 0. -1.
</event>
<event>
 7    1  0.3223600E-013  0.5930194E+02  0.7816164E-02  0.1266605E+00
        -11   -1    0    0    0    0  0.00000000000E+00  0.00000000000E+00  0.45593999997E+02  0.45594000000E+02  0.51100000000E-03 0. -1.
         11   -1    0    0    0    0 -0.00000000000E+00 -0.00000000000E+00 -0.45593999997E+02  0.45594000000E+02  0.51100000000E-03 0.  1.
    9900012    2    1    2    0    0 -0.29933550514E+02  0.47055180753E+00  0.10976414749E+02  0.59301944331E+02  0.50000000553E+02 0.  0.
         12    1    1    2    0    0  0.29933550514E+02 -0.47055180753E+00 -0.10976414749E+02  0.31886055669E+02  0.00000000000E+00 0. -1.
         11    1    3    3    0    0 -0.31232681262E+02 -0.68730241775E+01  0.11435742016E+01  0.32000415659E+02  0.51100000000E-03 0. -1.
        -11    1    3    3    0    0 -0.86491186285E+01  0.34801970021E+01 -0.37316078116E+01  0.10042107415E+02  0.51100000000E-03 0.  1.
         12    1    3    3    0    0  0.99482493765E+01  0.38633789830E+01  0.13564448359E+02  0.17259421256E+02  0.00000000000E+00 0. -1.
</event>
<event>
 7    1  0.3223600E-013  0.5930189E+02  0.7816164E-02  0.1266605E+00
        -11   -1    0    0    0    0  0.00000000000E+00  0.00000000000E+00  0.45593999997E+02  0.45594000000E+02  0.51100000000E-03 0. -1.
         11   -1    0    0    0    0 -0.00000000000E+00 -0.00000000000E+00 -0.45593999997E+02  0.45594000000E+02  0.51100000000E-03 0.  1.
    9900012    2    1    2    0    0 -0.24687530479E+02  0.58126685353E+00 -0.20172066904E+02  0.59301885224E+02  0.49999892757E+02 0.  0.
         12    1    1    2    0    0  0.24687530479E+02 -0.58126685353E+00  0.20172066904E+02  0.31886114776E+02  0.00000000000E+00 0. -1.
         11    1    3    3    0    0  0.11676584713E+01  0.74980899566E+01  0.96597860735E+01  0.12283983334E+02  0.51100000000E-03 0. -1.
        -11    1    3    3    0    0  0.24230888244E+01  0.47803503420E+00 -0.13115937710E+02  0.13346448937E+02  0.51100000000E-03 0.  1.
        -12    1    3    3    0    0 -0.28278277775E+02 -0.73948581373E+01 -0.16715915267E+02  0.33671452954E+02  0.00000000000E+00 0.  1.
</event>
<event>
 7    1  0.3223600E-013  0.5930194E+02  0.7816164E-02  0.1266605E+00
        -11   -1    0    0    0    0  0.00000000000E+00  0.00000000000E+00  0.45593999997E+02  0.45594000000E+02  0.51100000000E-03 0.  1.
         11   -1    0    0    0    0 -0.00000000000E+00 -0.00000000000E+00 -0.45593999997E+02  0.45594000000E+02  0.51100000000E-03 0. -1.
    9900012    2    1    2    0    0  0.23737472207E+02  0.21108156582E+02  0.27747160866E+01  0.59301938619E+02  0.49999990135E+02 0.  0.
         12    1    1    2    0    0 -0.23737472207E+02 -0.21108156582E+02 -0.27747160866E+01  0.31886061381E+02  0.00000000000E+00 0. -1.
         11    1    3    3    0    0  0.25306443900E+02  0.27524555678E+02  0.13309325770E+02  0.39688227736E+02  0.51100000000E-03 0. -1.
        -11    1    3    3    0    0 -0.32870017782E+01  0.33154217551E+01  0.62174355148E+00  0.47098797659E+01  0.51100000000E-03 0.  1.
         12    1    3    3    0    0  0.17180300847E+01 -0.97318208514E+01 -0.11156353234E+02  0.14903831116E+02  0.00000000000E+00 0. -1.
</event>
<event>
 7    1  0.3223600E-013  0.5930195E+02  0.7816164E-02  0.1266605E+00
        -11   -1    0    0    0    0  0.00000000000E+00  0.00000000000E+00  0.45593999997E+02  0.45594000000E+02  0.51100000000E-03 0. -1.
         11   -1    0    0    0    0 -0.00000000000E+00 -0.00000000000E+00 -0.45593999997E+02  0.45594000000E+02  0.51100000000E-03 0.  1.
    9900012    2    1    2    0    0  0.25043114931E+02 -0.99836106710E+01 -0.17026161093E+02  0.59301948990E+02  0.50000009049E+02 0.  0.
         12    1    1    2    0    0 -0.25043114931E+02  0.99836106710E+01  0.17026161093E+02  0.31886051010E+02  0.00000000000E+00 0. -1.
         11    1    3    3    0    0  0.23641475576E+01 -0.62847044803E+01  0.61590538133E+01  0.91115667267E+01  0.51100000000E-03 0. -1.
        -11    1    3    3    0    0 -0.95454904313E+01 -0.73054040765E+01 -0.50505852367E+01  0.13038164280E+02  0.51100000000E-03 0.  1.
         12    1    3    3    0    0  0.32224457804E+02  0.36064978858E+01 -0.18134629670E+02  0.37152217983E+02  0.00000000000E+00 0. -1.
</event>
<event>
 7    1  0.3223600E-013  0.5930196E+02  0.7816164E-02  0.1266605E+00
        -11   -1    0    0    0    0  0.00000000000E+00  0.00000000000E+00  0.45593999997E+02  0.45594000000E+02  0.51100000000E-03 0.  1.
         11   -1    0    0    0    0 -0.00000000000E+00 -0.00000000000E+00 -0.45593999997E+02  0.45594000000E+02  0.51100000000E-03 0. -1.
    9900012    2    1    2    0    0 -0.20238406175E+02  0.21059219809E+02  0.12792014712E+02  0.59301961301E+02  0.50000031503E+02 0.  0.
         12    1    1    2    0    0  0.20238406175E+02 -0.21059219809E+02 -0.12792014712E+02  0.31886038699E+02  0.00000000000E+00 0. -1.
         11    1    3    3    0    0 -0.81644444454E+01  0.39673505012E+01 -0.50638684098E+01  0.10394267008E+02  0.51100000000E-03 0. -1.
        -11    1    3    3    0    0 -0.95356697105E+00 -0.12929646542E+02  0.86857203258E+01  0.15605344838E+02  0.51100000000E-03 0.  1.
         12    1    3    3    0    0 -0.11120394759E+02  0.30021515850E+02  0.91701627964E+01  0.33302349455E+02  0.00000000000E+00 0. -1.
</event>
<event>
 7    1  0.3223600E-013  0.5930196E+02  0.7816164E-02  0.1266605E+00
        -11   -1    0    0    0    0  0.00000000000E+00  0.00000000000E+00  0.45593999997E+02  0.45594000000E+02  0.51100000000E-03 0. -1.
         11   -1    0    0    0    0 -0.00000000000E+00 -0.00000000000E+00 -0.45593999997E+02  0.45594000000E+02  0.51100000000E-03 0.  1.
    9900012    2    1    2    0    0 -0.91145606565E+01 -0.28775261973E+02 -0.10277571651E+02  0.59301962357E+02  0.50000033427E+02 0.  0.
         12    1    1    2    0    0  0.91145606565E+01  0.28775261973E+02  0.10277571651E+02  0.31886037643E+02  0.00000000000E+00 0. -1.
         11    1    3    3    0    0 -0.63160253896E+01 -0.24886966800E+02 -0.75113605618E+00  0.25686912988E+02  0.51100000000E-03 0. -1.
        -11    1    3    3    0    0 -0.13719172889E+02 -0.10607170562E+02 -0.11259921884E+02  0.20676402327E+02  0.51100000000E-03 0.  1.
         12    1    3    3    0    0  0.10920637622E+02  0.67188753887E+01  0.17334862894E+01  0.12938647042E+02  0.00000000000E+00 0. -1.
</event>
<event>
 7    1  0.3223600E-013  0.5930193E+02  0.7816164E-02  0.1266605E+00
        -11   -1    0    0    0    0  0.00000000000E+00  0.00000000000E+00  0.45593999997E+02  0.45594000000E+02  0.51100000000E-03 0. -1.
         11   -1    0    0    0    0 -0.00000000000E+00 -0.00000000000E+00 -0.45593999997E+02  0.45594000000E+02  0.51100000000E-03 0.  1.
    9900012    2    1    2    0    0 -0.26222977819E+02  0.12842176161E+02 -0.12812303145E+02  0.59301934609E+02  0.49999982822E+02 0.  0.
         12    1    1    2    0    0  0.26222977819E+02 -0.12842176161E+02  0.12812303145E+02  0.31886065391E+02  0.00000000000E+00 0. -1.
         11    1    3    3    0    0 -0.56057446368E+01 -0.50084826546E+00 -0.20145320005E+02  0.20916719157E+02  0.51100000000E-03 0. -1.
        -11    1    3    3    0    0  0.21132327590E+01 -0.13978222539E+01 -0.72061517598E+01  0.76386047936E+01  0.51100000000E-03 0.  1.
         12    1    3    3    0    0 -0.22730465941E+02  0.14740846681E+02  0.14539168620E+02  0.30746610658E+02  0.00000000000E+00 0. -1.
</event>
<event>
 7    1  0.3223600E-013  0.5930196E+02  0.7816164E-02  0.1266605E+00
        -11   -1    0    0    0    0  0.00000000000E+00  0.00000000000E+00  0.45593999997E+02  0.45594000000E+02  0.51100000000E-03 0. -1.
         11   -1    0    0    0    0 -0.00000000000E+00 -0.00000000000E+00 -0.45593999997E+02  0.45594000000E+02  0.51100000000E-03 0.  1.
    9900012    2    1    2    0    0  0.15470528336E+02  0.12358322207E+02 -0.24993077107E+02  0.59301964216E+02  0.50000036818E+02 0.  0.
         12    1    1    2    0    0 -0.15470528336E+02 -0.12358322207E+02  0.24993077107E+02  0.31886035784E+02  0.00000000000E+00 0. -1.
         11    1    3    3    0    0 -0.33518663283E+01  0.87401806798E+01  0.21428795503E+01  0.96030046978E+01  0.51100000000E-03 0. -1.
        -11    1    3    3    0    0  0.79604675808E+01  0.63543111096E+00 -0.35039972944E+02  0.35938454627E+02  0.51100000000E-03 0.  1.
         12    1    3    3    0    0  0.10861927084E+02  0.29827104158E+01  0.79040162863E+01  0.13760504891E+02  0.00000000000E+00 0. -1.
</event>
<event>
 7    1  0.3223600E-013  0.5930198E+02  0.7816164E-02  0.1266605E+00
        -11   -1    0    0    0    0  0.00000000000E+00  0.00000000000E+00  0.45593999997E+02  0.45594000000E+02  0.51100000000E-03 0. -1.
         11   -1    0    0    0    0 -0.00000000000E+00 -0.00000000000E+00 -0.45593999997E+02  0.45594000000E+02  0.51100000000E-03 0.  1.
    9900012    2    1    2    0    0 -0.23415599374E+02 -0.89833608476E+01 -0.19690789270E+02  0.59301980364E+02  0.50000066269E+02 0.  0.
         12    1    1    2    0    0  0.23415599374E+02  0.89833608476E+01  0.19690789270E+02  0.31886019636E+02  0.00000000000E+00 0. -1.
         11    1    3    3    0    0 -0.94524625329E+01  0.33191739361E+00  0.23601039574E+01  0.97482976998E+01  0.51100000000E-03 0. -1.
        -11    1    3    3    0    0 -0.27583169832E+02 -0.43075603051E+01 -0.21131296100E+02  0.35013111957E+02  0.51100000000E-03 0.  1.
        -12    1    3    3    0    0  0.13620032992E+02 -0.50077179361E+01 -0.91959712808E+00  0.14540570708E+02  0.00000000000E+00 0.  1.
</event>
<event>
 7    1  0.3223600E-013  0.5930195E+02  0.7816164E-02  0.1266605E+00
        -11   -1    0    0    0    0  0.00000000000E+00  0.00000000000E+00  0.45593999997E+02  0.45594000000E+02  0.51100000000E-03 0.  1.
         11   -1    0    0    0    0 -0.00000000000E+00 -0.00000000000E+00 -0.45593999997E+02  0.45594000000E+02  0.51100000000E-03 0. -1.
    9900012    2    1    2    0    0 -0.26759436414E+02  0.11007387394E+02  0.13397396408E+02  0.59301949054E+02  0.50000009167E+02 0.  0.
         12    1    1    2    0    0  0.26759436414E+02 -0.11007387394E+02 -0.13397396408E+02  0.31886050946E+02  0.00000000000E+00 0. -1.
         11    1    3    3    0    0  0.64328222363E+01 -0.81234047454E+01  0.79236255523E+01  0.13044337804E+02  0.51100000000E-03 0. -1.
        -11    1    3    3    0    0 -0.10848652153E+02  0.19139586825E+01  0.13023086374E+02  0.17057469635E+02  0.51100000000E-03 0.  1.
         12    1    3    3    0    0 -0.22343606497E+02  0.17216833456E+02 -0.75493155189E+01  0.29200141615E+02  0.00000000000E+00 0. -1.
</event>
<event>
 7    1  0.3223600E-013  0.5930194E+02  0.7816164E-02  0.1266605E+00
        -11   -1    0    0    0    0  0.00000000000E+00  0.00000000000E+00  0.45593999997E+02  0.45594000000E+02  0.51100000000E-03 0. -1.
         11   -1    0    0    0    0 -0.00000000000E+00 -0.00000000000E+00 -0.45593999997E+02  0.45594000000E+02  0.51100000000E-03 0.  1.
    9900012    2    1    2    0    0  0.86067621486E+01 -0.32121214396E+01 -0.30534022505E+02  0.59301943342E+02  0.49999998750E+02 0.  0.
         12    1    1    2    0    0 -0.86067621486E+01  0.32121214396E+01  0.30534022505E+02  0.31886056658E+02  0.00000000000E+00 0. -1.
         11    1    3    3    0    0  0.11305932765E+02  0.24726314381E+01 -0.53774927225E+01  0.12761483071E+02  0.51100000000E-03 0. -1.
        -11    1    3    3    0    0  0.10796176349E+02  0.86525612264E+01 -0.22855222000E+02  0.26716762762E+02  0.51100000000E-03 0.  1.
         12    1    3    3    0    0 -0.13495346966E+02 -0.14337314104E+02 -0.23013077822E+01  0.19823697510E+02  0.00000000000E+00 0. -1.
</event>
<event>
 7    1  0.3223600E-013  0.5930194E+02  0.7816164E-02  0.1266605E+00
        -11   -1    0    0    0    0  0.00000000000E+00  0.00000000000E+00  0.45593999997E+02  0.45594000000E+02  0.51100000000E-03 0. -1.
         11   -1    0    0    0    0 -0.00000000000E+00 -0.00000000000E+00 -0.45593999997E+02  0.45594000000E+02  0.51100000000E-03 0.  1.
    9900012    2    1    2    0    0 -0.13872436261E+02 -0.12154066880E+02 -0.26010676549E+02  0.59301935268E+02  0.49999984025E+02 0.  0.
         12    1    1    2    0    0  0.13872436261E+02  0.12154066880E+02  0.26010676549E+02  0.31886064732E+02  0.00000000000E+00 0. -1.
         11    1    3    3    0    0 -0.37877452063E+01  0.60053723526E+01  0.34314133802E+01  0.78858169449E+01  0.51100000000E-03 0. -1.
        -11    1    3    3    0    0 -0.16519604082E+02  0.47912163534E+01 -0.18267720736E+02  0.25091087946E+02  0.51100000000E-03 0.  1.
         12    1    3    3    0    0  0.64349130276E+01 -0.22950655586E+02 -0.11174369193E+02  0.26325030378E+02  0.00000000000E+00 0. -1.
</event>
<event>
 7    1  0.3223600E-013  0.5930194E+02  0.7816164E-02  0.1266605E+00
        -11   -1    0    0    0    0  0.00000000000E+00  0.00000000000E+00  0.45593999997E+02  0.45594000000E+02  0.51100000000E-03 0.  1.
         11   -1    0    0    0    0 -0.00000000000E+00 -0.00000000000E+00 -0.45593999997E+02  0.45594000000E+02  0.51100000000E-03 0. -1.
    9900012    2    1    2    0    0  0.20291121721E+02  0.19521524516E+01  0.24518984412E+02  0.59301935387E+02  0.49999984242E+02 0.  0.
         12    1    1    2    0    0 -0.20291121721E+02 -0.19521524516E+01 -0.24518984412E+02  0.31886064613E+02  0.00000000000E+00 0. -1.
         11    1    3    3    0    0 -0.86991059973E+01  0.40824465972E+01  0.25630559582E+01  0.99453542661E+01  0.51100000000E-03 0. -1.
        -11    1    3    3    0    0 -0.35743310929E+00  0.49883397830E+01 -0.62702494958E+01  0.80204314858E+01  0.51100000000E-03 0.  1.
        -12    1    3    3    0    0  0.29347660827E+02 -0.71186339286E+01  0.28226177950E+02  0.41336149636E+02  0.00000000000E+00 0.  1.
</event>
<event>
 7    1  0.3223600E-013  0.5930195E+02  0.7816164E-02  0.1266605E+00
        -11   -1    0    0    0    0  0.00000000000E+00  0.00000000000E+00  0.45593999997E+02  0.45594000000E+02  0.51100000000E-03 0. -1.
         11   -1    0    0    0    0 -0.00000000000E+00 -0.00000000000E+00 -0.45593999997E+02  0.45594000000E+02  0.51100000000E-03 0.  1.
    9900012    2    1    2    0    0  0.66192962141E+01  0.92020898370E+01 -0.29803136158E+02  0.59301945609E+02  0.50000002884E+02 0.  0.
         12    1    1    2    0    0 -0.66192962141E+01 -0.92020898370E+01  0.29803136158E+02  0.31886054391E+02  0.00000000000E+00 0. -1.
         11    1    3    3    0    0  0.47733156531E+01 -0.49867303540E+01 -0.24833066957E+02  0.25774662688E+02  0.51100000000E-03 0. -1.
        -11    1    3    3    0    0 -0.11813164789E+02  0.21100191971E+01 -0.88183997605E+01  0.14891850722E+02  0.51100000000E-03 0.  1.
        -12    1    3    3    0    0  0.13659145350E+02  0.12078800994E+02  0.38483305590E+01  0.18635432199E+02  0.00000000000E+00 0.  1.
</event>
<event>
 7    1  0.3223600E-013  0.5930192E+02  0.7816164E-02  0.1266605E+00
        -11   -1    0    0    0    0  0.00000000000E+00  0.00000000000E+00  0.45593999997E+02  0.45594000000E+02  0.51100000000E-03 0.  1.
         11   -1    0    0    0    0 -0.00000000000E+00 -0.00000000000E+00 -0.45593999997E+02  0.45594000000E+02  0.51100000000E-03 0. -1.
    9900012    2    1    2    0    0  0.22777617236E+02 -0.21952637020E+02 -0.39980036244E+01  0.59301919148E+02  0.49999954626E+02 0.  0.
         12    1    1    2    0    0 -0.22777617236E+02  0.21952637020E+02  0.39980036244E+01  0.31886080852E+02  0.00000000000E+00 0. -1.
         11    1    3    3    0    0  0.59042109941E+01  0.60876094754E+01 -0.81885977382E+01  0.11788631378E+02  0.51100000000E-03 0. -1.
        -11    1    3    3    0    0  0.26575526716E+02 -0.14148381374E+02  0.21117472385E+00  0.30107804814E+02  0.51100000000E-03 0.  1.
        -12    1    3    3    0    0 -0.97021204734E+01 -0.13891865122E+02  0.39794193899E+01  0.17405482956E+02  0.00000000000E+00 0.  1.
</event>
<event>
 7    1  0.3223600E-013  0.5930193E+02  0.7816164E-02  0.1266605E+00
        -11   -1    0    0    0    0  0.00000000000E+00  0.00000000000E+00  0.45593999997E+02  0.45594000000E+02  0.51100000000E-03 0.  1.
         11   -1    0    0    0    0 -0.00000000000E+00 -0.00000000000E+00 -0.45593999997E+02  0.45594000000E+02  0.51100000000E-03 0. -1.
    9900012    2    1    2    0    0  0.22768428356E+02 -0.17753253365E+02  0.13532994633E+02  0.59301932845E+02  0.49999979606E+02 0.  0.
         12    1    1    2    0    0 -0.22768428356E+02  0.17753253365E+02 -0.13532994633E+02  0.31886067155E+02  0.00000000000E+00 0. -1.
         11    1    3    3    0    0  0.16541103917E+02 -0.43202929144E+01 -0.69880613488E+00  0.17110271183E+02  0.51100000000E-03 0. -1.
        -11    1    3    3    0    0  0.20799487299E+02 -0.93096993018E+01  0.14562829963E+02  0.27043764342E+02  0.51100000000E-03 0.  1.
        -12    1    3    3    0    0 -0.14572162860E+02 -0.41232611491E+01 -0.33102919450E+00  0.15147897321E+02  0.00000000000E+00 0.  1.
</event>
<event>
 7    1  0.3223600E-013  0.5930194E+02  0.7816164E-02  0.1266605E+00
        -11   -1    0    0    0    0  0.00000000000E+00  0.00000000000E+00  0.45593999997E+02  0.45594000000E+02  0.51100000000E-03 0. -1.
         11   -1    0    0    0    0 -0.00000000000E+00 -0.00000000000E+00 -0.45593999997E+02  0.45594000000E+02  0.51100000000E-03 0.  1.
    9900012    2    1    2    0    0 -0.26924313604E+02  0.17065201711E+02  0.76222376400E+00  0.59301941016E+02  0.49999994507E+02 0.  0.
         12    1    1    2    0    0  0.26924313604E+02 -0.17065201711E+02 -0.76222376400E+00  0.31886058984E+02  0.00000000000E+00 0. -1.
         11    1    3    3    0    0 -0.21602761704E+02  0.77344365585E+01  0.18775155202E+02  0.29648056855E+02  0.51100000000E-03 0. -1.
        -11    1    3    3    0    0 -0.63099043616E+01 -0.56908929085E+01 -0.62131063865E+01  0.10526340598E+02  0.51100000000E-03 0.  1.
        -12    1    3    3    0    0  0.98835246198E+00  0.15021658061E+02 -0.11799825052E+02  0.19127543563E+02  0.00000000000E+00 0.  1.
</event>
<event>
 7    1  0.3223600E-013  0.5930177E+02  0.7816164E-02  0.1266605E+00
        -11   -1    0    0    0    0  0.00000000000E+00  0.00000000000E+00  0.45593999997E+02  0.45594000000E+02  0.51100000000E-03 0.  1.
         11   -1    0    0    0    0 -0.00000000000E+00 -0.00000000000E+00 -0.45593999997E+02  0.45594000000E+02  0.51100000000E-03 0. -1.
    9900012    2    1    2    0    0  0.30204683344E+02 -0.97391449431E+01  0.30916146570E+01  0.59301765959E+02  0.49999675244E+02 0.  0.
         12    1    1    2    0    0 -0.30204683344E+02  0.97391449431E+01 -0.30916146570E+01  0.31886234041E+02  0.00000000000E+00 0. -1.
         11    1    3    3    0    0  0.90560922348E+01  0.55427829070E+01  0.90438598959E+01  0.13947281133E+02  0.51100000000E-03 0.  1.
        -11    1    3    3    0    0  0.16522984943E+02 -0.72852559149E+01  0.14339537396E+02  0.23058757949E+02  0.51100000000E-03 0. -1.
         12    1    3    3    0    0  0.46256061665E+01 -0.79966719353E+01 -0.20291782635E+02  0.22295726877E+02  0.00000000000E+00 0. -1.
</event>
<event>
 7    1  0.3223600E-013  0.5930189E+02  0.7816164E-02  0.1266605E+00
        -11   -1    0    0    0    0  0.00000000000E+00  0.00000000000E+00  0.45593999997E+02  0.45594000000E+02  0.51100000000E-03 0. -1.
         11   -1    0    0    0    0 -0.00000000000E+00 -0.00000000000E+00 -0.45593999997E+02  0.45594000000E+02  0.51100000000E-03 0.  1.
    9900012    2    1    2    0    0 -0.30579167804E+02 -0.70936460260E+01 -0.55963034749E+01  0.59301891268E+02  0.49999903778E+02 0.  0.
         12    1    1    2    0    0  0.30579167804E+02  0.70936460260E+01  0.55963034749E+01  0.31886108732E+02  0.00000000000E+00 0. -1.
         11    1    3    3    0    0  0.62942087586E+01  0.10729909403E+01 -0.12629418787E+02  0.14151699283E+02  0.51100000000E-03 0. -1.
        -11    1    3    3    0    0 -0.53449962200E+01 -0.70276320941E+01 -0.63545275114E+01  0.10878263538E+02  0.51100000000E-03 0.  1.
         12    1    3    3    0    0 -0.31528380342E+02 -0.11390048721E+01  0.13387642823E+02  0.34271928447E+02  0.00000000000E+00 0. -1.
</event>
<event>
 7    1  0.3223600E-013  0.5930193E+02  0.7816164E-02  0.1266605E+00
        -11   -1    0    0    0    0  0.00000000000E+00  0.00000000000E+00  0.45593999997E+02  0.45594000000E+02  0.51100000000E-03 0. -1.
         11   -1    0    0    0    0 -0.00000000000E+00 -0.00000000000E+00 -0.45593999997E+02  0.45594000000E+02  0.51100000000E-03 0.  1.
    9900012    2    1    2    0    0  0.22992393550E+02  0.16153712266E+02 -0.15070801652E+02  0.59301927122E+02  0.49999969168E+02 0.  0.
         12    1    1    2    0    0 -0.22992393550E+02 -0.16153712266E+02  0.15070801652E+02  0.31886072878E+02  0.00000000000E+00 0. -1.
         11    1    3    3    0    0 -0.64478397965E+01  0.26633798022E+01  0.86655697790E+01  0.11124762014E+02  0.51100000000E-03 0. -1.
        -11    1    3    3    0    0  0.30390447962E+02  0.94080966308E+01 -0.93002994335E+01  0.33144941988E+02  0.51100000000E-03 0.  1.
        -12    1    3    3    0    0 -0.95021461586E+00  0.40822358330E+01 -0.14436071998E+02  0.15032223120E+02  0.00000000000E+00 0.  1.
</event>
<event>
 7    1  0.3223600E-013  0.5930196E+02  0.7816164E-02  0.1266605E+00
        -11   -1    0    0    0    0  0.00000000000E+00  0.00000000000E+00  0.45593999997E+02  0.45594000000E+02  0.51100000000E-03 0.  1.
         11   -1    0    0    0    0 -0.00000000000E+00 -0.00000000000E+00 -0.45593999997E+02  0.45594000000E+02  0.51100000000E-03 0. -1.
    9900012    2    1    2    0    0  0.30503826270E+02  0.71953433914E+01  0.58705254624E+01  0.59301961475E+02  0.50000031819E+02 0.  0.
         12    1    1    2    0    0 -0.30503826270E+02 -0.71953433914E+01 -0.58705254624E+01  0.31886038525E+02  0.00000000000E+00 0. -1.
         11    1    3    3    0    0  0.10783339488E+01  0.13241769535E+02 -0.47288482981E+01  0.14102101653E+02  0.51100000000E-03 0. -1.
        -11    1    3    3    0    0 -0.35484444281E+01  0.70552984863E+01  0.48163524878E+01  0.92501862758E+01  0.51100000000E-03 0.  1.
         12    1    3    3    0    0  0.32973936749E+02 -0.13101724630E+02  0.57830212727E+01  0.35949673546E+02  0.00000000000E+00 0. -1.
</event>
<event>
 7    1  0.3223600E-013  0.5930196E+02  0.7816164E-02  0.1266605E+00
        -11   -1    0    0    0    0  0.00000000000E+00  0.00000000000E+00  0.45593999997E+02  0.45594000000E+02  0.51100000000E-03 0. -1.
         11   -1    0    0    0    0 -0.00000000000E+00 -0.00000000000E+00 -0.45593999997E+02  0.45594000000E+02  0.51100000000E-03 0.  1.
    9900012    2    1    2    0    0 -0.30864752525E+02  0.53898765933E+01 -0.59190921450E+01  0.59301962775E+02  0.50000034190E+02 0.  0.
         12    1    1    2    0    0  0.30864752525E+02 -0.53898765933E+01  0.59190921450E+01  0.31886037225E+02  0.00000000000E+00 0. -1.
         11    1    3    3    0    0 -0.17246532738E+02  0.48497522522E+01  0.16242659940E+02  0.24182369416E+02  0.51100000000E-03 0. -1.
        -11    1    3    3    0    0 -0.16972042957E+02  0.79706438158E+01 -0.12784959187E+02  0.22694417522E+02  0.51100000000E-03 0.  1.
         12    1    3    3    0    0  0.33538231700E+01 -0.74305194747E+01 -0.93767928984E+01  0.12425175837E+02  0.00000000000E+00 0. -1.
</event>
<event>
 7    1  0.3223600E-013  0.5930196E+02  0.7816164E-02  0.1266605E+00
        -11   -1    0    0    0    0  0.00000000000E+00  0.00000000000E+00  0.45593999997E+02  0.45594000000E+02  0.51100000000E-03 0. -1.
         11   -1    0    0    0    0 -0.00000000000E+00 -0.00000000000E+00 -0.45593999997E+02  0.45594000000E+02  0.51100000000E-03 0.  1.
    9900012    2    1    2    0    0  0.21465938544E+02 -0.56817096697E+01 -0.22883425898E+02  0.59301960371E+02  0.50000029807E+02 0.  0.
         12    1    1    2    0    0 -0.21465938544E+02  0.56817096697E+01  0.22883425898E+02  0.31886039629E+02  0.00000000000E+00 0. -1.
         11    1    3    3    0    0  0.20211928714E+02  0.27782635077E+01 -0.33378047078E+01  0.20673213369E+02  0.51100000000E-03 0. -1.
        -11    1    3    3    0    0 -0.92338851480E+01 -0.76888177425E+00  0.52350862969E+01  0.10642459439E+02  0.51100000000E-03 0.  1.
         12    1    3    3    0    0  0.10487894978E+02 -0.76910914031E+01 -0.24780707487E+02  0.27986287564E+02  0.00000000000E+00 0. -1.
</event>
<event>
 7    1  0.3223600E-013  0.5930193E+02  0.7816164E-02  0.1266605E+00
        -11   -1    0    0    0    0  0.00000000000E+00  0.00000000000E+00  0.45593999997E+02  0.45594000000E+02  0.51100000000E-03 0.  1.
         11   -1    0    0    0    0 -0.00000000000E+00 -0.00000000000E+00 -0.45593999997E+02  0.45594000000E+02  0.51100000000E-03 0. -1.
    9900012    2    1    2    0    0 -0.27772135444E+02  0.10115811060E+02  0.11962445146E+02  0.59301933539E+02  0.49999980870E+02 0.  0.
         12    1    1    2    0    0  0.27772135444E+02 -0.10115811060E+02 -0.11962445146E+02  0.31886066461E+02  0.00000000000E+00 0. -1.
         11    1    3    3    0    0 -0.39301495951E+01  0.14996437028E+02 -0.60892773693E+01  0.16655884802E+02  0.51100000000E-03 0. -1.
        -11    1    3    3    0    0 -0.20525743469E+02  0.83757059018E+01  0.18646757805E+02  0.28968261446E+02  0.51100000000E-03 0.  1.
         12    1    3    3    0    0 -0.33162423796E+01 -0.13256331870E+02 -0.59503528988E+00  0.13677787291E+02  0.00000000000E+00 0. -1.
</event>
<event>
 7    1  0.3223600E-013  0.5930194E+02  0.7816164E-02  0.1266605E+00
        -11   -1    0    0    0    0  0.00000000000E+00  0.00000000000E+00  0.45593999997E+02  0.45594000000E+02  0.51100000000E-03 0.  1.
         11   -1    0    0    0    0 -0.00000000000E+00 -0.00000000000E+00 -0.45593999997E+02  0.45594000000E+02  0.51100000000E-03 0. -1.
    9900012    2    1    2    0    0  0.29105691470E+02 -0.99284513143E+01  0.84264661033E+01  0.59301941096E+02  0.49999994654E+02 0.  0.
         12    1    1    2    0    0 -0.29105691470E+02  0.99284513143E+01 -0.84264661033E+01  0.31886058904E+02  0.00000000000E+00 0. -1.
         11    1    3    3    0    0  0.51839334940E+01 -0.15063136064E+02  0.14605467048E+01  0.15997013206E+02  0.51100000000E-03 0. -1.
        -11    1    3    3    0    0 -0.28616103139E+01 -0.98186885474E+01  0.74055038061E+01  0.12626834333E+02  0.51100000000E-03 0.  1.
         12    1    3    3    0    0  0.26783368289E+02  0.14953373297E+02 -0.43958440764E+00  0.30678093558E+02  0.00000000000E+00 0. -1.
</event>
<event>
 7    1  0.3223600E-013  0.5930193E+02  0.7816164E-02  0.1266605E+00
        -11   -1    0    0    0    0  0.00000000000E+00  0.00000000000E+00  0.45593999997E+02  0.45594000000E+02  0.51100000000E-03 0.  1.
         11   -1    0    0    0    0 -0.00000000000E+00 -0.00000000000E+00 -0.45593999997E+02  0.45594000000E+02  0.51100000000E-03 0. -1.
    9900012    2    1    2    0    0  0.16429933648E+02 -0.83139862276E+01  0.26031834138E+02  0.59301929762E+02  0.49999973982E+02 0.  0.
         12    1    1    2    0    0 -0.16429933648E+02  0.83139862276E+01 -0.26031834138E+02  0.31886070238E+02  0.00000000000E+00 0. -1.
         11    1    3    3    0    0 -0.52453767698E+01 -0.76400035896E+01  0.18730311972E+02  0.20897564909E+02  0.51100000000E-03 0. -1.
        -11    1    3    3    0    0 -0.58301170743E+01  0.46308734139E+01  0.72497143811E+01  0.10391997524E+02  0.51100000000E-03 0.  1.
         12    1    3    3    0    0  0.27505427492E+02 -0.53048560519E+01  0.51807784505E-01  0.28012367328E+02  0.00000000000E+00 0. -1.
</event>
<event>
 7    1  0.3223600E-013  0.5930195E+02  0.7816164E-02  0.1266605E+00
        -11   -1    0    0    0    0  0.00000000000E+00  0.00000000000E+00  0.45593999997E+02  0.45594000000E+02  0.51100000000E-03 0. -1.
         11   -1    0    0    0    0 -0.00000000000E+00 -0.00000000000E+00 -0.45593999997E+02  0.45594000000E+02  0.51100000000E-03 0.  1.
    9900012    2    1    2    0    0 -0.17411606798E+02  0.89812209158E+00 -0.26697368707E+02  0.59301950221E+02  0.50000011296E+02 0.  0.
         12    1    1    2    0    0  0.17411606798E+02 -0.89812209158E+00  0.26697368707E+02  0.31886049779E+02  0.00000000000E+00 0. -1.
         11    1    3    3    0    0  0.53025402183E+01 -0.13553219021E+02 -0.78262214733E+01  0.16524418943E+02  0.51100000000E-03 0. -1.
        -11    1    3    3    0    0 -0.18986140722E+01 -0.48536929224E+01 -0.12695939063E+02  0.13724064242E+02  0.51100000000E-03 0.  1.
         12    1    3    3    0    0 -0.20815532945E+02  0.19305034035E+02 -0.61752081710E+01  0.29053467036E+02  0.00000000000E+00 0. -1.
</event>
<event>
 7    1  0.3223600E-013  0.5930197E+02  0.7816164E-02  0.1266605E+00
        -11   -1    0    0    0    0  0.00000000000E+00  0.00000000000E+00  0.45593999997E+02  0.45594000000E+02  0.51100000000E-03 0.  1.
         11   -1    0    0    0    0 -0.00000000000E+00 -0.00000000000E+00 -0.45593999997E+02  0.45594000000E+02  0.51100000000E-03 0. -1.
    9900012    2    1    2    0    0 -0.25672860503E+01  0.74809071985E+01  0.30889546077E+02  0.59301968780E+02  0.50000045141E+02 0.  0.
         12    1    1    2    0    0  0.25672860503E+01 -0.74809071985E+01 -0.30889546077E+02  0.31886031220E+02  0.00000000000E+00 0. -1.
         11    1    3    3    0    0  0.10360468118E+02  0.45746845204E+01  0.55487562079E+01  0.12611730008E+02  0.51100000000E-03 0. -1.
        -11    1    3    3    0    0  0.16319287487E+01 -0.17829796764E+01  0.30463359323E+02  0.30559097982E+02  0.51100000000E-03 0.  1.
         12    1    3    3    0    0 -0.14559682917E+02  0.46892023545E+01 -0.51225694542E+01  0.16131140790E+02  0.00000000000E+00 0. -1.
</event>
<event>
 7    1  0.3223600E-013  0.5930194E+02  0.7816164E-02  0.1266605E+00
        -11   -1    0    0    0    0  0.00000000000E+00  0.00000000000E+00  0.45593999997E+02  0.45594000000E+02  0.51100000000E-03 0. -1.
         11   -1    0    0    0    0 -0.00000000000E+00 -0.00000000000E+00 -0.45593999997E+02  0.45594000000E+02  0.51100000000E-03 0.  1.
    9900012    2    1    2    0    0  0.51534702518E-01  0.87467610337E+01 -0.30662885506E+02  0.59301936712E+02  0.49999986659E+02 0.  0.
         12    1    1    2    0    0 -0.51534702518E-01 -0.87467610337E+01  0.30662885506E+02  0.31886063288E+02  0.00000000000E+00 0. -1.
         11    1    3    3    0    0 -0.61651945596E+01  0.27293923614E+01  0.52765825499E+01  0.85616312865E+01  0.51100000000E-03 0. -1.
        -11    1    3    3    0    0  0.18982140832E+02 -0.30998418173E+01 -0.25320678746E+02  0.31797287027E+02  0.51100000000E-03 0.  1.
         12    1    3    3    0    0 -0.12765411570E+02  0.91172104896E+01 -0.10618789310E+02  0.18943018399E+02  0.00000000000E+00 0. -1.
</event>
<event>
 7    1  0.3223600E-013  0.5930195E+02  0.7816164E-02  0.1266605E+00
        -11   -1    0    0    0    0  0.00000000000E+00  0.00000000000E+00  0.45593999997E+02  0.45594000000E+02  0.51100000000E-03 0.  1.
         11   -1    0    0    0    0 -0.00000000000E+00 -0.00000000000E+00 -0.45593999997E+02  0.45594000000E+02  0.51100000000E-03 0. -1.
    9900012    2    1    2    0    0 -0.56209217488E+01 -0.23945248320E+01  0.31295237976E+02  0.59301946144E+02  0.50000003860E+02 0.  0.
         12    1    1    2    0    0  0.56209217488E+01  0.23945248320E+01 -0.31295237976E+02  0.31886053856E+02  0.00000000000E+00 0. -1.
         11    1    3    3    0    0 -0.11507395246E+01  0.71005791206E+01  0.60504359233E+01  0.93994787316E+01  0.51100000000E-03 0. -1.
        -11    1    3    3    0    0 -0.10999330525E+02 -0.11365985752E+02  0.34773071766E+02  0.38201275168E+02  0.51100000000E-03 0.  1.
        -12    1    3    3    0    0  0.65291483007E+01  0.18708817996E+01 -0.95282697130E+01  0.11701192245E+02  0.00000000000E+00 0.  1.
</event>
<event>
 7    1  0.3223600E-013  0.5930194E+02  0.7816164E-02  0.1266605E+00
        -11   -1    0    0    0    0  0.00000000000E+00  0.00000000000E+00  0.45593999997E+02  0.45594000000E+02  0.51100000000E-03 0.  1.
         11   -1    0    0    0    0 -0.00000000000E+00 -0.00000000000E+00 -0.45593999997E+02  0.45594000000E+02  0.51100000000E-03 0. -1.
    9900012    2    1    2    0    0  0.19595132854E+02  0.20843104063E+02  0.14082492558E+02  0.59301940112E+02  0.49999992858E+02 0.  0.
         12    1    1    2    0    0 -0.19595132854E+02 -0.20843104063E+02 -0.14082492558E+02  0.31886059888E+02  0.00000000000E+00 0. -1.
         11    1    3    3    0    0 -0.58190865855E+01  0.25662170593E+02  0.11847411032E+02  0.28857753146E+02  0.51100000000E-03 0. -1.
        -11    1    3    3    0    0  0.10876166561E+02  0.55096160718E+01  0.31324066610E+01  0.12588043537E+02  0.51100000000E-03 0.  1.
        -12    1    3    3    0    0  0.14538052878E+02 -0.10328682601E+02 -0.89732513571E+00  0.17856143429E+02  0.00000000000E+00 0.  1.
</event>
<event>
 7    1  0.3223600E-013  0.5930194E+02  0.7816164E-02  0.1266605E+00
        -11   -1    0    0    0    0  0.00000000000E+00  0.00000000000E+00  0.45593999997E+02  0.45594000000E+02  0.51100000000E-03 0.  1.
         11   -1    0    0    0    0 -0.00000000000E+00 -0.00000000000E+00 -0.45593999997E+02  0.45594000000E+02  0.51100000000E-03 0. -1.
    9900012    2    1    2    0    0 -0.34347865131E+01 -0.31497848881E+02 -0.35789397524E+01  0.59301936395E+02  0.49999986079E+02 0.  0.
         12    1    1    2    0    0  0.34347865131E+01  0.31497848881E+02  0.35789397524E+01  0.31886063605E+02  0.00000000000E+00 0. -1.
         11    1    3    3    0    0 -0.37290087191E+01 -0.57204811762E+01 -0.85723295628E+01  0.10959664471E+02  0.51100000000E-03 0. -1.
        -11    1    3    3    0    0  0.17144471900E+02 -0.26088004891E+02  0.37853429588E+01  0.31445917660E+02  0.51100000000E-03 0.  1.
         12    1    3    3    0    0 -0.16850249694E+02  0.31063718639E+00  0.12080468516E+01  0.16896354264E+02  0.00000000000E+00 0. -1.
</event>
<event>
 7    1  0.3223600E-013  0.5930201E+02  0.7816164E-02  0.1266605E+00
        -11   -1    0    0    0    0  0.00000000000E+00  0.00000000000E+00  0.45593999997E+02  0.45594000000E+02  0.51100000000E-03 0. -1.
         11   -1    0    0    0    0 -0.00000000000E+00 -0.00000000000E+00 -0.45593999997E+02  0.45594000000E+02  0.51100000000E-03 0.  1.
    9900012    2    1    2    0    0  0.14797781113E+02 -0.23384166541E+02 -0.15840546794E+02  0.59302007881E+02  0.50000116453E+02 0.  0.
         12    1    1    2    0    0 -0.14797781113E+02  0.23384166541E+02  0.15840546794E+02  0.31885992119E+02  0.00000000000E+00 0. -1.
         11    1    3    3    0    0  0.45301629008E+00 -0.55115733203E+01  0.11652120346E+02  0.12897851489E+02  0.51100000000E-03 0. -1.
        -11    1    3    3    0    0  0.73688009040E+01 -0.20805705537E+02 -0.49433245320E+01  0.22618865297E+02  0.51100000000E-03 0.  1.
         12    1    3    3    0    0  0.69759639188E+01  0.29331123158E+01 -0.22549342607E+02  0.23785291095E+02  0.00000000000E+00 0. -1.
</event>
<event>
 7    1  0.3223600E-013  0.5930177E+02  0.7816164E-02  0.1266605E+00
        -11   -1    0    0    0    0  0.00000000000E+00  0.00000000000E+00  0.45593999997E+02  0.45594000000E+02  0.51100000000E-03 0. -1.
         11   -1    0    0    0    0 -0.00000000000E+00 -0.00000000000E+00 -0.45593999997E+02  0.45594000000E+02  0.51100000000E-03 0.  1.
    9900012    2    1    2    0    0  0.65526171065E+01 -0.23622217530E+02 -0.20390830061E+02  0.59301766254E+02  0.49999675782E+02 0.  0.
         12    1    1    2    0    0 -0.65526171065E+01  0.23622217530E+02  0.20390830061E+02  0.31886233746E+02  0.00000000000E+00 0. -1.
         11    1    3    3    0    0 -0.21683223145E+01  0.92959660862E+01 -0.36744702999E+01  0.10228310681E+02  0.51100000000E-03 0. -1.
        -11    1    3    3    0    0  0.14826503889E+02 -0.86177658795E+01 -0.16815230995E+02  0.24017558160E+02  0.51100000000E-03 0.  1.
        -12    1    3    3    0    0 -0.61055644675E+01 -0.24300417737E+02  0.98871234028E-01  0.25055897413E+02  0.00000000000E+00 0.  1.
</event>
<event>
 7    1  0.3223600E-013  0.5930194E+02  0.7816164E-02  0.1266605E+00
        -11   -1    0    0    0    0  0.00000000000E+00  0.00000000000E+00  0.45593999997E+02  0.45594000000E+02  0.51100000000E-03 0.  1.
         11   -1    0    0    0    0 -0.00000000000E+00 -0.00000000000E+00 -0.45593999997E+02  0.45594000000E+02  0.51100000000E-03 0. -1.
    9900012    2    1    2    0    0 -0.12567129573E+01 -0.12234275384E+02  0.29418773827E+02  0.59301936036E+02  0.49999985424E+02 0.  0.
         12    1    1    2    0    0  0.12567129573E+01  0.12234275384E+02 -0.29418773827E+02  0.31886063964E+02  0.00000000000E+00 0. -1.
         11    1    3    3    0    0 -0.43673162563E+01 -0.25773759022E+01 -0.34572833042E+01  0.61375178966E+01  0.51100000000E-03 0. -1.
        -11    1    3    3    0    0 -0.17834515329E+02 -0.97189130170E+01  0.11992671587E+02  0.23587101969E+02  0.51100000000E-03 0.  1.
        -12    1    3    3    0    0  0.20945118628E+02  0.62013535057E-01  0.20883385545E+02  0.29577316170E+02  0.00000000000E+00 0.  1.
</event>
<event>
 7    1  0.3223600E-013  0.5930194E+02  0.7816164E-02  0.1266605E+00
        -11   -1    0    0    0    0  0.00000000000E+00  0.00000000000E+00  0.45593999997E+02  0.45594000000E+02  0.51100000000E-03 0.  1.
         11   -1    0    0    0    0 -0.00000000000E+00 -0.00000000000E+00 -0.45593999997E+02  0.45594000000E+02  0.51100000000E-03 0. -1.
    9900012    2    1    2    0    0 -0.24623259586E+02  0.18503746884E+02 -0.82478642339E+01  0.59301939945E+02  0.49999992554E+02 0.  0.
         12    1    1    2    0    0  0.24623259586E+02 -0.18503746884E+02  0.82478642339E+01  0.31886060055E+02  0.00000000000E+00 0. -1.
         11    1    3    3    0    0 -0.10444878244E+02 -0.28415254535E+01 -0.16125512750E+02  0.19421686594E+02  0.51100000000E-03 0. -1.
        -11    1    3    3    0    0  0.14991621429E+01  0.18597717265E+02 -0.51012296929E+01  0.19342831211E+02  0.51100000000E-03 0.  1.
        -12    1    3    3    0    0 -0.15677543485E+02  0.27475550725E+01  0.12978878209E+02  0.20537422140E+02  0.00000000000E+00 0.  1.
</event>
<event>
 7    1  0.3223600E-013  0.5930195E+02  0.7816164E-02  0.1266605E+00
        -11   -1    0    0    0    0  0.00000000000E+00  0.00000000000E+00  0.45593999997E+02  0.45594000000E+02  0.51100000000E-03 0. -1.
         11   -1    0    0    0    0 -0.00000000000E+00 -0.00000000000E+00 -0.45593999997E+02  0.45594000000E+02  0.51100000000E-03 0.  1.
    9900012    2    1    2    0    0 -0.10886242867E+01  0.10303221794E+02 -0.30155901409E+02  0.59301954902E+02  0.50000019833E+02 0.  0.
         12    1    1    2    0    0  0.10886242867E+01 -0.10303221794E+02  0.30155901409E+02  0.31886045098E+02  0.00000000000E+00 0. -1.
         11    1    3    3    0    0  0.76175116725E+01  0.20587700546E+02 -0.25875704264E+01  0.22103742191E+02  0.51100000000E-03 0. -1.
        -11    1    3    3    0    0 -0.53181999468E+01  0.35431231226E+01 -0.25288409266E+00  0.63953829253E+01  0.51100000000E-03 0.  1.
        -12    1    3    3    0    0 -0.33879360124E+01 -0.13827601875E+02 -0.27315446890E+02  0.30802829786E+02  0.00000000000E+00 0.  1.
</event>
<event>
 7    1  0.3223600E-013  0.5930194E+02  0.7816164E-02  0.1266605E+00
        -11   -1    0    0    0    0  0.00000000000E+00  0.00000000000E+00  0.45593999997E+02  0.45594000000E+02  0.51100000000E-03 0. -1.
         11   -1    0    0    0    0 -0.00000000000E+00 -0.00000000000E+00 -0.45593999997E+02  0.45594000000E+02  0.51100000000E-03 0.  1.
    9900012    2    1    2    0    0 -0.26783365137E+02 -0.11478121091E+02 -0.12946999061E+02  0.59301941973E+02  0.49999996253E+02 0.  0.
         12    1    1    2    0    0  0.26783365137E+02  0.11478121091E+02  0.12946999061E+02  0.31886058027E+02  0.00000000000E+00 0. -1.
         11    1    3    3    0    0  0.44200339590E+01  0.10939662445E+02 -0.12431498064E+02  0.17139284087E+02  0.51100000000E-03 0. -1.
        -11    1    3    3    0    0 -0.84532569746E+01 -0.16341706665E+01 -0.64806102374E+01  0.10776194902E+02  0.51100000000E-03 0.  1.
         12    1    3    3    0    0 -0.22750142121E+02 -0.20783612870E+02  0.59651092407E+01  0.31386462985E+02  0.00000000000E+00 0. -1.
</event>
<event>
 7    1  0.3223600E-013  0.5930200E+02  0.7816164E-02  0.1266605E+00
        -11   -1    0    0    0    0  0.00000000000E+00  0.00000000000E+00  0.45593999997E+02  0.45594000000E+02  0.51100000000E-03 0.  1.
         11   -1    0    0    0    0 -0.00000000000E+00 -0.00000000000E+00 -0.45593999997E+02  0.45594000000E+02  0.51100000000E-03 0. -1.
    9900012    2    1    2    0    0 -0.26442226238E+02 -0.36746698949E+00  0.17815460394E+02  0.59302000102E+02  0.50000102266E+02 0.  0.
         12    1    1    2    0    0  0.26442226238E+02  0.36746698949E+00 -0.17815460394E+02  0.31885999898E+02  0.00000000000E+00 0. -1.
         11    1    3    3    0    0 -0.10308319955E+02  0.89151297768E+01 -0.12003342175E+02  0.18160980779E+02  0.51100000000E-03 0. -1.
        -11    1    3    3    0    0  0.34125745276E+01  0.10982754590E+01 -0.48299576069E+00  0.36173414348E+01  0.51100000000E-03 0.  1.
        -12    1    3    3    0    0 -0.19546480811E+02 -0.10380872225E+02  0.30301798330E+02  0.37523677888E+02  0.00000000000E+00 0.  1.
</event>
<event>
 7    1  0.3223600E-013  0.5930222E+02  0.7816164E-02  0.1266604E+00
        -11   -1    0    0    0    0  0.00000000000E+00  0.00000000000E+00  0.45593999997E+02  0.45594000000E+02  0.51100000000E-03 0. -1.
         11   -1    0    0    0    0 -0.00000000000E+00 -0.00000000000E+00 -0.45593999997E+02  0.45594000000E+02  0.51100000000E-03 0.  1.
    9900012    2    1    2    0    0  0.14565087928E+02  0.11722495182E+02 -0.25829135319E+02  0.59302220866E+02  0.50000504884E+02 0.  0.
         12    1    1    2    0    0 -0.14565087928E+02 -0.11722495182E+02  0.25829135319E+02  0.31885779134E+02  0.00000000000E+00 0. -1.
         11    1    3    3    0    0 -0.63638806915E+01  0.30107101004E+01  0.76890608209E+01  0.10425210278E+02  0.51100000000E-03 0. -1.
        -11    1    3    3    0    0  0.12268428586E+02  0.99960115913E+01 -0.17466760508E+01  0.15921226875E+02  0.51100000000E-03 0.  1.
         12    1    3    3    0    0  0.86605400333E+01 -0.12842265094E+01 -0.31771520089E+02  0.32955783713E+02  0.00000000000E+00 0. -1.
</event>
<event>
 7    1  0.3223600E-013  0.5930195E+02  0.7816164E-02  0.1266605E+00
        -11   -1    0    0    0    0  0.00000000000E+00  0.00000000000E+00  0.45593999997E+02  0.45594000000E+02  0.51100000000E-03 0. -1.
         11   -1    0    0    0    0 -0.00000000000E+00 -0.00000000000E+00 -0.45593999997E+02  0.45594000000E+02  0.51100000000E-03 0.  1.
    9900012    2    1    2    0    0  0.61684432673E+01  0.29548517817E+02  0.10274011231E+02  0.59301954395E+02  0.50000018908E+02 0.  0.
         12    1    1    2    0    0 -0.61684432673E+01 -0.29548517817E+02 -0.10274011231E+02  0.31886045605E+02  0.00000000000E+00 0. -1.
         11    1    3    3    0    0  0.36718114571E+01  0.85921319828E+01 -0.72441905465E+00  0.93718575861E+01  0.51100000000E-03 0.  1.
        -11    1    3    3    0    0  0.15306259821E+02  0.28822257468E+02  0.12223132393E+02  0.34848372717E+02  0.51100000000E-03 0. -1.
         12    1    3    3    0    0 -0.12809628011E+02 -0.78658716341E+01 -0.12247021067E+01  0.15081724092E+02  0.00000000000E+00 0. -1.
</event>
<event>
 7    1  0.3223600E-013  0.5930191E+02  0.7816164E-02  0.1266605E+00
        -11   -1    0    0    0    0  0.00000000000E+00  0.00000000000E+00  0.45593999997E+02  0.45594000000E+02  0.51100000000E-03 0.  1.
         11   -1    0    0    0    0 -0.00000000000E+00 -0.00000000000E+00 -0.45593999997E+02  0.45594000000E+02  0.51100000000E-03 0. -1.
    9900012    2    1    2    0    0  0.12838316458E+02 -0.10949446490E+01  0.29166790643E+02  0.59301906642E+02  0.49999931817E+02 0.  0.
         12    1    1    2    0    0 -0.12838316458E+02  0.10949446490E+01 -0.29166790643E+02  0.31886093358E+02  0.00000000000E+00 0. -1.
         11    1    3    3    0    0  0.93758765140E+01  0.13401026902E+02  0.89632726517E+01  0.18650330810E+02  0.51100000000E-03 0. -1.
        -11    1    3    3    0    0  0.98105011256E+01 -0.50475515842E+00 -0.50851072733E+01  0.11061601437E+02  0.51100000000E-03 0.  1.
        -12    1    3    3    0    0 -0.63480611814E+01 -0.13991216393E+02  0.25288625264E+02  0.29589974395E+02  0.00000000000E+00 0.  1.
</event>
<event>
 7    1  0.3223600E-013  0.5930184E+02  0.7816164E-02  0.1266605E+00
        -11   -1    0    0    0    0  0.00000000000E+00  0.00000000000E+00  0.45593999997E+02  0.45594000000E+02  0.51100000000E-03 0.  1.
         11   -1    0    0    0    0 -0.00000000000E+00 -0.00000000000E+00 -0.45593999997E+02  0.45594000000E+02  0.51100000000E-03 0. -1.
    9900012    2    1    2    0    0  0.25718665842E+02 -0.91311232367E+01  0.16489396184E+02  0.59301837315E+02  0.49999805382E+02 0.  0.
         12    1    1    2    0    0 -0.25718665842E+02  0.91311232367E+01 -0.16489396184E+02  0.31886162685E+02  0.00000000000E+00 0. -1.
         11    1    3    3    0    0  0.31956872665E+02 -0.42652070054E+01  0.88213012989E+01  0.33425275739E+02  0.51100000000E-03 0. -1.
        -11    1    3    3    0    0  0.89567468302E+01 -0.27171545981E+01  0.25794081015E+01  0.97087377813E+01  0.51100000000E-03 0.  1.
         12    1    3    3    0    0 -0.15194953654E+02 -0.21487616332E+01  0.50886867831E+01  0.16167823795E+02  0.00000000000E+00 0. -1.
</event>
<event>
 7    1  0.3223600E-013  0.5930194E+02  0.7816164E-02  0.1266605E+00
        -11   -1    0    0    0    0  0.00000000000E+00  0.00000000000E+00  0.45593999997E+02  0.45594000000E+02  0.51100000000E-03 0.  1.
         11   -1    0    0    0    0 -0.00000000000E+00 -0.00000000000E+00 -0.45593999997E+02  0.45594000000E+02  0.51100000000E-03 0. -1.
    9900012    2    1    2    0    0 -0.22431068752E+00  0.23384231973E+02  0.21675980447E+02  0.59301941156E+02  0.49999994763E+02 0.  0.
         12    1    1    2    0    0  0.22431068752E+00 -0.23384231973E+02 -0.21675980447E+02  0.31886058844E+02  0.00000000000E+00 0. -1.
         11    1    3    3    0    0  0.14582742016E+02  0.63013999962E+01  0.77682989303E+01  0.17683621664E+02  0.51100000000E-03 0. -1.
        -11    1    3    3    0    0  0.43117527763E+01 -0.71288222007E+01  0.37753895599E+01  0.91468510736E+01  0.51100000000E-03 0.  1.
         12    1    3    3    0    0 -0.19118805480E+02  0.24211654178E+02  0.10132291956E+02  0.32471468419E+02  0.00000000000E+00 0. -1.
</event>
<event>
 7    1  0.3223600E-013  0.5930195E+02  0.7816164E-02  0.1266605E+00
        -11   -1    0    0    0    0  0.00000000000E+00  0.00000000000E+00  0.45593999997E+02  0.45594000000E+02  0.51100000000E-03 0. -1.
         11   -1    0    0    0    0 -0.00000000000E+00 -0.00000000000E+00 -0.45593999997E+02  0.45594000000E+02  0.51100000000E-03 0.  1.
    9900012    2    1    2    0    0 -0.17066853784E+02 -0.23584649476E+02  0.13007957555E+02  0.59301950563E+02  0.50000011919E+02 0.  0.
         12    1    1    2    0    0  0.17066853784E+02  0.23584649476E+02 -0.13007957555E+02  0.31886049437E+02  0.00000000000E+00 0. -1.
         11    1    3    3    0    0 -0.15028164327E+02 -0.65581728763E+01  0.20691501275E+02  0.26400635973E+02  0.51100000000E-03 0. -1.
        -11    1    3    3    0    0  0.99471140337E+01 -0.43068913159E+01  0.43525248667E+01  0.11680704747E+02  0.51100000000E-03 0.  1.
        -12    1    3    3    0    0 -0.11985803490E+02 -0.12719585283E+02 -0.12036068587E+02  0.21220609843E+02  0.00000000000E+00 0.  1.
</event>
<event>
 7    1  0.3223600E-013  0.5930194E+02  0.7816164E-02  0.1266605E+00
        -11   -1    0    0    0    0  0.00000000000E+00  0.00000000000E+00  0.45593999997E+02  0.45594000000E+02  0.51100000000E-03 0. -1.
         11   -1    0    0    0    0 -0.00000000000E+00 -0.00000000000E+00 -0.45593999997E+02  0.45594000000E+02  0.51100000000E-03 0.  1.
    9900012    2    1    2    0    0 -0.16761138210E+02  0.36578687364E+01 -0.26877597052E+02  0.59301937511E+02  0.49999988115E+02 0.  0.
         12    1    1    2    0    0  0.16761138210E+02 -0.36578687364E+01  0.26877597052E+02  0.31886062489E+02  0.00000000000E+00 0. -1.
         11    1    3    3    0    0 -0.15166170032E+02  0.27092654544E+01 -0.10813019704E+02  0.18822173842E+02  0.51100000000E-03 0.  1.
        -11    1    3    3    0    0 -0.16043411900E+02  0.77619120589E-01  0.32237676677E+01  0.16364283313E+02  0.51100000000E-03 0. -1.
        -12    1    3    3    0    0  0.14448443722E+02  0.87098416146E+00 -0.19288345015E+02  0.24115480357E+02  0.00000000000E+00 0.  1.
</event>
<event>
 7    1  0.3223600E-013  0.5930195E+02  0.7816164E-02  0.1266605E+00
        -11   -1    0    0    0    0  0.00000000000E+00  0.00000000000E+00  0.45593999997E+02  0.45594000000E+02  0.51100000000E-03 0.  1.
         11   -1    0    0    0    0 -0.00000000000E+00 -0.00000000000E+00 -0.45593999997E+02  0.45594000000E+02  0.51100000000E-03 0. -1.
    9900012    2    1    2    0    0  0.21878958100E+02  0.20062655476E+02  0.11641372130E+02  0.59301945095E+02  0.50000001947E+02 0.  0.
         12    1    1    2    0    0 -0.21878958100E+02 -0.20062655476E+02 -0.11641372130E+02  0.31886054905E+02  0.00000000000E+00 0. -1.
         11    1    3    3    0    0  0.13351952329E+02  0.13086118041E+01  0.16349165469E+02  0.21149049805E+02  0.51100000000E-03 0. -1.
        -11    1    3    3    0    0 -0.95500198293E+01  0.46263632659E+01  0.66803098087E+01  0.12539244603E+02  0.51100000000E-03 0.  1.
         12    1    3    3    0    0  0.18077025601E+02  0.14127680406E+02 -0.11388103148E+02  0.25613650688E+02  0.00000000000E+00 0. -1.
</event>
<event>
 7    1  0.3223600E-013  0.5930194E+02  0.7816164E-02  0.1266605E+00
        -11   -1    0    0    0    0  0.00000000000E+00  0.00000000000E+00  0.45593999997E+02  0.45594000000E+02  0.51100000000E-03 0.  1.
         11   -1    0    0    0    0 -0.00000000000E+00 -0.00000000000E+00 -0.45593999997E+02  0.45594000000E+02  0.51100000000E-03 0. -1.
    9900012    2    1    2    0    0 -0.30915180159E+02 -0.75141579731E+01 -0.21236520636E+01  0.59301939842E+02  0.49999992366E+02 0.  0.
         12    1    1    2    0    0  0.30915180159E+02  0.75141579731E+01  0.21236520636E+01  0.31886060158E+02  0.00000000000E+00 0. -1.
         11    1    3    3    0    0 -0.51114937893E+01 -0.64476750116E+01 -0.71522094310E+01  0.10902017328E+02  0.51100000000E-03 0. -1.
        -11    1    3    3    0    0 -0.29531193588E+02  0.29454643932E+01  0.17728383699E+02  0.34569679548E+02  0.51100000000E-03 0.  1.
         12    1    3    3    0    0  0.37275072180E+01 -0.40119473547E+01 -0.12699826332E+02  0.13830242966E+02  0.00000000000E+00 0. -1.
</event>
<event>
 7    1  0.3223600E-013  0.5930196E+02  0.7816164E-02  0.1266605E+00
        -11   -1    0    0    0    0  0.00000000000E+00  0.00000000000E+00  0.45593999997E+02  0.45594000000E+02  0.51100000000E-03 0. -1.
         11   -1    0    0    0    0 -0.00000000000E+00 -0.00000000000E+00 -0.45593999997E+02  0.45594000000E+02  0.51100000000E-03 0.  1.
    9900012    2    1    2    0    0 -0.22511032056E+02  0.81516248360E+00 -0.22567861497E+02  0.59301961885E+02  0.50000032568E+02 0.  0.
         12    1    1    2    0    0  0.22511032056E+02 -0.81516248360E+00  0.22567861497E+02  0.31886038115E+02  0.00000000000E+00 0. -1.
         11    1    3    3    0    0  0.15824192133E+01 -0.15358842650E+01  0.48193402800E+01  0.52999086820E+01  0.51100000000E-03 0. -1.
        -11    1    3    3    0    0  0.34514532814E+01 -0.81346409058E+01  0.50474394845E+01  0.10176519937E+02  0.51100000000E-03 0.  1.
        -12    1    3    3    0    0 -0.27544904551E+02  0.10485687654E+02 -0.32434641261E+02  0.43825533266E+02  0.00000000000E+00 0.  1.
</event>
<event>
 7    1  0.3223600E-013  0.5930196E+02  0.7816164E-02  0.1266605E+00
        -11   -1    0    0    0    0  0.00000000000E+00  0.00000000000E+00  0.45593999997E+02  0.45594000000E+02  0.51100000000E-03 0. -1.
         11   -1    0    0    0    0 -0.00000000000E+00 -0.00000000000E+00 -0.45593999997E+02  0.45594000000E+02  0.51100000000E-03 0.  1.
    9900012    2    1    2    0    0 -0.28489839207E+02 -0.18080229126E+01 -0.14204916819E+02  0.59301960002E+02  0.50000029134E+02 0.  0.
         12    1    1    2    0    0  0.28489839207E+02  0.18080229126E+01  0.14204916819E+02  0.31886039998E+02  0.00000000000E+00 0. -1.
         11    1    3    3    0    0  0.43673694766E+01 -0.13910572329E+02 -0.17110094577E+02  0.22479619111E+02  0.51100000000E-03 0. -1.
        -11    1    3    3    0    0 -0.53374140154E+01 -0.19351014446E+01 -0.69599181153E+00  0.57198785682E+01  0.51100000000E-03 0.  1.
        -12    1    3    3    0    0 -0.27519794668E+02  0.14037650861E+02  0.36011695694E+01  0.31102462323E+02  0.00000000000E+00 0.  1.
</event>
<event>
 7    1  0.3223600E-013  0.5930194E+02  0.7816164E-02  0.1266605E+00
        -11   -1    0    0    0    0  0.00000000000E+00  0.00000000000E+00  0.45593999997E+02  0.45594000000E+02  0.51100000000E-03 0.  1.
         11   -1    0    0    0    0 -0.00000000000E+00 -0.00000000000E+00 -0.45593999997E+02  0.45594000000E+02  0.51100000000E-03 0. -1.
    9900012    2    1    2    0    0 -0.57492774164E+01 -0.32750536569E+01  0.31191992495E+02  0.59301944066E+02  0.50000000069E+02 0.  0.
         12    1    1    2    0    0  0.57492774164E+01  0.32750536569E+01 -0.31191992495E+02  0.31886055934E+02  0.00000000000E+00 0. -1.
         11    1    3    3    0    0 -0.21193124639E+00 -0.13912815748E+01  0.61269542559E+01  0.62865052286E+01  0.51100000000E-03 0. -1.
        -11    1    3    3    0    0 -0.22530076450E+02 -0.11355361049E+02  0.21687960108E+02  0.33270349912E+02  0.51100000000E-03 0.  1.
         12    1    3    3    0    0  0.16992730280E+02  0.94715889673E+01  0.33770781311E+01  0.19745088924E+02  0.00000000000E+00 0. -1.
</event>
<event>
 7    1  0.3223600E-013  0.5930198E+02  0.7816164E-02  0.1266605E+00
        -11   -1    0    0    0    0  0.00000000000E+00  0.00000000000E+00  0.45593999997E+02  0.45594000000E+02  0.51100000000E-03 0. -1.
         11   -1    0    0    0    0 -0.00000000000E+00 -0.00000000000E+00 -0.45593999997E+02  0.45594000000E+02  0.51100000000E-03 0.  1.
    9900012    2    1    2    0    0  0.66940309503E+01 -0.28054197819E+02 -0.13596693641E+02  0.59301982005E+02  0.50000069261E+02 0.  0.
         12    1    1    2    0    0 -0.66940309503E+01  0.28054197819E+02  0.13596693641E+02  0.31886017995E+02  0.00000000000E+00 0. -1.
         11    1    3    3    0    0  0.64247643658E+01  0.53569446294E+00  0.89771243767E+00  0.65092590666E+01  0.51100000000E-03 0. -1.
        -11    1    3    3    0    0 -0.68794028935E+01 -0.33043555448E+02  0.24805563098E+01  0.33843107137E+02  0.51100000000E-03 0.  1.
         12    1    3    3    0    0  0.71486694779E+01  0.44536631664E+01 -0.16974962389E+02  0.18949615801E+02  0.00000000000E+00 0. -1.
</event>
<event>
 7    1  0.3223600E-013  0.5930194E+02  0.7816164E-02  0.1266605E+00
        -11   -1    0    0    0    0  0.00000000000E+00  0.00000000000E+00  0.45593999997E+02  0.45594000000E+02  0.51100000000E-03 0.  1.
         11   -1    0    0    0    0 -0.00000000000E+00 -0.00000000000E+00 -0.45593999997E+02  0.45594000000E+02  0.51100000000E-03 0. -1.
    9900012    2    1    2    0    0 -0.29191986619E+02 -0.31244910576E+01  0.12441309573E+02  0.59301941745E+02  0.49999995837E+02 0.  0.
         12    1    1    2    0    0  0.29191986619E+02  0.31244910576E+01 -0.12441309573E+02  0.31886058255E+02  0.00000000000E+00 0. -1.
         11    1    3    3    0    0 -0.13744185929E+02  0.10983624180E+02 -0.58946130043E+01  0.18555029230E+02  0.51100000000E-03 0. -1.
        -11    1    3    3    0    0 -0.18594131002E+02  0.29312208150E+01  0.11862555692E+02  0.22249808786E+02  0.51100000000E-03 0.  1.
        -12    1    3    3    0    0  0.31463303119E+01 -0.17039336053E+02  0.64733668853E+01  0.18497103730E+02  0.00000000000E+00 0.  1.
</event>
<event>
 7    1  0.3223600E-013  0.5930195E+02  0.7816164E-02  0.1266605E+00
        -11   -1    0    0    0    0  0.00000000000E+00  0.00000000000E+00  0.45593999997E+02  0.45594000000E+02  0.51100000000E-03 0.  1.
         11   -1    0    0    0    0 -0.00000000000E+00 -0.00000000000E+00 -0.45593999997E+02  0.45594000000E+02  0.51100000000E-03 0. -1.
    9900012    2    1    2    0    0 -0.80760662162E+01 -0.14853187743E+02  0.27034789418E+02  0.59301954925E+02  0.50000019875E+02 0.  0.
         12    1    1    2    0    0  0.80760662162E+01  0.14853187743E+02 -0.27034789418E+02  0.31886045075E+02  0.00000000000E+00 0. -1.
         11    1    3    3    0    0  0.63312907178E+01  0.59937899159E+01  0.40387907874E+01  0.96084645493E+01  0.51100000000E-03 0.  1.
        -11    1    3    3    0    0  0.10427887569E+02 -0.13787834989E+02  0.14344601415E+02  0.22463588824E+02  0.51100000000E-03 0. -1.
        -12    1    3    3    0    0 -0.24835244503E+02 -0.70591426701E+01  0.86513972155E+01  0.27229901552E+02  0.00000000000E+00 0.  1.
</event>
<event>
 7    1  0.3223600E-013  0.5930192E+02  0.7816164E-02  0.1266605E+00
        -11   -1    0    0    0    0  0.00000000000E+00  0.00000000000E+00  0.45593999997E+02  0.45594000000E+02  0.51100000000E-03 0. -1.
         11   -1    0    0    0    0 -0.00000000000E+00 -0.00000000000E+00 -0.45593999997E+02  0.45594000000E+02  0.51100000000E-03 0.  1.
    9900012    2    1    2    0    0 -0.67160591167E+01  0.19890675367E+02 -0.23999529816E+02  0.59301923917E+02  0.49999963322E+02 0.  0.
         12    1    1    2    0    0  0.67160591167E+01 -0.19890675367E+02  0.23999529816E+02  0.31886076083E+02  0.00000000000E+00 0. -1.
         11    1    3    3    0    0  0.78788875140E+01  0.15540832865E+02  0.61558353845E+01  0.18479411899E+02  0.51100000000E-03 0. -1.
        -11    1    3    3    0    0  0.57792938664E+01  0.41864244803E+01 -0.74886759906E+01  0.10344402152E+02  0.51100000000E-03 0.  1.
         12    1    3    3    0    0 -0.20374240497E+02  0.16341802204E+00 -0.22666689209E+02  0.30478109866E+02  0.00000000000E+00 0. -1.
</event>
<event>
 7    1  0.3223600E-013  0.5930193E+02  0.7816164E-02  0.1266605E+00
        -11   -1    0    0    0    0  0.00000000000E+00  0.00000000000E+00  0.45593999997E+02  0.45594000000E+02  0.51100000000E-03 0.  1.
         11   -1    0    0    0    0 -0.00000000000E+00 -0.00000000000E+00 -0.45593999997E+02  0.45594000000E+02  0.51100000000E-03 0. -1.
    9900012    2    1    2    0    0  0.49901997070E+01 -0.27405670013E+01  0.31373689052E+02  0.59301934621E+02  0.49999982845E+02 0.  0.
         12    1    1    2    0    0 -0.49901997070E+01  0.27405670013E+01 -0.31373689052E+02  0.31886065379E+02  0.00000000000E+00 0. -1.
         11    1    3    3    0    0  0.20421135249E+01  0.54794598171E+01  0.22623994664E+02  0.23367495423E+02  0.51100000000E-03 0. -1.
        -11    1    3    3    0    0  0.11065355952E+02 -0.84651102730E+01  0.18554761021E+02  0.23203003062E+02  0.51100000000E-03 0.  1.
         12    1    3    3    0    0 -0.81172697701E+01  0.24508345457E+00 -0.98050666331E+01  0.12731436137E+02  0.00000000000E+00 0. -1.
</event>
<event>
 7    1  0.3223600E-013  0.5930193E+02  0.7816164E-02  0.1266605E+00
        -11   -1    0    0    0    0  0.00000000000E+00  0.00000000000E+00  0.45593999997E+02  0.45594000000E+02  0.51100000000E-03 0. -1.
         11   -1    0    0    0    0 -0.00000000000E+00 -0.00000000000E+00 -0.45593999997E+02  0.45594000000E+02  0.51100000000E-03 0.  1.
    9900012    2    1    2    0    0  0.36927195836E+01  0.24664525632E+02 -0.19868229001E+02  0.59301928962E+02  0.49999972524E+02 0.  0.
         12    1    1    2    0    0 -0.36927195836E+01 -0.24664525632E+02  0.19868229001E+02  0.31886071038E+02  0.00000000000E+00 0. -1.
         11    1    3    3    0    0  0.49424687718E+01  0.14808928662E+02 -0.48730122688E+01  0.16354773447E+02  0.51100000000E-03 0. -1.
        -11    1    3    3    0    0 -0.25011661856E+01  0.18777506394E+02 -0.23753595420E+02  0.30382295409E+02  0.51100000000E-03 0.  1.
         12    1    3    3    0    0  0.12514169974E+01 -0.89219094233E+01  0.87583786876E+01  0.12564860106E+02  0.00000000000E+00 0. -1.
</event>
<event>
 7    1  0.3223600E-013  0.5930194E+02  0.7816164E-02  0.1266605E+00
        -11   -1    0    0    0    0  0.00000000000E+00  0.00000000000E+00  0.45593999997E+02  0.45594000000E+02  0.51100000000E-03 0.  1.
         11   -1    0    0    0    0 -0.00000000000E+00 -0.00000000000E+00 -0.45593999997E+02  0.45594000000E+02  0.51100000000E-03 0. -1.
    9900012    2    1    2    0    0  0.10731404400E+02 -0.10577065301E+02  0.28101306831E+02  0.59301940407E+02  0.49999993396E+02 0.  0.
         12    1    1    2    0    0 -0.10731404400E+02  0.10577065301E+02 -0.28101306831E+02  0.31886059593E+02  0.00000000000E+00 0. -1.
         11    1    3    3    0    0 -0.75426743375E+01 -0.58600846138E+01  0.33013090973E+01  0.10105996728E+02  0.51100000000E-03 0. -1.
        -11    1    3    3    0    0  0.60402436984E+01 -0.78811800678E+01  0.32779870636E+02  0.34250802361E+02  0.51100000000E-03 0.  1.
        -12    1    3    3    0    0  0.12233835039E+02  0.31641993810E+01 -0.79798729024E+01  0.14945141318E+02  0.00000000000E+00 0.  1.
</event>
<event>
 7    1  0.3223600E-013  0.5930194E+02  0.7816164E-02  0.1266605E+00
        -11   -1    0    0    0    0  0.00000000000E+00  0.00000000000E+00  0.45593999997E+02  0.45594000000E+02  0.51100000000E-03 0. -1.
         11   -1    0    0    0    0 -0.00000000000E+00 -0.00000000000E+00 -0.45593999997E+02  0.45594000000E+02  0.51100000000E-03 0.  1.
    9900012    2    1    2    0    0  0.19151494325E+02 -0.25452350703E+02 -0.14556094877E+01  0.59301942072E+02  0.49999996433E+02 0.  0.
         12    1    1    2    0    0 -0.19151494325E+02  0.25452350703E+02  0.14556094877E+01  0.31886057928E+02  0.00000000000E+00 0. -1.
         11    1    3    3    0    0 -0.49597912370E+01  0.28260314722E+01 -0.34667807752E+01  0.66786639533E+01  0.51100000000E-03 0. -1.
        -11    1    3    3    0    0  0.63449465284E+01 -0.26616248672E+02 -0.12056887583E+02  0.29900695281E+02  0.51100000000E-03 0.  1.
         12    1    3    3    0    0  0.17766339034E+02 -0.16621335035E+01  0.14068058871E+02  0.22722582838E+02  0.00000000000E+00 0. -1.
</event>
<event>
 7    1  0.3223600E-013  0.5930193E+02  0.7816164E-02  0.1266605E+00
        -11   -1    0    0    0    0  0.00000000000E+00  0.00000000000E+00  0.45593999997E+02  0.45594000000E+02  0.51100000000E-03 0.  1.
         11   -1    0    0    0    0 -0.00000000000E+00 -0.00000000000E+00 -0.45593999997E+02  0.45594000000E+02  0.51100000000E-03 0. -1.
    9900012    2    1    2    0    0 -0.11733668898E+00  0.13234081887E+02  0.29009768023E+02  0.59301932008E+02  0.49999978078E+02 0.  0.
         12    1    1    2    0    0  0.11733668898E+00 -0.13234081887E+02 -0.29009768023E+02  0.31886067992E+02  0.00000000000E+00 0. -1.
         11    1    3    3    0    0 -0.56928522161E+01  0.24703732437E+02  0.14345429029E+02  0.29128582131E+02  0.51100000000E-03 0. -1.
        -11    1    3    3    0    0  0.28500765187E+01  0.34802563081E+01  0.14280459221E+02  0.14972195429E+02  0.51100000000E-03 0.  1.
        -12    1    3    3    0    0  0.27254390085E+01 -0.14949906858E+02  0.38387977262E+00  0.15201154448E+02  0.00000000000E+00 0.  1.
</event>
<event>
 7    1  0.3223600E-013  0.5930195E+02  0.7816164E-02  0.1266605E+00
        -11   -1    0    0    0    0  0.00000000000E+00  0.00000000000E+00  0.45593999997E+02  0.45594000000E+02  0.51100000000E-03 0.  1.
         11   -1    0    0    0    0 -0.00000000000E+00 -0.00000000000E+00 -0.45593999997E+02  0.45594000000E+02  0.51100000000E-03 0. -1.
    9900012    2    1    2    0    0 -0.22146160415E+02  0.12083928907E+02  0.19499901847E+02  0.59301953977E+02  0.50000018144E+02 0.  0.
         12    1    1    2    0    0  0.22146160415E+02 -0.12083928907E+02 -0.19499901847E+02  0.31886046023E+02  0.00000000000E+00 0. -1.
         11    1    3    3    0    0 -0.12387621588E+02 -0.87522808390E+01  0.12095257342E+01  0.15215733346E+02  0.51100000000E-03 0. -1.
        -11    1    3    3    0    0 -0.10821125457E+02  0.94317611928E+01 -0.72599311055E+01  0.16086064630E+02  0.51100000000E-03 0.  1.
        -12    1    3    3    0    0  0.10625866293E+01  0.11404448553E+02  0.25550307218E+02  0.28000156001E+02  0.00000000000E+00 0.  1.
</event>
<event>
 7    1  0.3223600E-013  0.5930212E+02  0.7816164E-02  0.1266604E+00
        -11   -1    0    0    0    0  0.00000000000E+00  0.00000000000E+00  0.45593999997E+02  0.45594000000E+02  0.51100000000E-03 0. -1.
         11   -1    0    0    0    0 -0.00000000000E+00 -0.00000000000E+00 -0.45593999997E+02  0.45594000000E+02  0.51100000000E-03 0.  1.
    9900012    2    1    2    0    0 -0.20984153796E+01 -0.31800655810E+02 -0.10120217469E+01  0.59302121542E+02  0.50000323742E+02 0.  0.
         12    1    1    2    0    0  0.20984153796E+01  0.31800655810E+02  0.10120217469E+01  0.31885878458E+02  0.00000000000E+00 0. -1.
         11    1    3    3    0    0 -0.97672729851E+01 -0.15877732214E+02 -0.14470119448E+02  0.23598439756E+02  0.51100000000E-03 0. -1.
        -11    1    3    3    0    0 -0.38993819785E+01  0.14509716458E+01 -0.59110088009E+01  0.72284523819E+01  0.51100000000E-03 0.  1.
         12    1    3    3    0    0  0.11568239584E+02 -0.17373895242E+02  0.19369106502E+02  0.28475229404E+02  0.00000000000E+00 0. -1.
</event>
<event>
 7    1  0.3223600E-013  0.5930196E+02  0.7816164E-02  0.1266605E+00
        -11   -1    0    0    0    0  0.00000000000E+00  0.00000000000E+00  0.45593999997E+02  0.45594000000E+02  0.51100000000E-03 0. -1.
         11   -1    0    0    0    0 -0.00000000000E+00 -0.00000000000E+00 -0.45593999997E+02  0.45594000000E+02  0.51100000000E-03 0.  1.
    9900012    2    1    2    0    0 -0.62476236198E+01 -0.27547264683E+02 -0.14793064891E+02  0.59301962911E+02  0.50000034438E+02 0.  0.
         12    1    1    2    0    0  0.62476236198E+01  0.27547264683E+02  0.14793064891E+02  0.31886037089E+02  0.00000000000E+00 0. -1.
         11    1    3    3    0    0  0.39298701126E+01 -0.11269325836E+02  0.34054560898E+01  0.12411233434E+02  0.51100000000E-03 0. -1.
        -11    1    3    3    0    0 -0.12662886880E+02 -0.40116712449E+01  0.96104417961E+01  0.16395206680E+02  0.51100000000E-03 0.  1.
         12    1    3    3    0    0  0.24853931472E+01 -0.12266267601E+02 -0.27808962776E+02  0.30495522797E+02  0.00000000000E+00 0. -1.
</event>
<event>
 7    1  0.3223600E-013  0.5930192E+02  0.7816164E-02  0.1266605E+00
        -11   -1    0    0    0    0  0.00000000000E+00  0.00000000000E+00  0.45593999997E+02  0.45594000000E+02  0.51100000000E-03 0. -1.
         11   -1    0    0    0    0 -0.00000000000E+00 -0.00000000000E+00 -0.45593999997E+02  0.45594000000E+02  0.51100000000E-03 0.  1.
    9900012    2    1    2    0    0 -0.14123914823E+02  0.26509059309E+02  0.10700776754E+02  0.59301924379E+02  0.49999964165E+02 0.  0.
         12    1    1    2    0    0  0.14123914823E+02 -0.26509059309E+02 -0.10700776754E+02  0.31886075621E+02  0.00000000000E+00 0. -1.
         11    1    3    3    0    0 -0.24904774681E+02 -0.37591233328E+00  0.43431328158E+01  0.25283431629E+02  0.51100000000E-03 0. -1.
        -11    1    3    3    0    0 -0.19937148883E+01  0.44861298915E+01 -0.38976993755E+01  0.62683587280E+01  0.51100000000E-03 0.  1.
        -12    1    3    3    0    0  0.12774574747E+02  0.22398841751E+02  0.10255343314E+02  0.27750134022E+02  0.00000000000E+00 0.  1.
</event>
<event>
 7    1  0.3223600E-013  0.5930196E+02  0.7816164E-02  0.1266605E+00
        -11   -1    0    0    0    0  0.00000000000E+00  0.00000000000E+00  0.45593999997E+02  0.45594000000E+02  0.51100000000E-03 0.  1.
         11   -1    0    0    0    0 -0.00000000000E+00 -0.00000000000E+00 -0.45593999997E+02  0.45594000000E+02  0.51100000000E-03 0. -1.
    9900012    2    1    2    0    0  0.34198178966E+00  0.53800120181E+01  0.31427030615E+02  0.59301957064E+02  0.50000023774E+02 0.  0.
         12    1    1    2    0    0 -0.34198178966E+00 -0.53800120181E+01 -0.31427030615E+02  0.31886042936E+02  0.00000000000E+00 0. -1.
         11    1    3    3    0    0 -0.13987856254E+01 -0.12126920765E+01  0.12177184777E+00  0.18552767831E+01  0.51100000000E-03 0. -1.
        -11    1    3    3    0    0  0.90102374380E+01  0.63226562959E+01  0.42607161213E+02  0.44006028544E+02  0.51100000000E-03 0.  1.
        -12    1    3    3    0    0 -0.72694700230E+01  0.27004779864E+00 -0.11301902445E+02  0.13440651737E+02  0.00000000000E+00 0.  1.
</event>
<event>
 7    1  0.3223600E-013  0.5930196E+02  0.7816164E-02  0.1266605E+00
        -11   -1    0    0    0    0  0.00000000000E+00  0.00000000000E+00  0.45593999997E+02  0.45594000000E+02  0.51100000000E-03 0. -1.
         11   -1    0    0    0    0 -0.00000000000E+00 -0.00000000000E+00 -0.45593999997E+02  0.45594000000E+02  0.51100000000E-03 0.  1.
    9900012    2    1    2    0    0 -0.24076905421E+02  0.20902829150E+02  0.30620295617E+00  0.59301962282E+02  0.50000033291E+02 0.  0.
         12    1    1    2    0    0  0.24076905421E+02 -0.20902829150E+02 -0.30620295617E+00  0.31886037718E+02  0.00000000000E+00 0. -1.
         11    1    3    3    0    0 -0.21201941795E+02  0.85153797444E+01  0.38577862436E+00  0.22851320607E+02  0.51100000000E-03 0. -1.
        -11    1    3    3    0    0 -0.14221650616E+02  0.11823286825E+02  0.10207654039E+02  0.21124432746E+02  0.51100000000E-03 0.  1.
         12    1    3    3    0    0  0.11346686990E+02  0.56416258044E+00 -0.10287229708E+02  0.15326208929E+02  0.00000000000E+00 0. -1.
</event>
<event>
 7    1  0.3223600E-013  0.5930221E+02  0.7816164E-02  0.1266604E+00
        -11   -1    0    0    0    0  0.00000000000E+00  0.00000000000E+00  0.45593999997E+02  0.45594000000E+02  0.51100000000E-03 0. -1.
         11   -1    0    0    0    0 -0.00000000000E+00 -0.00000000000E+00 -0.45593999997E+02  0.45594000000E+02  0.51100000000E-03 0.  1.
    9900012    2    1    2    0    0 -0.27085656027E+02 -0.19369312406E+01 -0.16712847788E+02  0.59302207769E+02  0.50000480998E+02 0.  0.
         12    1    1    2    0    0  0.27085656027E+02  0.19369312406E+01  0.16712847788E+02  0.31885792231E+02  0.00000000000E+00 0. -1.
         11    1    3    3    0    0 -0.76541027474E+01  0.97321280202E+01  0.61304698544E+01  0.13816014822E+02  0.51100000000E-03 0. -1.
        -11    1    3    3    0    0  0.72405952043E+01  0.31200697685E+01 -0.90835495128E+01  0.12027964345E+02  0.51100000000E-03 0.  1.
         12    1    3    3    0    0 -0.26672148484E+02 -0.14789129029E+02 -0.13759768129E+02  0.33458228602E+02  0.00000000000E+00 0. -1.
</event>
<event>
 7    1  0.3223600E-013  0.5930193E+02  0.7816164E-02  0.1266605E+00
        -11   -1    0    0    0    0  0.00000000000E+00  0.00000000000E+00  0.45593999997E+02  0.45594000000E+02  0.51100000000E-03 0. -1.
         11   -1    0    0    0    0 -0.00000000000E+00 -0.00000000000E+00 -0.45593999997E+02  0.45594000000E+02  0.51100000000E-03 0.  1.
    9900012    2    1    2    0    0 -0.20554495415E+02  0.99975323576E+01  0.22232490606E+02  0.59301928220E+02  0.49999971171E+02 0.  0.
         12    1    1    2    0    0  0.20554495415E+02 -0.99975323576E+01 -0.22232490606E+02  0.31886071780E+02  0.00000000000E+00 0. -1.
         11    1    3    3    0    0 -0.29177006057E+02  0.95499825464E+01  0.24821929251E+02  0.39479463283E+02  0.51100000000E-03 0.  1.
        -11    1    3    3    0    0  0.34124747834E+01 -0.72705072993E+01  0.34311336742E+01  0.87337242393E+01  0.51100000000E-03 0. -1.
        -12    1    3    3    0    0  0.52100358587E+01  0.77180571105E+01 -0.60205723194E+01  0.11088740698E+02  0.00000000000E+00 0.  1.
</event>
<event>
 7    1  0.3223600E-013  0.5930194E+02  0.7816164E-02  0.1266605E+00
        -11   -1    0    0    0    0  0.00000000000E+00  0.00000000000E+00  0.45593999997E+02  0.45594000000E+02  0.51100000000E-03 0.  1.
         11   -1    0    0    0    0 -0.00000000000E+00 -0.00000000000E+00 -0.45593999997E+02  0.45594000000E+02  0.51100000000E-03 0. -1.
    9900012    2    1    2    0    0  0.67488486578E+01 -0.23958803456E+02  0.19928608188E+02  0.59301942772E+02  0.49999997709E+02 0.  0.
         12    1    1    2    0    0 -0.67488486578E+01  0.23958803456E+02 -0.19928608188E+02  0.31886057228E+02  0.00000000000E+00 0. -1.
         11    1    3    3    0    0  0.12628136141E+02 -0.37429219951E+02  0.13837044356E+02  0.41855467090E+02  0.51100000000E-03 0.  1.
        -11    1    3    3    0    0 -0.68943388189E+00 -0.49302044671E-01  0.24058735723E+01  0.25031934956E+01  0.51100000000E-03 0. -1.
        -12    1    3    3    0    0 -0.51898536017E+01  0.13519718540E+02  0.36856902591E+01  0.14943282186E+02  0.00000000000E+00 0.  1.
</event>
<event>
 7    1  0.3223600E-013  0.5930193E+02  0.7816164E-02  0.1266605E+00
        -11   -1    0    0    0    0  0.00000000000E+00  0.00000000000E+00  0.45593999997E+02  0.45594000000E+02  0.51100000000E-03 0.  1.
         11   -1    0    0    0    0 -0.00000000000E+00 -0.00000000000E+00 -0.45593999997E+02  0.45594000000E+02  0.51100000000E-03 0. -1.
    9900012    2    1    2    0    0 -0.27140277321E+01  0.36453889810E+01  0.31560519928E+02  0.59301933678E+02  0.49999981125E+02 0.  0.
         12    1    1    2    0    0  0.27140277321E+01 -0.36453889810E+01 -0.31560519928E+02  0.31886066322E+02  0.00000000000E+00 0. -1.
         11    1    3    3    0    0 -0.88075369186E+01 -0.12269486908E+02  0.88560297971E+01  0.17508348854E+02  0.51100000000E-03 0. -1.
        -11    1    3    3    0    0  0.42449768617E+01  0.47075887011E+01  0.28391648088E+02  0.29090666912E+02  0.51100000000E-03 0.  1.
        -12    1    3    3    0    0  0.18485323247E+01  0.11207287188E+02 -0.56871579573E+01  0.12702917913E+02  0.00000000000E+00 0.  1.
</event>
<event>
 7    1  0.3223600E-013  0.5930197E+02  0.7816164E-02  0.1266605E+00
        -11   -1    0    0    0    0  0.00000000000E+00  0.00000000000E+00  0.45593999997E+02  0.45594000000E+02  0.51100000000E-03 0.  1.
         11   -1    0    0    0    0 -0.00000000000E+00 -0.00000000000E+00 -0.45593999997E+02  0.45594000000E+02  0.51100000000E-03 0. -1.
    9900012    2    1    2    0    0 -0.24091591931E+02 -0.17465237235E+02  0.11457722904E+02  0.59301972847E+02  0.50000052559E+02 0.  0.
         12    1    1    2    0    0  0.24091591931E+02  0.17465237235E+02 -0.11457722904E+02  0.31886027153E+02  0.00000000000E+00 0. -1.
         11    1    3    3    0    0  0.52585828705E+01 -0.37057618323E+01  0.63169541863E+01  0.90160565113E+01  0.51100000000E-03 0. -1.
        -11    1    3    3    0    0 -0.29417357901E+01 -0.84544411222E+00  0.17957520865E+02  0.18216507379E+02  0.51100000000E-03 0.  1.
         12    1    3    3    0    0 -0.26408439012E+02 -0.12914031290E+02 -0.12816752147E+02  0.32069408956E+02  0.00000000000E+00 0. -1.
</event>
<event>
 7    1  0.3223600E-013  0.5930193E+02  0.7816164E-02  0.1266605E+00
        -11   -1    0    0    0    0  0.00000000000E+00  0.00000000000E+00  0.45593999997E+02  0.45594000000E+02  0.51100000000E-03 0.  1.
         11   -1    0    0    0    0 -0.00000000000E+00 -0.00000000000E+00 -0.45593999997E+02  0.45594000000E+02  0.51100000000E-03 0. -1.
    9900012    2    1    2    0    0  0.10092408306E+02  0.43123631540E+01  0.29937737197E+02  0.59301932668E+02  0.49999979283E+02 0.  0.
         12    1    1    2    0    0 -0.10092408306E+02 -0.43123631540E+01 -0.29937737197E+02  0.31886067332E+02  0.00000000000E+00 0. -1.
         11    1    3    3    0    0  0.14091684631E+02 -0.17160447788E+02  0.56441181051E+01  0.22910971465E+02  0.51100000000E-03 0. -1.
        -11    1    3    3    0    0 -0.34254740207E+01 -0.15572701822E+01  0.17191477943E+01  0.41369592803E+01  0.51100000000E-03 0.  1.
         12    1    3    3    0    0 -0.57380230452E+00  0.23030081124E+02  0.22574471298E+02  0.32254001923E+02  0.00000000000E+00 0. -1.
</event>
<event>
 7    1  0.3223600E-013  0.5930196E+02  0.7816164E-02  0.1266605E+00
        -11   -1    0    0    0    0  0.00000000000E+00  0.00000000000E+00  0.45593999997E+02  0.45594000000E+02  0.51100000000E-03 0.  1.
         11   -1    0    0    0    0 -0.00000000000E+00 -0.00000000000E+00 -0.45593999997E+02  0.45594000000E+02  0.51100000000E-03 0. -1.
    9900012    2    1    2    0    0 -0.14094086000E+02  0.22344343761E+02 -0.17855160750E+02  0.59301957228E+02  0.50000024074E+02 0.  0.
         12    1    1    2    0    0  0.14094086000E+02 -0.22344343761E+02  0.17855160750E+02  0.31886042772E+02  0.00000000000E+00 0. -1.
         11    1    3    3    0    0  0.68103440701E+01  0.17007941721E+02 -0.29153867241E+00  0.18323096436E+02  0.51100000000E-03 0.  1.
        -11    1    3    3    0    0 -0.23369370110E+02  0.12120247723E+02 -0.20317038568E+02  0.33253720403E+02  0.51100000000E-03 0. -1.
         12    1    3    3    0    0  0.24649400400E+01 -0.67838456833E+01  0.27534164909E+01  0.77251403888E+01  0.00000000000E+00 0. -1.
</event>
<event>
 7    1  0.3223600E-013  0.5930194E+02  0.7816164E-02  0.1266605E+00
        -11   -1    0    0    0    0  0.00000000000E+00  0.00000000000E+00  0.45593999997E+02  0.45594000000E+02  0.51100000000E-03 0. -1.
         11   -1    0    0    0    0 -0.00000000000E+00 -0.00000000000E+00 -0.45593999997E+02  0.45594000000E+02  0.51100000000E-03 0.  1.
    9900012    2    1    2    0    0  0.96557450579E+01 -0.29432480772E+02 -0.75641673898E+01  0.59301937758E+02  0.49999988566E+02 0.  0.
         12    1    1    2    0    0 -0.96557450579E+01  0.29432480772E+02  0.75641673898E+01  0.31886062242E+02  0.00000000000E+00 0. -1.
         11    1    3    3    0    0  0.77905663411E+01 -0.35401302341E+01 -0.76368695106E+01  0.11469403741E+02  0.51100000000E-03 0. -1.
        -11    1    3    3    0    0  0.20201822536E+02 -0.19809297597E+02 -0.22056403048E+01  0.28379336752E+02  0.51100000000E-03 0.  1.
         12    1    3    3    0    0 -0.18336643819E+02 -0.60830529405E+01  0.22783424257E+01  0.19453197265E+02  0.00000000000E+00 0. -1.
</event>
<event>
 7    1  0.3223600E-013  0.5930192E+02  0.7816164E-02  0.1266605E+00
        -11   -1    0    0    0    0  0.00000000000E+00  0.00000000000E+00  0.45593999997E+02  0.45594000000E+02  0.51100000000E-03 0. -1.
         11   -1    0    0    0    0 -0.00000000000E+00 -0.00000000000E+00 -0.45593999997E+02  0.45594000000E+02  0.51100000000E-03 0.  1.
    9900012    2    1    2    0    0  0.28664127016E+02 -0.91729199553E+01  0.10533154667E+02  0.59301921763E+02  0.49999959394E+02 0.  0.
         12    1    1    2    0    0 -0.28664127016E+02  0.91729199553E+01 -0.10533154667E+02  0.31886078237E+02  0.00000000000E+00 0. -1.
         11    1    3    3    0    0 -0.63263743596E+01 -0.30303895527E+01  0.91923419796E+01  0.11563106188E+02  0.51100000000E-03 0. -1.
        -11    1    3    3    0    0  0.51075984162E+01 -0.61854227603E+01  0.13316178266E+02  0.15545662424E+02  0.51100000000E-03 0.  1.
         12    1    3    3    0    0  0.29882902960E+02  0.42892357709E-01 -0.11975365579E+02  0.32193153151E+02  0.00000000000E+00 0. -1.
</event>
<event>
 7    1  0.3223600E-013  0.5930193E+02  0.7816164E-02  0.1266605E+00
        -11   -1    0    0    0    0  0.00000000000E+00  0.00000000000E+00  0.45593999997E+02  0.45594000000E+02  0.51100000000E-03 0.  1.
         11   -1    0    0    0    0 -0.00000000000E+00 -0.00000000000E+00 -0.45593999997E+02  0.45594000000E+02  0.51100000000E-03 0. -1.
    9900012    2    1    2    0    0  0.10168732288E+02  0.91454500026E+01  0.28804147943E+02  0.59301932340E+02  0.49999978684E+02 0.  0.
         12    1    1    2    0    0 -0.10168732288E+02 -0.91454500026E+01 -0.28804147943E+02  0.31886067660E+02  0.00000000000E+00 0. -1.
         11    1    3    3    0    0  0.34765392468E+01  0.74936772761E+01  0.70397471693E+01  0.10853550789E+02  0.51100000000E-03 0.  1.
        -11    1    3    3    0    0  0.19968688920E+02 -0.89133139255E+01  0.13583177630E+01  0.21909831805E+02  0.51100000000E-03 0. -1.
         12    1    3    3    0    0 -0.13276495879E+02  0.10565086652E+02  0.20406083011E+02  0.26538549746E+02  0.00000000000E+00 0. -1.
</event>
<event>
 7    1  0.3223600E-013  0.5930195E+02  0.7816164E-02  0.1266605E+00
        -11   -1    0    0    0    0  0.00000000000E+00  0.00000000000E+00  0.45593999997E+02  0.45594000000E+02  0.51100000000E-03 0. -1.
         11   -1    0    0    0    0 -0.00000000000E+00 -0.00000000000E+00 -0.45593999997E+02  0.45594000000E+02  0.51100000000E-03 0.  1.
    9900012    2    1    2    0    0  0.26371039844E+02 -0.17621404230E+02 -0.32824932615E+01  0.59301946756E+02  0.50000004975E+02 0.  0.
         12    1    1    2    0    0 -0.26371039844E+02  0.17621404230E+02  0.32824932615E+01  0.31886053244E+02  0.00000000000E+00 0. -1.
         11    1    3    3    0    0 -0.21794030697E+01  0.54336420120E+01  0.17626106059E+01  0.61140052064E+01  0.51100000000E-03 0. -1.
        -11    1    3    3    0    0  0.30793357339E+02 -0.57407652794E+01 -0.13109420691E+02  0.33956503844E+02  0.51100000000E-03 0.  1.
         12    1    3    3    0    0 -0.22429144252E+01 -0.17314280962E+02  0.80643168236E+01  0.19231437705E+02  0.00000000000E+00 0. -1.
</event>
<event>
 7    1  0.3223600E-013  0.5930197E+02  0.7816164E-02  0.1266605E+00
        -11   -1    0    0    0    0  0.00000000000E+00  0.00000000000E+00  0.45593999997E+02  0.45594000000E+02  0.51100000000E-03 0. -1.
         11   -1    0    0    0    0 -0.00000000000E+00 -0.00000000000E+00 -0.45593999997E+02  0.45594000000E+02  0.51100000000E-03 0.  1.
    9900012    2    1    2    0    0 -0.12039987981E+02 -0.20904078495E+02 -0.20851305744E+02  0.59301972346E+02  0.50000051646E+02 0.  0.
         12    1    1    2    0    0  0.12039987981E+02  0.20904078495E+02  0.20851305744E+02  0.31886027654E+02  0.00000000000E+00 0. -1.
         11    1    3    3    0    0  0.31612042435E+01 -0.36885008263E+01 -0.89880236113E+01  0.10216791048E+02  0.51100000000E-03 0. -1.
        -11    1    3    3    0    0 -0.30939780843E+01  0.82745576298E+01 -0.18139527261E+02  0.20176309223E+02  0.51100000000E-03 0.  1.
         12    1    3    3    0    0 -0.12107214140E+02 -0.25490135298E+02  0.62762451283E+01  0.28908872075E+02  0.00000000000E+00 0. -1.
</event>
<event>
 7    1  0.3223600E-013  0.5930194E+02  0.7816164E-02  0.1266605E+00
        -11   -1    0    0    0    0  0.00000000000E+00  0.00000000000E+00  0.45593999997E+02  0.45594000000E+02  0.51100000000E-03 0. -1.
         11   -1    0    0    0    0 -0.00000000000E+00 -0.00000000000E+00 -0.45593999997E+02  0.45594000000E+02  0.51100000000E-03 0.  1.
    9900012    2    1    2    0    0 -0.25582047188E+02  0.37701626076E+01 -0.18656510359E+02  0.59301942809E+02  0.49999997777E+02 0.  0.
         12    1    1    2    0    0  0.25582047188E+02 -0.37701626076E+01  0.18656510359E+02  0.31886057191E+02  0.00000000000E+00 0. -1.
         11    1    3    3    0    0  0.92855292369E+01 -0.46440344916E+00  0.18344856035E+01  0.94763949613E+01  0.51100000000E-03 0. -1.
        -11    1    3    3    0    0 -0.15531954105E+02 -0.83124972384E+01 -0.20161175826E+02  0.26773349055E+02  0.51100000000E-03 0.  1.
        -12    1    3    3    0    0 -0.19335622320E+02  0.12547063295E+02 -0.32982013569E+00  0.23052198793E+02  0.00000000000E+00 0.  1.
</event>
<event>
 7    1  0.3223600E-013  0.5930194E+02  0.7816164E-02  0.1266605E+00
        -11   -1    0    0    0    0  0.00000000000E+00  0.00000000000E+00  0.45593999997E+02  0.45594000000E+02  0.51100000000E-03 0. -1.
         11   -1    0    0    0    0 -0.00000000000E+00 -0.00000000000E+00 -0.45593999997E+02  0.45594000000E+02  0.51100000000E-03 0.  1.
    9900012    2    1    2    0    0  0.71980346809E+01  0.18923127618E+02 -0.24633803736E+02  0.59301941156E+02  0.49999994763E+02 0.  0.
         12    1    1    2    0    0 -0.71980346809E+01 -0.18923127618E+02  0.24633803736E+02  0.31886058844E+02  0.00000000000E+00 0. -1.
         11    1    3    3    0    0  0.11185980678E+02  0.38238004996E+01 -0.32995508816E+01  0.12273330855E+02  0.51100000000E-03 0. -1.
        -11    1    3    3    0    0  0.98277958982E+00  0.23697989537E+02 -0.26721562689E+02  0.35729574257E+02  0.51100000000E-03 0.  1.
        -12    1    3    3    0    0 -0.49707255871E+01 -0.85986624193E+01  0.53873098345E+01  0.11299036044E+02  0.00000000000E+00 0.  1.
</event>
<event>
 7    1  0.3223600E-013  0.5930197E+02  0.7816164E-02  0.1266605E+00
        -11   -1    0    0    0    0  0.00000000000E+00  0.00000000000E+00  0.45593999997E+02  0.45594000000E+02  0.51100000000E-03 0.  1.
         11   -1    0    0    0    0 -0.00000000000E+00 -0.00000000000E+00 -0.45593999997E+02  0.45594000000E+02  0.51100000000E-03 0. -1.
    9900012    2    1    2    0    0 -0.20700634308E+02 -0.47608574840E+01  0.23781016037E+02  0.59301972520E+02  0.50000051963E+02 0.  0.
         12    1    1    2    0    0  0.20700634308E+02  0.47608574840E+01 -0.23781016037E+02  0.31886027480E+02  0.00000000000E+00 0. -1.
         11    1    3    3    0    0  0.22502195532E+01  0.32453968345E+01 -0.19185355081E+01  0.43905429514E+01  0.51100000000E-03 0. -1.
        -11    1    3    3    0    0 -0.56899693098E+01 -0.22697672304E+02  0.21663338908E+02  0.31888247547E+02  0.51100000000E-03 0.  1.
         12    1    3    3    0    0 -0.17260884551E+02  0.14691417985E+02  0.40362126374E+01  0.23023182021E+02  0.00000000000E+00 0. -1.
</event>
<event>
 7    1  0.3223600E-013  0.5930193E+02  0.7816164E-02  0.1266605E+00
        -11   -1    0    0    0    0  0.00000000000E+00  0.00000000000E+00  0.45593999997E+02  0.45594000000E+02  0.51100000000E-03 0. -1.
         11   -1    0    0    0    0 -0.00000000000E+00 -0.00000000000E+00 -0.45593999997E+02  0.45594000000E+02  0.51100000000E-03 0.  1.
    9900012    2    1    2    0    0  0.14550710707E+02  0.23458589907E+02 -0.15959091875E+02  0.59301933513E+02  0.49999980824E+02 0.  0.
         12    1    1    2    0    0 -0.14550710707E+02 -0.23458589907E+02  0.15959091875E+02  0.31886066487E+02  0.00000000000E+00 0. -1.
         11    1    3    3    0    0  0.14378445695E+02 -0.82872903791E+01 -0.97878635765E+01  0.19267100355E+02  0.51100000000E-03 0. -1.
        -11    1    3    3    0    0  0.66600973274E+01  0.56721861587E+01  0.59280643491E+01  0.10567522861E+02  0.51100000000E-03 0.  1.
         12    1    3    3    0    0 -0.64878323152E+01  0.26073694127E+02 -0.12099292648E+02  0.29467310298E+02  0.00000000000E+00 0. -1.
</event>
<event>
 7    1  0.3223600E-013  0.5930195E+02  0.7816164E-02  0.1266605E+00
        -11   -1    0    0    0    0  0.00000000000E+00  0.00000000000E+00  0.45593999997E+02  0.45594000000E+02  0.51100000000E-03 0.  1.
         11   -1    0    0    0    0 -0.00000000000E+00 -0.00000000000E+00 -0.45593999997E+02  0.45594000000E+02  0.51100000000E-03 0. -1.
    9900012    2    1    2    0    0 -0.13056673767E+02  0.25607856325E+02 -0.13801489353E+02  0.59301950640E+02  0.50000012059E+02 0.  0.
         12    1    1    2    0    0  0.13056673767E+02 -0.25607856325E+02  0.13801489353E+02  0.31886049360E+02  0.00000000000E+00 0. -1.
         11    1    3    3    0    0 -0.14091515740E+02  0.12025049215E+02  0.12154630147E+02  0.22156436057E+02  0.51100000000E-03 0. -1.
        -11    1    3    3    0    0  0.46273725741E+01  0.18603227574E+02 -0.14163690470E+02  0.23834906778E+02  0.51100000000E-03 0.  1.
        -12    1    3    3    0    0 -0.35925306009E+01 -0.50204204637E+01 -0.11792429029E+02  0.13310607806E+02  0.00000000000E+00 0.  1.
</event>
<event>
 7    1  0.3223600E-013  0.5930193E+02  0.7816164E-02  0.1266605E+00
        -11   -1    0    0    0    0  0.00000000000E+00  0.00000000000E+00  0.45593999997E+02  0.45594000000E+02  0.51100000000E-03 0. -1.
         11   -1    0    0    0    0 -0.00000000000E+00 -0.00000000000E+00 -0.45593999997E+02  0.45594000000E+02  0.51100000000E-03 0.  1.
    9900012    2    1    2    0    0 -0.15305040915E+02 -0.27772713496E+02 -0.33396654699E+01  0.59301933171E+02  0.49999980201E+02 0.  0.
         12    1    1    2    0    0  0.15305040915E+02  0.27772713496E+02  0.33396654699E+01  0.31886066829E+02  0.00000000000E+00 0. -1.
         11    1    3    3    0    0 -0.32159433298E+00 -0.93252462601E+01  0.73471147450E+00  0.93596710379E+01  0.51100000000E-03 0. -1.
        -11    1    3    3    0    0 -0.13400915294E+02 -0.28677375440E+02 -0.14881224050E+02  0.34977524531E+02  0.51100000000E-03 0.  1.
         12    1    3    3    0    0 -0.15825312880E+01  0.10229908204E+02  0.10806847106E+02  0.14964737602E+02  0.00000000000E+00 0. -1.
</event>
<event>
 7    1  0.3223600E-013  0.5930195E+02  0.7816164E-02  0.1266605E+00
        -11   -1    0    0    0    0  0.00000000000E+00  0.00000000000E+00  0.45593999997E+02  0.45594000000E+02  0.51100000000E-03 0.  1.
         11   -1    0    0    0    0 -0.00000000000E+00 -0.00000000000E+00 -0.45593999997E+02  0.45594000000E+02  0.51100000000E-03 0. -1.
    9900012    2    1    2    0    0 -0.11467431766E+02 -0.23861175217E+02  0.17772515438E+02  0.59301953223E+02  0.50000016770E+02 0.  0.
         12    1    1    2    0    0  0.11467431766E+02  0.23861175217E+02 -0.17772515438E+02  0.31886046777E+02  0.00000000000E+00 0. -1.
         11    1    3    3    0    0 -0.58378560462E+01 -0.27840962952E+01 -0.38631764228E+00  0.64792744176E+01  0.51100000000E-03 0. -1.
        -11    1    3    3    0    0 -0.21670086706E+01  0.19878053299E+01  0.27530365045E+02  0.27686969794E+02  0.51100000000E-03 0.  1.
         12    1    3    3    0    0 -0.34625670494E+01 -0.23064884252E+02 -0.93715319647E+01  0.25135709011E+02  0.00000000000E+00 0. -1.
</event>
<event>
 7    1  0.3223600E-013  0.5930193E+02  0.7816164E-02  0.1266605E+00
        -11   -1    0    0    0    0  0.00000000000E+00  0.00000000000E+00  0.45593999997E+02  0.45594000000E+02  0.51100000000E-03 0.  1.
         11   -1    0    0    0    0 -0.00000000000E+00 -0.00000000000E+00 -0.45593999997E+02  0.45594000000E+02  0.51100000000E-03 0. -1.
    9900012    2    1    2    0    0 -0.12502563797E+02  0.18970195068E+02  0.22372727157E+02  0.59301932152E+02  0.49999978341E+02 0.  0.
         12    1    1    2    0    0  0.12502563797E+02 -0.18970195068E+02 -0.22372727157E+02  0.31886067848E+02  0.00000000000E+00 0. -1.
         11    1    3    3    0    0 -0.15919972797E+02  0.19607566266E+02  0.29136306019E+00  0.25258406154E+02  0.51100000000E-03 0. -1.
        -11    1    3    3    0    0 -0.10096729818E+02  0.15148702025E+01  0.31509358922E+01  0.10684904398E+02  0.51100000000E-03 0.  1.
        -12    1    3    3    0    0  0.13514138818E+02 -0.21522414007E+01  0.18930428204E+02  0.23358621600E+02  0.00000000000E+00 0.  1.
</event>
<event>
 7    1  0.3223600E-013  0.5930194E+02  0.7816164E-02  0.1266605E+00
        -11   -1    0    0    0    0  0.00000000000E+00  0.00000000000E+00  0.45593999997E+02  0.45594000000E+02  0.51100000000E-03 0. -1.
         11   -1    0    0    0    0 -0.00000000000E+00 -0.00000000000E+00 -0.45593999997E+02  0.45594000000E+02  0.51100000000E-03 0.  1.
    9900012    2    1    2    0    0  0.21403715101E+02  0.45400586330E+01 -0.23194607980E+02  0.59301937341E+02  0.49999987806E+02 0.  0.
         12    1    1    2    0    0 -0.21403715101E+02 -0.45400586330E+01  0.23194607980E+02  0.31886062659E+02  0.00000000000E+00 0. -1.
         11    1    3    3    0    0 -0.11747754150E+01 -0.16089576493E+02 -0.67667937236E+01  0.17494115198E+02  0.51100000000E-03 0. -1.
        -11    1    3    3    0    0  0.11497662269E+02 -0.33882229984E+01 -0.47345421388E+01  0.12887675596E+02  0.51100000000E-03 0.  1.
        -12    1    3    3    0    0  0.11080828247E+02  0.24017858124E+02 -0.11693272118E+02  0.28920146548E+02  0.00000000000E+00 0.  1.
</event>
<event>
 7    1  0.3223600E-013  0.5930194E+02  0.7816164E-02  0.1266605E+00
        -11   -1    0    0    0    0  0.00000000000E+00  0.00000000000E+00  0.45593999997E+02  0.45594000000E+02  0.51100000000E-03 0.  1.
         11   -1    0    0    0    0 -0.00000000000E+00 -0.00000000000E+00 -0.45593999997E+02  0.45594000000E+02  0.51100000000E-03 0. -1.
    9900012    2    1    2    0    0 -0.26701206616E+01 -0.30717560622E+02  0.81254367813E+01  0.59301940385E+02  0.49999993356E+02 0.  0.
         12    1    1    2    0    0  0.26701206616E+01  0.30717560622E+02 -0.81254367813E+01  0.31886059615E+02  0.00000000000E+00 0. -1.
         11    1    3    3    0    0  0.28342026239E+00  0.62200682329E+01 -0.91486757859E+00  0.62933741995E+01  0.51100000000E-03 0. -1.
        -11    1    3    3    0    0  0.12440663796E+02 -0.13521653990E+02  0.15741966175E+02  0.24195345454E+02  0.51100000000E-03 0.  1.
        -12    1    3    3    0    0 -0.15394204720E+02 -0.23415974865E+02 -0.67016618155E+01  0.28813220731E+02  0.00000000000E+00 0.  1.
</event>
<event>
 7    1  0.3223600E-013  0.5930193E+02  0.7816164E-02  0.1266605E+00
        -11   -1    0    0    0    0  0.00000000000E+00  0.00000000000E+00  0.45593999997E+02  0.45594000000E+02  0.51100000000E-03 0.  1.
         11   -1    0    0    0    0 -0.00000000000E+00 -0.00000000000E+00 -0.45593999997E+02  0.45594000000E+02  0.51100000000E-03 0. -1.
    9900012    2    1    2    0    0  0.28514115339E+01  0.79891531468E+01  0.30737017559E+02  0.59301931504E+02  0.49999977159E+02 0.  0.
         12    1    1    2    0    0 -0.28514115339E+01 -0.79891531468E+01 -0.30737017559E+02  0.31886068496E+02  0.00000000000E+00 0. -1.
         11    1    3    3    0    0 -0.11656184581E+02 -0.70350247433E+01  0.55276505783E+01  0.14693982894E+02  0.51100000000E-03 0. -1.
        -11    1    3    3    0    0  0.21220115465E+02  0.14959248903E+02  0.97133498788E+01  0.27720418363E+02  0.51100000000E-03 0.  1.
         12    1    3    3    0    0 -0.67125193509E+01  0.64928987431E-01  0.15496017102E+02  0.16887530247E+02  0.00000000000E+00 0. -1.
</event>
<event>
 7    1  0.3223600E-013  0.5930190E+02  0.7816164E-02  0.1266605E+00
        -11   -1    0    0    0    0  0.00000000000E+00  0.00000000000E+00  0.45593999997E+02  0.45594000000E+02  0.51100000000E-03 0. -1.
         11   -1    0    0    0    0 -0.00000000000E+00 -0.00000000000E+00 -0.45593999997E+02  0.45594000000E+02  0.51100000000E-03 0.  1.
    9900012    2    1    2    0    0 -0.27705035722E+02 -0.82675718929E+01 -0.13446237654E+02  0.59301904968E+02  0.49999928764E+02 0.  0.
         12    1    1    2    0    0  0.27705035722E+02  0.82675718929E+01  0.13446237654E+02  0.31886095032E+02  0.00000000000E+00 0. -1.
         11    1    3    3    0    0 -0.22327866652E+02 -0.10867278505E+02  0.54530937184E+01  0.25423760593E+02  0.51100000000E-03 0. -1.
        -11    1    3    3    0    0 -0.43234413736E+01 -0.11090960187E+02 -0.15833096779E+02  0.19808798476E+02  0.51100000000E-03 0.  1.
        -12    1    3    3    0    0 -0.10537276966E+01  0.13690666799E+02 -0.30662345927E+01  0.14069345899E+02  0.00000000000E+00 0.  1.
</event>
<event>
 7    1  0.3223600E-013  0.5930195E+02  0.7816164E-02  0.1266605E+00
        -11   -1    0    0    0    0  0.00000000000E+00  0.00000000000E+00  0.45593999997E+02  0.45594000000E+02  0.51100000000E-03 0.  1.
         11   -1    0    0    0    0 -0.00000000000E+00 -0.00000000000E+00 -0.45593999997E+02  0.45594000000E+02  0.51100000000E-03 0. -1.
    9900012    2    1    2    0    0 -0.16053503024E+02 -0.26429171168E+02  0.77784360895E+01  0.59301951076E+02  0.50000012855E+02 0.  0.
         12    1    1    2    0    0  0.16053503024E+02  0.26429171168E+02 -0.77784360895E+01  0.31886048924E+02  0.00000000000E+00 0. -1.
         11    1    3    3    0    0 -0.18241175906E+01 -0.17937335068E+02 -0.16053706133E+02  0.24141186284E+02  0.51100000000E-03 0. -1.
        -11    1    3    3    0    0  0.27098217157E+01 -0.55922958948E+01  0.57194508765E+00  0.62405150870E+01  0.51100000000E-03 0.  1.
         12    1    3    3    0    0 -0.16939207150E+02 -0.28995402046E+01  0.23260197135E+02  0.28920249705E+02  0.00000000000E+00 0. -1.
</event>
<event>
 7    1  0.3223600E-013  0.5930186E+02  0.7816164E-02  0.1266605E+00
        -11   -1    0    0    0    0  0.00000000000E+00  0.00000000000E+00  0.45593999997E+02  0.45594000000E+02  0.51100000000E-03 0.  1.
         11   -1    0    0    0    0 -0.00000000000E+00 -0.00000000000E+00 -0.45593999997E+02  0.45594000000E+02  0.51100000000E-03 0. -1.
    9900012    2    1    2    0    0 -0.18640119089E+02 -0.15328628328E+02  0.20839984163E+02  0.59301861539E+02  0.49999849561E+02 0.  0.
         12    1    1    2    0    0  0.18640119089E+02  0.15328628328E+02 -0.20839984163E+02  0.31886138461E+02  0.00000000000E+00 0. -1.
         11    1    3    3    0    0 -0.12904237434E+02  0.14538178182E+01  0.82611144811E+01  0.15390872059E+02  0.51100000000E-03 0.  1.
        -11    1    3    3    0    0  0.10049721087E+02 -0.14379372819E+02  0.19741994767E+02  0.26410407309E+02  0.51100000000E-03 0. -1.
         12    1    3    3    0    0 -0.15785602742E+02 -0.24030733275E+01 -0.71631250854E+01  0.17500582172E+02  0.00000000000E+00 0. -1.
</event>
<event>
 7    1  0.3223600E-013  0.5930195E+02  0.7816164E-02  0.1266605E+00
        -11   -1    0    0    0    0  0.00000000000E+00  0.00000000000E+00  0.45593999997E+02  0.45594000000E+02  0.51100000000E-03 0. -1.
         11   -1    0    0    0    0 -0.00000000000E+00 -0.00000000000E+00 -0.45593999997E+02  0.45594000000E+02  0.51100000000E-03 0.  1.
    9900012    2    1    2    0    0 -0.27891294626E+02 -0.14861478015E+02  0.42346578513E+01  0.59301950200E+02  0.50000011256E+02 0.  0.
         12    1    1    2    0    0  0.27891294626E+02  0.14861478015E+02 -0.42346578513E+01  0.31886049800E+02  0.00000000000E+00 0. -1.
         11    1    3    3    0    0 -0.72391394059E+01  0.20741241254E+01  0.19725928044E+02  0.21114435055E+02  0.51100000000E-03 0. -1.
        -11    1    3    3    0    0 -0.70292988998E+00 -0.14432929106E+02 -0.38468241056E+01  0.14953314314E+02  0.51100000000E-03 0.  1.
        -12    1    3    3    0    0 -0.19949225331E+02 -0.25026730349E+01 -0.11644446087E+02  0.23234200832E+02  0.00000000000E+00 0.  1.
</event>
<event>
 7    1  0.3223600E-013  0.5930198E+02  0.7816164E-02  0.1266605E+00
        -11   -1    0    0    0    0  0.00000000000E+00  0.00000000000E+00  0.45593999997E+02  0.45594000000E+02  0.51100000000E-03 0.  1.
         11   -1    0    0    0    0 -0.00000000000E+00 -0.00000000000E+00 -0.45593999997E+02  0.45594000000E+02  0.51100000000E-03 0. -1.
    9900012    2    1    2    0    0  0.21775500773E+02 -0.17474139194E+02  0.15401314325E+02  0.59301977084E+02  0.50000060286E+02 0.  0.
         12    1    1    2    0    0 -0.21775500773E+02  0.17474139194E+02 -0.15401314325E+02  0.31886022916E+02  0.00000000000E+00 0. -1.
         11    1    3    3    0    0 -0.25246485716E+01  0.12806305405E+02  0.72753642863E+01  0.14943434488E+02  0.51100000000E-03 0. -1.
        -11    1    3    3    0    0  0.13665597900E+01 -0.83322265453E+01  0.93407995501E+01  0.12591426502E+02  0.51100000000E-03 0.  1.
        -12    1    3    3    0    0  0.22933589555E+02 -0.21948218053E+02 -0.12148495113E+01  0.31767116094E+02  0.00000000000E+00 0.  1.
</event>
<event>
 7    1  0.3223600E-013  0.5930193E+02  0.7816164E-02  0.1266605E+00
        -11   -1    0    0    0    0  0.00000000000E+00  0.00000000000E+00  0.45593999997E+02  0.45594000000E+02  0.51100000000E-03 0.  1.
         11   -1    0    0    0    0 -0.00000000000E+00 -0.00000000000E+00 -0.45593999997E+02  0.45594000000E+02  0.51100000000E-03 0. -1.
    9900012    2    1    2    0    0 -0.76286963402E+01 -0.20154770499E+02  0.23501269278E+02  0.59301930324E+02  0.49999975007E+02 0.  0.
         12    1    1    2    0    0  0.76286963402E+01  0.20154770499E+02 -0.23501269278E+02  0.31886069676E+02  0.00000000000E+00 0. -1.
         11    1    3    3    0    0 -0.14844069764E+02  0.86576595853E+01  0.53928806954E+01  0.18010681251E+02  0.51100000000E-03 0. -1.
        -11    1    3    3    0    0  0.16972010299E+01  0.33121384085E+01 -0.50534095845E+00  0.37558117522E+01  0.51100000000E-03 0.  1.
        -12    1    3    3    0    0  0.55181723941E+01 -0.32124568493E+02  0.18613729541E+02  0.37535437321E+02  0.00000000000E+00 0.  1.
</event>
<event>
 7    1  0.3223600E-013  0.5930194E+02  0.7816164E-02  0.1266605E+00
        -11   -1    0    0    0    0  0.00000000000E+00  0.00000000000E+00  0.45593999997E+02  0.45594000000E+02  0.51100000000E-03 0.  1.
         11   -1    0    0    0    0 -0.00000000000E+00 -0.00000000000E+00 -0.45593999997E+02  0.45594000000E+02  0.51100000000E-03 0. -1.
    9900012    2    1    2    0    0  0.12869038535E+02  0.29098608534E+02  0.20927641648E+01  0.59301939829E+02  0.49999992342E+02 0.  0.
         12    1    1    2    0    0 -0.12869038535E+02 -0.29098608534E+02 -0.20927641648E+01  0.31886060171E+02  0.00000000000E+00 0. -1.
         11    1    3    3    0    0 -0.20778449311E+01 -0.89189554407E+00  0.13789510253E+01  0.26484756768E+01  0.51100000000E-03 0. -1.
        -11    1    3    3    0    0  0.16232186391E+02  0.17447498372E+02  0.21661165487E+02  0.32204117205E+02  0.51100000000E-03 0.  1.
         12    1    3    3    0    0 -0.12853029250E+01  0.12543005706E+02 -0.20947352347E+02  0.24449346946E+02  0.00000000000E+00 0. -1.
</event>
<event>
 7    1  0.3223600E-013  0.5930194E+02  0.7816164E-02  0.1266605E+00
        -11   -1    0    0    0    0  0.00000000000E+00  0.00000000000E+00  0.45593999997E+02  0.45594000000E+02  0.51100000000E-03 0. -1.
         11   -1    0    0    0    0 -0.00000000000E+00 -0.00000000000E+00 -0.45593999997E+02  0.45594000000E+02  0.51100000000E-03 0.  1.
    9900012    2    1    2    0    0 -0.33783047989E+01 -0.78271462280E+00 -0.31696924509E+02  0.59301943348E+02  0.49999998760E+02 0.  0.
         12    1    1    2    0    0  0.33783047989E+01  0.78271462280E+00  0.31696924509E+02  0.31886056652E+02  0.00000000000E+00 0. -1.
         11    1    3    3    0    0 -0.15382573481E+02 -0.26604380504E+01 -0.10021011026E+02  0.18550529905E+02  0.51100000000E-03 0. -1.
        -11    1    3    3    0    0 -0.59124398603E+00 -0.23728344386E+01 -0.26497893303E+02  0.26610491587E+02  0.51100000000E-03 0.  1.
        -12    1    3    3    0    0  0.12595512668E+02  0.42505578662E+01  0.48219798201E+01  0.14140921856E+02  0.00000000000E+00 0.  1.
</event>
<event>
 7    1  0.3223600E-013  0.5930191E+02  0.7816164E-02  0.1266605E+00
        -11   -1    0    0    0    0  0.00000000000E+00  0.00000000000E+00  0.45593999997E+02  0.45594000000E+02  0.51100000000E-03 0.  1.
         11   -1    0    0    0    0 -0.00000000000E+00 -0.00000000000E+00 -0.45593999997E+02  0.45594000000E+02  0.51100000000E-03 0. -1.
    9900012    2    1    2    0    0  0.12878033978E+02 -0.12325177855E+02  0.26438023320E+02  0.59301908277E+02  0.49999934799E+02 0.  0.
         12    1    1    2    0    0 -0.12878033978E+02  0.12325177855E+02 -0.26438023320E+02  0.31886091723E+02  0.00000000000E+00 0. -1.
         11    1    3    3    0    0  0.30523129243E+01  0.43473074587E+01 -0.60454713821E+01  0.80475723558E+01  0.51100000000E-03 0. -1.
        -11    1    3    3    0    0 -0.11660254254E+02 -0.11930168019E+01  0.16775610214E+02  0.20464748146E+02  0.51100000000E-03 0.  1.
        -12    1    3    3    0    0  0.21485975307E+02 -0.15479468512E+02  0.15707884488E+02  0.30789587776E+02  0.00000000000E+00 0.  1.
</event>
<event>
 7    1  0.3223600E-013  0.5930196E+02  0.7816164E-02  0.1266605E+00
        -11   -1    0    0    0    0  0.00000000000E+00  0.00000000000E+00  0.45593999997E+02  0.45594000000E+02  0.51100000000E-03 0.  1.
         11   -1    0    0    0    0 -0.00000000000E+00 -0.00000000000E+00 -0.45593999997E+02  0.45594000000E+02  0.51100000000E-03 0. -1.
    9900012    2    1    2    0    0 -0.13138672310E+02 -0.10703691833E+02  0.27009738449E+02  0.59301957599E+02  0.50000024750E+02 0.  0.
         12    1    1    2    0    0  0.13138672310E+02  0.10703691833E+02 -0.27009738449E+02  0.31886042401E+02  0.00000000000E+00 0. -1.
         11    1    3    3    0    0  0.53059302511E+00  0.66685106684E+01  0.24370048754E+00  0.66940237288E+01  0.51100000000E-03 0.  1.
        -11    1    3    3    0    0  0.20969764985E+01  0.11341484493E+02  0.12102758967E+02  0.16718353861E+02  0.51100000000E-03 0. -1.
         12    1    3    3    0    0 -0.15766241833E+02 -0.28713686994E+02  0.14663278995E+02  0.35889580009E+02  0.00000000000E+00 0. -1.
</event>
<event>
 7    1  0.3223600E-013  0.5930184E+02  0.7816164E-02  0.1266605E+00
        -11   -1    0    0    0    0  0.00000000000E+00  0.00000000000E+00  0.45593999997E+02  0.45594000000E+02  0.51100000000E-03 0.  1.
         11   -1    0    0    0    0 -0.00000000000E+00 -0.00000000000E+00 -0.45593999997E+02  0.45594000000E+02  0.51100000000E-03 0. -1.
    9900012    2    1    2    0    0  0.26042644703E+02  0.14743676817E+02  0.11005991549E+02  0.59301840005E+02  0.49999810288E+02 0.  0.
         12    1    1    2    0    0 -0.26042644703E+02 -0.14743676817E+02 -0.11005991549E+02  0.31886159995E+02  0.00000000000E+00 0. -1.
         11    1    3    3    0    0  0.24757939561E+02  0.10462401474E+02 -0.74220567751E+01  0.27883764864E+02  0.51100000000E-03 0. -1.
        -11    1    3    3    0    0  0.87589384224E+01  0.11561533435E+02  0.75774383798E+01  0.16364767958E+02  0.51100000000E-03 0.  1.
        -12    1    3    3    0    0 -0.74742332804E+01 -0.72802580922E+01  0.10850609944E+02  0.15053307184E+02  0.00000000000E+00 0.  1.
</event>
<event>
 7    1  0.3223600E-013  0.5930194E+02  0.7816164E-02  0.1266605E+00
        -11   -1    0    0    0    0  0.00000000000E+00  0.00000000000E+00  0.45593999997E+02  0.45594000000E+02  0.51100000000E-03 0.  1.
         11   -1    0    0    0    0 -0.00000000000E+00 -0.00000000000E+00 -0.45593999997E+02  0.45594000000E+02  0.51100000000E-03 0. -1.
    9900012    2    1    2    0    0 -0.21712514252E+02  0.10290555237E+02  0.20961677706E+02  0.59301941377E+02  0.49999995166E+02 0.  0.
         12    1    1    2    0    0  0.21712514252E+02 -0.10290555237E+02 -0.20961677706E+02  0.31886058623E+02  0.00000000000E+00 0. -1.
         11    1    3    3    0    0  0.63539630788E+01 -0.64667103916E+01 -0.49139622996E+01  0.10312042273E+02  0.51100000000E-03 0. -1.
        -11    1    3    3    0    0 -0.19520240990E+02 -0.32587036449E+01  0.11195547273E+02  0.22737617218E+02  0.51100000000E-03 0.  1.
        -12    1    3    3    0    0 -0.85462363408E+01  0.20015969274E+02  0.14680092733E+02  0.26252281886E+02  0.00000000000E+00 0.  1.
</event>
<event>
 7    1  0.3223600E-013  0.5930197E+02  0.7816164E-02  0.1266605E+00
        -11   -1    0    0    0    0  0.00000000000E+00  0.00000000000E+00  0.45593999997E+02  0.45594000000E+02  0.51100000000E-03 0. -1.
         11   -1    0    0    0    0 -0.00000000000E+00 -0.00000000000E+00 -0.45593999997E+02  0.45594000000E+02  0.51100000000E-03 0.  1.
    9900012    2    1    2    0    0 -0.18475290920E+02  0.20915608266E+02 -0.15424650377E+02  0.59301970411E+02  0.50000048117E+02 0.  0.
         12    1    1    2    0    0  0.18475290920E+02 -0.20915608266E+02  0.15424650377E+02  0.31886029589E+02  0.00000000000E+00 0. -1.
         11    1    3    3    0    0 -0.10261607486E+02  0.13670205635E+02 -0.90451154349E+01  0.19338800991E+02  0.51100000000E-03 0. -1.
        -11    1    3    3    0    0 -0.21058983694E+02  0.11555856945E+02  0.18804035511E+01  0.24094699453E+02  0.51100000000E-03 0.  1.
         12    1    3    3    0    0  0.12845300260E+02 -0.43104543143E+01 -0.82599384929E+01  0.15868469966E+02  0.00000000000E+00 0. -1.
</event>
<event>
 7    1  0.3223600E-013  0.5930195E+02  0.7816164E-02  0.1266605E+00
        -11   -1    0    0    0    0  0.00000000000E+00  0.00000000000E+00  0.45593999997E+02  0.45594000000E+02  0.51100000000E-03 0. -1.
         11   -1    0    0    0    0 -0.00000000000E+00 -0.00000000000E+00 -0.45593999997E+02  0.45594000000E+02  0.51100000000E-03 0.  1.
    9900012    2    1    2    0    0  0.10800119653E+02 -0.25795658320E+02 -0.15318660134E+02  0.59301954134E+02  0.50000018432E+02 0.  0.
         12    1    1    2    0    0 -0.10800119653E+02  0.25795658320E+02  0.15318660134E+02  0.31886045866E+02  0.00000000000E+00 0. -1.
         11    1    3    3    0    0  0.15059826620E+00 -0.20686452882E+02  0.59398449810E+01  0.21522866243E+02  0.51100000000E-03 0. -1.
        -11    1    3    3    0    0  0.21435632302E+01  0.47701294237E+01  0.57600002180E+01  0.77798843702E+01  0.51100000000E-03 0.  1.
        -12    1    3    3    0    0  0.85059581565E+01 -0.98793348617E+01 -0.27018505333E+02  0.29999203521E+02  0.00000000000E+00 0.  1.
</event>
<event>
 7    1  0.3223600E-013  0.5930195E+02  0.7816164E-02  0.1266605E+00
        -11   -1    0    0    0    0  0.00000000000E+00  0.00000000000E+00  0.45593999997E+02  0.45594000000E+02  0.51100000000E-03 0. -1.
         11   -1    0    0    0    0 -0.00000000000E+00 -0.00000000000E+00 -0.45593999997E+02  0.45594000000E+02  0.51100000000E-03 0.  1.
    9900012    2    1    2    0    0  0.14272824393E+02 -0.20332060939E+01 -0.28440692413E+02  0.59301946182E+02  0.50000003928E+02 0.  0.
         12    1    1    2    0    0 -0.14272824393E+02  0.20332060939E+01  0.28440692413E+02  0.31886053818E+02  0.00000000000E+00 0. -1.
         11    1    3    3    0    0 -0.31116270136E+01 -0.17095719031E+02 -0.50967900194E+00  0.17384061804E+02  0.51100000000E-03 0. -1.
        -11    1    3    3    0    0  0.57368823697E+00  0.47524747101E+01  0.26938345692E+01  0.54928935007E+01  0.51100000000E-03 0.  1.
        -12    1    3    3    0    0  0.16810763170E+02  0.10310038227E+02 -0.30624847980E+02  0.36424990877E+02  0.00000000000E+00 0.  1.
</event>
<event>
 7    1  0.3223600E-013  0.5930198E+02  0.7816164E-02  0.1266605E+00
        -11   -1    0    0    0    0  0.00000000000E+00  0.00000000000E+00  0.45593999997E+02  0.45594000000E+02  0.51100000000E-03 0.  1.
         11   -1    0    0    0    0 -0.00000000000E+00 -0.00000000000E+00 -0.45593999997E+02  0.45594000000E+02  0.51100000000E-03 0. -1.
    9900012    2    1    2    0    0 -0.18052588427E+02  0.25114089995E+02  0.77527458846E+01  0.59301975884E+02  0.50000058098E+02 0.  0.
         12    1    1    2    0    0  0.18052588427E+02 -0.25114089995E+02 -0.77527458846E+01  0.31886024116E+02  0.00000000000E+00 0. -1.
         11    1    3    3    0    0 -0.17373516189E+02  0.92293341476E+01  0.86597314583E+01  0.21494432367E+02  0.51100000000E-03 0.  1.
        -11    1    3    3    0    0 -0.36158395002E+01 -0.48089945404E+01 -0.12524493687E+02  0.13894735195E+02  0.51100000000E-03 0. -1.
         12    1    3    3    0    0  0.29367672628E+01  0.20693750388E+02  0.11617508113E+02  0.23912808322E+02  0.00000000000E+00 0. -1.
</event>
<event>
 7    1  0.3223600E-013  0.5930194E+02  0.7816164E-02  0.1266605E+00
        -11   -1    0    0    0    0  0.00000000000E+00  0.00000000000E+00  0.45593999997E+02  0.45594000000E+02  0.51100000000E-03 0.  1.
         11   -1    0    0    0    0 -0.00000000000E+00 -0.00000000000E+00 -0.45593999997E+02  0.45594000000E+02  0.51100000000E-03 0. -1.
    9900012    2    1    2    0    0  0.28015365806E+02 -0.13900231354E+02 -0.62163860853E+01  0.59301943347E+02  0.49999998758E+02 0.  0.
         12    1    1    2    0    0 -0.28015365806E+02  0.13900231354E+02  0.62163860853E+01  0.31886056653E+02  0.00000000000E+00 0. -1.
         11    1    3    3    0    0 -0.94291842840E+01  0.58542141679E+01  0.45599390037E+01  0.11998932609E+02  0.51100000000E-03 0. -1.
        -11    1    3    3    0    0  0.91761235295E+01  0.12099267272E+01  0.26620325331E+01  0.96307623365E+01  0.51100000000E-03 0.  1.
        -12    1    3    3    0    0  0.28268426560E+02 -0.20964372249E+02 -0.13438357622E+02  0.37672248401E+02  0.00000000000E+00 0.  1.
</event>
<event>
 7    1  0.3223600E-013  0.5930195E+02  0.7816164E-02  0.1266605E+00
        -11   -1    0    0    0    0  0.00000000000E+00  0.00000000000E+00  0.45593999997E+02  0.45594000000E+02  0.51100000000E-03 0.  1.
         11   -1    0    0    0    0 -0.00000000000E+00 -0.00000000000E+00 -0.45593999997E+02  0.45594000000E+02  0.51100000000E-03 0. -1.
    9900012    2    1    2    0    0 -0.30167696644E+02  0.84342798906E+01 -0.59575982096E+01  0.59301953295E+02  0.50000016901E+02 0.  0.
         12    1    1    2    0    0  0.30167696644E+02 -0.84342798906E+01  0.59575982096E+01  0.31886046705E+02  0.00000000000E+00 0. -1.
         11    1    3    3    0    0 -0.29739851086E+02 -0.85935077635E+01 -0.77573003794E+01  0.31913677754E+02  0.51100000000E-03 0. -1.
        -11    1    3    3    0    0 -0.75213421326E+01  0.95638587353E+00  0.55862184374E+01  0.94175951339E+01  0.51100000000E-03 0.  1.
        -12    1    3    3    0    0  0.70934965751E+01  0.16071401781E+02 -0.37865162677E+01  0.17970680407E+02  0.00000000000E+00 0.  1.
</event>
